7268                                                                    
Freq      RMP2-FC                                                     6-31G(d)            
Number of atoms                            I               20
Info1-9                                    I   N=           9
          32          30        1002           0           0         100
           6           2           1
Charge                                     I                0
Multiplicity                               I                1
Number of electrons                        I               78
Number of alpha electrons                  I               39
Number of beta electrons                   I               39
Number of basis functions                  I              170
Number of independent functions            I              170
Number of point charges in /Mol/           I                0
Number of translation vectors              I                0
Atomic numbers                             I   N=          20
           8           8           8           8           6           6
           6           6           6           6           1           1
           1           1           1           1           1           1
           1           1
Nuclear charges                            R   N=          20
  8.00000000E+00  8.00000000E+00  8.00000000E+00  8.00000000E+00  6.00000000E+00
  6.00000000E+00  6.00000000E+00  6.00000000E+00  6.00000000E+00  6.00000000E+00
  1.00000000E+00  1.00000000E+00  1.00000000E+00  1.00000000E+00  1.00000000E+00
  1.00000000E+00  1.00000000E+00  1.00000000E+00  1.00000000E+00  1.00000000E+00
Current cartesian coordinates              R   N=          60
  3.27155319E+00 -5.23404021E-01  1.10671394E-04 -3.27155352E+00  5.23401829E-01
  4.16833533E-05  1.05384766E+00  3.17219378E+00 -3.15255999E-04 -1.05384234E+00
 -3.17219304E+00 -6.13013317E-04  5.59011031E+00  9.47124061E-01  1.91594995E-04
 -5.59011443E+00 -9.47124483E-01 -6.90999749E-05  7.74061895E+00 -9.29915714E-01
  5.00613807E-04 -7.74062133E+00  9.29916908E-01  3.60450021E-04  1.15672066E+00
  8.71650327E-01 -1.43907367E-04 -1.15671851E+00 -8.71650190E-01 -2.72562820E-04
  5.59819589E+00  2.16202038E+00 -1.67091151E+00  5.59792683E+00  2.16226436E+00
  1.67111887E+00 -5.59815854E+00 -2.16186551E+00 -1.67128532E+00 -5.59797197E+00
 -2.16241911E+00  1.67074548E+00  9.54554995E+00  7.65686186E-02  5.68495256E-04
  7.65414272E+00 -2.13016903E+00  1.67627394E+00  7.65440614E+00 -2.13041763E+00
 -1.67510801E+00 -9.54555375E+00 -7.65648487E-02  2.91067493E-04 -7.65418485E+00
  2.13001525E+00  1.67624666E+00 -7.65436622E+00  2.13057375E+00 -1.67513488E+00
Force Field                                I                0
Int Atom Types                             I   N=          20
           0           0           0           0           0           0
           0           0           0           0           0           0
           0           0           0           0           0           0
           0           0
MM charges                                 R   N=          20
  0.00000000E+00  0.00000000E+00  0.00000000E+00  0.00000000E+00  0.00000000E+00
  0.00000000E+00  0.00000000E+00  0.00000000E+00  0.00000000E+00  0.00000000E+00
  0.00000000E+00  0.00000000E+00  0.00000000E+00  0.00000000E+00  0.00000000E+00
  0.00000000E+00  0.00000000E+00  0.00000000E+00  0.00000000E+00  0.00000000E+00
Integer atomic weights                     I   N=          20
          16          16          16          16          12          12
          12          12          12          12           1           1
           1           1           1           1           1           1
           1           1
Real atomic weights                        R   N=          20
  1.59949146E+01  1.59949146E+01  1.59949146E+01  1.59949146E+01  1.20000000E+01
  1.20000000E+01  1.20000000E+01  1.20000000E+01  1.20000000E+01  1.20000000E+01
  1.00782504E+00  1.00782504E+00  1.00782504E+00  1.00782504E+00  1.00782504E+00
  1.00782504E+00  1.00782504E+00  1.00782504E+00  1.00782504E+00  1.00782504E+00
Atom fragment info                         I   N=          20
           0           0           0           0           0           0
           0           0           0           0           0           0
           0           0           0           0           0           0
           0           0
Atom residue num                           I   N=          20
           0           0           0           0           0           0
           0           0           0           0           0           0
           0           0           0           0           0           0
           0           0
Nuclear spins                              I   N=          20
           0           0           0           0           0           0
           0           0           0           0           1           1
           1           1           1           1           1           1
           1           1
Nuclear ZEff                               R   N=          20
 -5.60000000E+00 -5.60000000E+00 -5.60000000E+00 -5.60000000E+00 -3.60000000E+00
 -3.60000000E+00 -3.60000000E+00 -3.60000000E+00 -3.60000000E+00 -3.60000000E+00
 -1.00000000E+00 -1.00000000E+00 -1.00000000E+00 -1.00000000E+00 -1.00000000E+00
 -1.00000000E+00 -1.00000000E+00 -1.00000000E+00 -1.00000000E+00 -1.00000000E+00
Nuclear QMom                               R   N=          20
  0.00000000E+00  0.00000000E+00  0.00000000E+00  0.00000000E+00  0.00000000E+00
  0.00000000E+00  0.00000000E+00  0.00000000E+00  0.00000000E+00  0.00000000E+00
  0.00000000E+00  0.00000000E+00  0.00000000E+00  0.00000000E+00  0.00000000E+00
  0.00000000E+00  0.00000000E+00  0.00000000E+00  0.00000000E+00  0.00000000E+00
Nuclear GFac                               R   N=          20
  0.00000000E+00  0.00000000E+00  0.00000000E+00  0.00000000E+00  0.00000000E+00
  0.00000000E+00  0.00000000E+00  0.00000000E+00  0.00000000E+00  0.00000000E+00
  2.79284600E+00  2.79284600E+00  2.79284600E+00  2.79284600E+00  2.79284600E+00
  2.79284600E+00  2.79284600E+00  2.79284600E+00  2.79284600E+00  2.79284600E+00
MicOpt                                     I   N=          20
          -1          -1          -1          -1          -1          -1
          -1          -1          -1          -1          -1          -1
          -1          -1          -1          -1          -1          -1
          -1          -1
Number of contracted shells                I               60
Number of primitive shells                 I              150
Pure/Cartesian d shells                    I                1
Pure/Cartesian f shells                    I                0
Highest angular momentum                   I                2
Largest degree of contraction              I                6
Shell types                                I   N=          60
           0          -1          -1           2           0          -1
          -1           2           0          -1          -1           2
           0          -1          -1           2           0          -1
          -1           2           0          -1          -1           2
           0          -1          -1           2           0          -1
          -1           2           0          -1          -1           2
           0          -1          -1           2           0           0
           0           0           0           0           0           0
           0           0           0           0           0           0
           0           0           0           0           0           0
Number of primitives per shell             I   N=          60
           6           3           1           1           6           3
           1           1           6           3           1           1
           6           3           1           1           6           3
           1           1           6           3           1           1
           6           3           1           1           6           3
           1           1           6           3           1           1
           6           3           1           1           3           1
           3           1           3           1           3           1
           3           1           3           1           3           1
           3           1           3           1           3           1
Shell to atom map                          I   N=          60
           1           1           1           1           2           2
           2           2           3           3           3           3
           4           4           4           4           5           5
           5           5           6           6           6           6
           7           7           7           7           8           8
           8           8           9           9           9           9
          10          10          10          10          11          11
          12          12          13          13          14          14
          15          15          16          16          17          17
          18          18          19          19          20          20
Primitive exponents                        R   N=         150
  5.48467166E+03  8.25234946E+02  1.88046958E+02  5.29645000E+01  1.68975704E+01
  5.79963534E+00  1.55396162E+01  3.59993359E+00  1.01376175E+00  2.70005823E-01
  8.00000000E-01  5.48467166E+03  8.25234946E+02  1.88046958E+02  5.29645000E+01
  1.68975704E+01  5.79963534E+00  1.55396162E+01  3.59993359E+00  1.01376175E+00
  2.70005823E-01  8.00000000E-01  5.48467166E+03  8.25234946E+02  1.88046958E+02
  5.29645000E+01  1.68975704E+01  5.79963534E+00  1.55396162E+01  3.59993359E+00
  1.01376175E+00  2.70005823E-01  8.00000000E-01  5.48467166E+03  8.25234946E+02
  1.88046958E+02  5.29645000E+01  1.68975704E+01  5.79963534E+00  1.55396162E+01
  3.59993359E+00  1.01376175E+00  2.70005823E-01  8.00000000E-01  3.04752488E+03
  4.57369518E+02  1.03948685E+02  2.92101553E+01  9.28666296E+00  3.16392696E+00
  7.86827235E+00  1.88128854E+00  5.44249258E-01  1.68714478E-01  8.00000000E-01
  3.04752488E+03  4.57369518E+02  1.03948685E+02  2.92101553E+01  9.28666296E+00
  3.16392696E+00  7.86827235E+00  1.88128854E+00  5.44249258E-01  1.68714478E-01
  8.00000000E-01  3.04752488E+03  4.57369518E+02  1.03948685E+02  2.92101553E+01
  9.28666296E+00  3.16392696E+00  7.86827235E+00  1.88128854E+00  5.44249258E-01
  1.68714478E-01  8.00000000E-01  3.04752488E+03  4.57369518E+02  1.03948685E+02
  2.92101553E+01  9.28666296E+00  3.16392696E+00  7.86827235E+00  1.88128854E+00
  5.44249258E-01  1.68714478E-01  8.00000000E-01  3.04752488E+03  4.57369518E+02
  1.03948685E+02  2.92101553E+01  9.28666296E+00  3.16392696E+00  7.86827235E+00
  1.88128854E+00  5.44249258E-01  1.68714478E-01  8.00000000E-01  3.04752488E+03
  4.57369518E+02  1.03948685E+02  2.92101553E+01  9.28666296E+00  3.16392696E+00
  7.86827235E+00  1.88128854E+00  5.44249258E-01  1.68714478E-01  8.00000000E-01
  1.87311370E+01  2.82539436E+00  6.40121692E-01  1.61277759E-01  1.87311370E+01
  2.82539436E+00  6.40121692E-01  1.61277759E-01  1.87311370E+01  2.82539436E+00
  6.40121692E-01  1.61277759E-01  1.87311370E+01  2.82539436E+00  6.40121692E-01
  1.61277759E-01  1.87311370E+01  2.82539436E+00  6.40121692E-01  1.61277759E-01
  1.87311370E+01  2.82539436E+00  6.40121692E-01  1.61277759E-01  1.87311370E+01
  2.82539436E+00  6.40121692E-01  1.61277759E-01  1.87311370E+01  2.82539436E+00
  6.40121692E-01  1.61277759E-01  1.87311370E+01  2.82539436E+00  6.40121692E-01
  1.61277759E-01  1.87311370E+01  2.82539436E+00  6.40121692E-01  1.61277759E-01
Contraction coefficients                   R   N=         150
  1.83107443E-03  1.39501722E-02  6.84450781E-02  2.32714336E-01  4.70192898E-01
  3.58520853E-01 -1.10777550E-01 -1.48026263E-01  1.13076702E+00  1.00000000E+00
  1.00000000E+00  1.83107443E-03  1.39501722E-02  6.84450781E-02  2.32714336E-01
  4.70192898E-01  3.58520853E-01 -1.10777550E-01 -1.48026263E-01  1.13076702E+00
  1.00000000E+00  1.00000000E+00  1.83107443E-03  1.39501722E-02  6.84450781E-02
  2.32714336E-01  4.70192898E-01  3.58520853E-01 -1.10777550E-01 -1.48026263E-01
  1.13076702E+00  1.00000000E+00  1.00000000E+00  1.83107443E-03  1.39501722E-02
  6.84450781E-02  2.32714336E-01  4.70192898E-01  3.58520853E-01 -1.10777550E-01
 -1.48026263E-01  1.13076702E+00  1.00000000E+00  1.00000000E+00  1.83473713E-03
  1.40373228E-02  6.88426223E-02  2.32184443E-01  4.67941348E-01  3.62311985E-01
 -1.19332420E-01 -1.60854152E-01  1.14345644E+00  1.00000000E+00  1.00000000E+00
  1.83473713E-03  1.40373228E-02  6.88426223E-02  2.32184443E-01  4.67941348E-01
  3.62311985E-01 -1.19332420E-01 -1.60854152E-01  1.14345644E+00  1.00000000E+00
  1.00000000E+00  1.83473713E-03  1.40373228E-02  6.88426223E-02  2.32184443E-01
  4.67941348E-01  3.62311985E-01 -1.19332420E-01 -1.60854152E-01  1.14345644E+00
  1.00000000E+00  1.00000000E+00  1.83473713E-03  1.40373228E-02  6.88426223E-02
  2.32184443E-01  4.67941348E-01  3.62311985E-01 -1.19332420E-01 -1.60854152E-01
  1.14345644E+00  1.00000000E+00  1.00000000E+00  1.83473713E-03  1.40373228E-02
  6.88426223E-02  2.32184443E-01  4.67941348E-01  3.62311985E-01 -1.19332420E-01
 -1.60854152E-01  1.14345644E+00  1.00000000E+00  1.00000000E+00  1.83473713E-03
  1.40373228E-02  6.88426223E-02  2.32184443E-01  4.67941348E-01  3.62311985E-01
 -1.19332420E-01 -1.60854152E-01  1.14345644E+00  1.00000000E+00  1.00000000E+00
  3.34946043E-02  2.34726953E-01  8.13757326E-01  1.00000000E+00  3.34946043E-02
  2.34726953E-01  8.13757326E-01  1.00000000E+00  3.34946043E-02  2.34726953E-01
  8.13757326E-01  1.00000000E+00  3.34946043E-02  2.34726953E-01  8.13757326E-01
  1.00000000E+00  3.34946043E-02  2.34726953E-01  8.13757326E-01  1.00000000E+00
  3.34946043E-02  2.34726953E-01  8.13757326E-01  1.00000000E+00  3.34946043E-02
  2.34726953E-01  8.13757326E-01  1.00000000E+00  3.34946043E-02  2.34726953E-01
  8.13757326E-01  1.00000000E+00  3.34946043E-02  2.34726953E-01  8.13757326E-01
  1.00000000E+00  3.34946043E-02  2.34726953E-01  8.13757326E-01  1.00000000E+00
P(S=P) Contraction coefficients            R   N=         150
  0.00000000E+00  0.00000000E+00  0.00000000E+00  0.00000000E+00  0.00000000E+00
  0.00000000E+00  7.08742682E-02  3.39752839E-01  7.27158577E-01  1.00000000E+00
  0.00000000E+00  0.00000000E+00  0.00000000E+00  0.00000000E+00  0.00000000E+00
  0.00000000E+00  0.00000000E+00  7.08742682E-02  3.39752839E-01  7.27158577E-01
  1.00000000E+00  0.00000000E+00  0.00000000E+00  0.00000000E+00  0.00000000E+00
  0.00000000E+00  0.00000000E+00  0.00000000E+00  7.08742682E-02  3.39752839E-01
  7.27158577E-01  1.00000000E+00  0.00000000E+00  0.00000000E+00  0.00000000E+00
  0.00000000E+00  0.00000000E+00  0.00000000E+00  0.00000000E+00  7.08742682E-02
  3.39752839E-01  7.27158577E-01  1.00000000E+00  0.00000000E+00  0.00000000E+00
  0.00000000E+00  0.00000000E+00  0.00000000E+00  0.00000000E+00  0.00000000E+00
  6.89990666E-02  3.16423961E-01  7.44308291E-01  1.00000000E+00  0.00000000E+00
  0.00000000E+00  0.00000000E+00  0.00000000E+00  0.00000000E+00  0.00000000E+00
  0.00000000E+00  6.89990666E-02  3.16423961E-01  7.44308291E-01  1.00000000E+00
  0.00000000E+00  0.00000000E+00  0.00000000E+00  0.00000000E+00  0.00000000E+00
  0.00000000E+00  0.00000000E+00  6.89990666E-02  3.16423961E-01  7.44308291E-01
  1.00000000E+00  0.00000000E+00  0.00000000E+00  0.00000000E+00  0.00000000E+00
  0.00000000E+00  0.00000000E+00  0.00000000E+00  6.89990666E-02  3.16423961E-01
  7.44308291E-01  1.00000000E+00  0.00000000E+00  0.00000000E+00  0.00000000E+00
  0.00000000E+00  0.00000000E+00  0.00000000E+00  0.00000000E+00  6.89990666E-02
  3.16423961E-01  7.44308291E-01  1.00000000E+00  0.00000000E+00  0.00000000E+00
  0.00000000E+00  0.00000000E+00  0.00000000E+00  0.00000000E+00  0.00000000E+00
  6.89990666E-02  3.16423961E-01  7.44308291E-01  1.00000000E+00  0.00000000E+00
  0.00000000E+00  0.00000000E+00  0.00000000E+00  0.00000000E+00  0.00000000E+00
  0.00000000E+00  0.00000000E+00  0.00000000E+00  0.00000000E+00  0.00000000E+00
  0.00000000E+00  0.00000000E+00  0.00000000E+00  0.00000000E+00  0.00000000E+00
  0.00000000E+00  0.00000000E+00  0.00000000E+00  0.00000000E+00  0.00000000E+00
  0.00000000E+00  0.00000000E+00  0.00000000E+00  0.00000000E+00  0.00000000E+00
  0.00000000E+00  0.00000000E+00  0.00000000E+00  0.00000000E+00  0.00000000E+00
  0.00000000E+00  0.00000000E+00  0.00000000E+00  0.00000000E+00  0.00000000E+00
  0.00000000E+00  0.00000000E+00  0.00000000E+00  0.00000000E+00  0.00000000E+00
Coordinates of each shell                  R   N=         180
  3.27155319E+00 -5.23404021E-01  1.10671394E-04  3.27155319E+00 -5.23404021E-01
  1.10671394E-04  3.27155319E+00 -5.23404021E-01  1.10671394E-04  3.27155319E+00
 -5.23404021E-01  1.10671394E-04 -3.27155352E+00  5.23401829E-01  4.16833533E-05
 -3.27155352E+00  5.23401829E-01  4.16833533E-05 -3.27155352E+00  5.23401829E-01
  4.16833533E-05 -3.27155352E+00  5.23401829E-01  4.16833533E-05  1.05384766E+00
  3.17219378E+00 -3.15255999E-04  1.05384766E+00  3.17219378E+00 -3.15255999E-04
  1.05384766E+00  3.17219378E+00 -3.15255999E-04  1.05384766E+00  3.17219378E+00
 -3.15255999E-04 -1.05384234E+00 -3.17219304E+00 -6.13013317E-04 -1.05384234E+00
 -3.17219304E+00 -6.13013317E-04 -1.05384234E+00 -3.17219304E+00 -6.13013317E-04
 -1.05384234E+00 -3.17219304E+00 -6.13013317E-04  5.59011031E+00  9.47124061E-01
  1.91594995E-04  5.59011031E+00  9.47124061E-01  1.91594995E-04  5.59011031E+00
  9.47124061E-01  1.91594995E-04  5.59011031E+00  9.47124061E-01  1.91594995E-04
 -5.59011443E+00 -9.47124483E-01 -6.90999749E-05 -5.59011443E+00 -9.47124483E-01
 -6.90999749E-05 -5.59011443E+00 -9.47124483E-01 -6.90999749E-05 -5.59011443E+00
 -9.47124483E-01 -6.90999749E-05  7.74061895E+00 -9.29915714E-01  5.00613807E-04
  7.74061895E+00 -9.29915714E-01  5.00613807E-04  7.74061895E+00 -9.29915714E-01
  5.00613807E-04  7.74061895E+00 -9.29915714E-01  5.00613807E-04 -7.74062133E+00
  9.29916908E-01  3.60450021E-04 -7.74062133E+00  9.29916908E-01  3.60450021E-04
 -7.74062133E+00  9.29916908E-01  3.60450021E-04 -7.74062133E+00  9.29916908E-01
  3.60450021E-04  1.15672066E+00  8.71650327E-01 -1.43907367E-04  1.15672066E+00
  8.71650327E-01 -1.43907367E-04  1.15672066E+00  8.71650327E-01 -1.43907367E-04
  1.15672066E+00  8.71650327E-01 -1.43907367E-04 -1.15671851E+00 -8.71650190E-01
 -2.72562820E-04 -1.15671851E+00 -8.71650190E-01 -2.72562820E-04 -1.15671851E+00
 -8.71650190E-01 -2.72562820E-04 -1.15671851E+00 -8.71650190E-01 -2.72562820E-04
  5.59819589E+00  2.16202038E+00 -1.67091151E+00  5.59819589E+00  2.16202038E+00
 -1.67091151E+00  5.59792683E+00  2.16226436E+00  1.67111887E+00  5.59792683E+00
  2.16226436E+00  1.67111887E+00 -5.59815854E+00 -2.16186551E+00 -1.67128532E+00
 -5.59815854E+00 -2.16186551E+00 -1.67128532E+00 -5.59797197E+00 -2.16241911E+00
  1.67074548E+00 -5.59797197E+00 -2.16241911E+00  1.67074548E+00  9.54554995E+00
  7.65686186E-02  5.68495256E-04  9.54554995E+00  7.65686186E-02  5.68495256E-04
  7.65414272E+00 -2.13016903E+00  1.67627394E+00  7.65414272E+00 -2.13016903E+00
  1.67627394E+00  7.65440614E+00 -2.13041763E+00 -1.67510801E+00  7.65440614E+00
 -2.13041763E+00 -1.67510801E+00 -9.54555375E+00 -7.65648487E-02  2.91067493E-04
 -9.54555375E+00 -7.65648487E-02  2.91067493E-04 -7.65418485E+00  2.13001525E+00
  1.67624666E+00 -7.65418485E+00  2.13001525E+00  1.67624666E+00 -7.65436622E+00
  2.13057375E+00 -1.67513488E+00 -7.65436622E+00  2.13057375E+00 -1.67513488E+00
Constraint Structure                       R   N=          60
  3.27155319E+00 -5.23404021E-01  1.10671394E-04 -3.27155352E+00  5.23401829E-01
  4.16833533E-05  1.05384766E+00  3.17219378E+00 -3.15255999E-04 -1.05384234E+00
 -3.17219304E+00 -6.13013317E-04  5.59011031E+00  9.47124061E-01  1.91594995E-04
 -5.59011443E+00 -9.47124483E-01 -6.90999749E-05  7.74061895E+00 -9.29915714E-01
  5.00613807E-04 -7.74062133E+00  9.29916908E-01  3.60450021E-04  1.15672066E+00
  8.71650327E-01 -1.43907367E-04 -1.15671851E+00 -8.71650190E-01 -2.72562820E-04
  5.59819589E+00  2.16202038E+00 -1.67091151E+00  5.59792683E+00  2.16226436E+00
  1.67111887E+00 -5.59815854E+00 -2.16186551E+00 -1.67128532E+00 -5.59797197E+00
 -2.16241911E+00  1.67074548E+00  9.54554995E+00  7.65686186E-02  5.68495256E-04
  7.65414272E+00 -2.13016903E+00  1.67627394E+00  7.65440614E+00 -2.13041763E+00
 -1.67510801E+00 -9.54555375E+00 -7.65648487E-02  2.91067493E-04 -7.65418485E+00
  2.13001525E+00  1.67624666E+00 -7.65436622E+00  2.13057375E+00 -1.67513488E+00
Num ILSW                                   I              100
ILSW                                       I   N=         100
           0           1           0           1           2           0
           0           0           0           0           0          -1
           0           0           0           0           0           0
           0           0           0           0           1           0
           1           0           0           0           0           0
           0           0      100000           0          -1           0
           0           0           0           0           0           0
           0           0           0           1           1           0
           0           0           1           0           0           0
           0           0           4          40           0           0
           0           0           0           0           0           0
           0           0           0           0           0           0
           0           0           0           0           0           0
           0           0           0           0           0           0
           0           0           0           0           0           0
           0           0           0           0           0           0
           0           0           0           0
Num RLSW                                   I               40
RLSW                                       R   N=          40
  1.00000000E+00  1.00000000E+00  1.00000000E+00  1.00000000E+00  1.00000000E+00
  0.00000000E+00  0.00000000E+00  1.00000000E+00  0.00000000E+00  0.00000000E+00
  0.00000000E+00  0.00000000E+00  1.00000000E+00  0.00000000E+00  0.00000000E+00
  0.00000000E+00  0.00000000E+00  1.00000000E+00  0.00000000E+00  0.00000000E+00
  0.00000000E+00  0.00000000E+00  1.00000000E+00  0.00000000E+00  0.00000000E+00
  0.00000000E+00  0.00000000E+00  1.00000000E+00  0.00000000E+00  0.00000000E+00
  0.00000000E+00  0.00000000E+00  0.00000000E+00  0.00000000E+00  0.00000000E+00
  0.00000000E+00  0.00000000E+00  0.00000000E+00  1.00000000E+00  1.00000000E+00
MxBond                                     I                4
NBond                                      I   N=          20
           2           2           1           1           4           4
           4           4           3           3           1           1
           1           1           1           1           1           1
           1           1
IBond                                      I   N=          80
           5           9           0           0           6          10
           0           0           9           0           0           0
          10           0           0           0           1           7
          11          12           2           8          13          14
           5          15          16          17           6          18
          19          20           1           3          10           0
           2           4           9           0           5           0
           0           0           5           0           0           0
           6           0           0           0           6           0
           0           0           7           0           0           0
           7           0           0           0           7           0
           0           0           8           0           0           0
           8           0           0           0           8           0
           0           0
RBond                                      R   N=          80
  1.00000000E+00  1.50000000E+00  0.00000000E+00  0.00000000E+00  1.00000000E+00
  1.50000000E+00  0.00000000E+00  0.00000000E+00  2.00000000E+00  0.00000000E+00
  0.00000000E+00  0.00000000E+00  2.00000000E+00  0.00000000E+00  0.00000000E+00
  0.00000000E+00  1.00000000E+00  1.00000000E+00  1.00000000E+00  1.00000000E+00
  1.00000000E+00  1.00000000E+00  1.00000000E+00  1.00000000E+00  1.00000000E+00
  1.00000000E+00  1.00000000E+00  1.00000000E+00  1.00000000E+00  1.00000000E+00
  1.00000000E+00  1.00000000E+00  1.50000000E+00  2.00000000E+00  1.00000000E+00
  0.00000000E+00  1.50000000E+00  2.00000000E+00  1.00000000E+00  0.00000000E+00
  1.00000000E+00  0.00000000E+00  0.00000000E+00  0.00000000E+00  1.00000000E+00
  0.00000000E+00  0.00000000E+00  0.00000000E+00  1.00000000E+00  0.00000000E+00
  0.00000000E+00  0.00000000E+00  1.00000000E+00  0.00000000E+00  0.00000000E+00
  0.00000000E+00  1.00000000E+00  0.00000000E+00  0.00000000E+00  0.00000000E+00
  1.00000000E+00  0.00000000E+00  0.00000000E+00  0.00000000E+00  1.00000000E+00
  0.00000000E+00  0.00000000E+00  0.00000000E+00  1.00000000E+00  0.00000000E+00
  0.00000000E+00  0.00000000E+00  1.00000000E+00  0.00000000E+00  0.00000000E+00
  0.00000000E+00  1.00000000E+00  0.00000000E+00  0.00000000E+00  0.00000000E+00
Virial Ratio                               R      2.002959006836622E+00
SCF Energy                                 R     -5.324933353853577E+02
MP2 Energy                                 R     -5.339758053160936E+02
Total Energy                               R     -5.339758053160936E+02
Post-SCF wavefunction norm                 R      1.706744902272925E+00
RMS Force                                  R      5.150829743650784E-06
RMS Density                                R      9.962154541919360E-10
External E-field                           R   N=          35
  0.00000000E+00  0.00000000E+00  0.00000000E+00  0.00000000E+00  0.00000000E+00
  0.00000000E+00  0.00000000E+00  0.00000000E+00  0.00000000E+00  0.00000000E+00
  0.00000000E+00  0.00000000E+00  0.00000000E+00  0.00000000E+00  0.00000000E+00
  0.00000000E+00  0.00000000E+00  0.00000000E+00  0.00000000E+00  0.00000000E+00
  0.00000000E+00  0.00000000E+00  0.00000000E+00  0.00000000E+00  0.00000000E+00
  0.00000000E+00  0.00000000E+00  0.00000000E+00  0.00000000E+00  0.00000000E+00
  0.00000000E+00  0.00000000E+00  0.00000000E+00  0.00000000E+00  0.00000000E+00
IOpCl                                      I                0
IROHF                                      I                0
Alpha Orbital Energies                     R   N=         170
 -2.06246212E+01 -2.06246198E+01 -2.05795972E+01 -2.05795957E+01 -1.14102295E+01
 -1.14096831E+01 -1.13001882E+01 -1.13001870E+01 -1.12304789E+01 -1.12304788E+01
 -1.48581083E+00 -1.45763616E+00 -1.38023604E+00 -1.36450462E+00 -1.06154726E+00
 -1.04795440E+00 -9.44470201E-01 -8.74887788E-01 -8.30199902E-01 -7.84676855E-01
 -7.41802595E-01 -6.99788478E-01 -6.98533891E-01 -6.82240190E-01 -6.75602652E-01
 -6.08367959E-01 -6.08044412E-01 -5.76088996E-01 -5.74036414E-01 -5.59803769E-01
 -5.46580979E-01 -5.22927893E-01 -5.21879965E-01 -5.21555819E-01 -5.14615907E-01
 -5.08986458E-01 -4.70453780E-01 -4.62217708E-01 -4.42168253E-01  9.20698060E-02
  2.36519617E-01  2.36990209E-01  2.70290736E-01  2.81476173E-01  2.86957865E-01
  2.96191846E-01  2.96357473E-01  3.03432513E-01  3.06706479E-01  3.21839435E-01
  3.38308537E-01  3.40365093E-01  3.46700362E-01  4.00612288E-01  4.06245818E-01
  4.31667457E-01  4.45791821E-01  4.97974899E-01  5.53913477E-01  6.30562167E-01
  7.15603393E-01  7.23811530E-01  7.26886964E-01  7.33971808E-01  7.36779729E-01
  7.53798339E-01  7.54786144E-01  7.92611990E-01  8.00849999E-01  8.23934541E-01
  8.50025037E-01  8.71965882E-01  9.02248958E-01  9.17225612E-01  9.30184502E-01
  9.57482336E-01  9.64942108E-01  9.72281442E-01  1.03338921E+00  1.07499909E+00
  1.10026227E+00  1.10057235E+00  1.10797115E+00  1.13971866E+00  1.14936107E+00
  1.15488962E+00  1.17096671E+00  1.17720862E+00  1.18446195E+00  1.19278731E+00
  1.22250968E+00  1.22280998E+00  1.22293546E+00  1.23668983E+00  1.27202299E+00
  1.29731410E+00  1.29813178E+00  1.37557289E+00  1.40026545E+00  1.40751604E+00
  1.44560427E+00  1.46413339E+00  1.55178171E+00  1.55870485E+00  1.61329115E+00
  1.62027801E+00  1.65070883E+00  1.67997019E+00  1.72518328E+00  1.72910242E+00
  1.76485863E+00  1.81999043E+00  1.85277979E+00  1.90240356E+00  1.93526140E+00
  1.94172500E+00  2.00274880E+00  2.06444431E+00  2.06637858E+00  2.11070121E+00
  2.11417253E+00  2.11643424E+00  2.17813117E+00  2.18718914E+00  2.19136912E+00
  2.23122381E+00  2.24488885E+00  2.26749816E+00  2.28082471E+00  2.31842749E+00
  2.34032965E+00  2.38885600E+00  2.42508165E+00  2.44175137E+00  2.45081352E+00
  2.45241123E+00  2.49898260E+00  2.53771362E+00  2.57973070E+00  2.61286270E+00
  2.65020678E+00  2.65185126E+00  2.65272292E+00  2.70207501E+00  2.73859624E+00
  2.77084149E+00  2.79667991E+00  2.92985433E+00  2.94956587E+00  2.96151478E+00
  2.97634232E+00  3.05392648E+00  3.09383176E+00  3.11944861E+00  3.25184104E+00
  3.26346799E+00  3.30904853E+00  3.34469601E+00  3.57126478E+00  3.64429069E+00
  4.30643265E+00  4.47284985E+00  4.48549559E+00  4.51180091E+00  4.60106864E+00
  4.63949955E+00  4.82787567E+00  4.85710688E+00  5.01766620E+00  5.21921989E+00
Alpha MO coefficients                      R   N=       28900
  7.50499323E-01  1.61092912E-02 -1.40124891E-04  9.69007223E-04 -7.13354689E-08
  2.25506021E-03  1.12248565E-04 -6.68475411E-04  6.43970731E-08 -3.10728225E-03
 -2.99687844E-03 -2.91259612E-03 -3.84138771E-05 -1.58003859E-08  6.04238282E-09