
    -----------------------------------------------------------------------
          Psi4: An Open-Source Ab Initio Electronic Structure Package
                               Psi4 1.3.2 release

                         Git: Rev {HEAD} ecbda83 


    R. M. Parrish, L. A. Burns, D. G. A. Smith, A. C. Simmonett,
    A. E. DePrince III, E. G. Hohenstein, U. Bozkaya, A. Yu. Sokolov,
    R. Di Remigio, R. M. Richard, J. F. Gonthier, A. M. James,
    H. R. McAlexander, A. Kumar, M. Saitow, X. Wang, B. P. Pritchard,
    P. Verma, H. F. Schaefer III, K. Patkowski, R. A. King, E. F. Valeev,
    F. A. Evangelista, J. M. Turney, T. D. Crawford, and C. D. Sherrill,
    J. Chem. Theory Comput. 13(7) pp 3185--3197 (2017).
    (doi: 10.1021/acs.jctc.7b00174)


                         Additional Contributions by
    P. Kraus, H. Kruse, M. H. Lechner, M. C. Schieber, R. A. Shaw,
    A. Alenaizan, R. Galvelis, Z. L. Glick, S. Lehtola, and J. P. Misiewicz

    -----------------------------------------------------------------------


    Psi4 started on: Tuesday, 03 November 2020 04:28AM

    Process ID: 80823
    Host:       node58.bme.utexas.edu
    PSIDATADIR: /home/xy3866/psi4conda/share/psi4
    Memory:     500.0 MiB
    Threads:    8
    
  ==> Input File <==

--------------------------------------------------------------------------
#psi4
#
memory 32 gb

molecule  {
0 1
  O       -0.8946000     0.3180840    -0.2486650
  O        0.2608140    -1.4535000     0.5764690
  C        1.4621750     0.4213130    -0.3980820
  C        1.8595570     1.4067346     0.7060933
  C        2.6165010    -0.5169580    -0.7250520
  C        0.2465296    -0.3923961    -0.0247539
  C       -2.1092640    -0.3317960     0.1925940
  C       -3.2536250     0.5656790    -0.2140850
  H        1.1864410     1.0054960    -1.2820320
  H        2.6888660     1.9907190     0.4595330
  H        2.0609350     0.8310830     1.6444090
  H        0.9859800     2.0639750     0.9510040
  H        3.4951390     0.0579210    -1.0318300
  H        2.3532220    -1.2022810    -1.5348280
  H        2.8748910    -1.1153660     0.1513080
  H       -2.1714740    -1.3192040    -0.2711440
  H       -2.0606790    -0.4764550     1.2759150
  H       -4.2047000     0.1215880     0.0924120
  H       -3.1592540     1.5451910     0.2586100
  H       -3.2661300     0.7008150    -1.2970470
units angstrom
no_reorient  #important for SAPT in psi4, default
symmetry c1  #important for SAPT in psi4, default
}

set PROPERTIES_ORIGIN ["COM"]
properties('MP2/aug-cc-pvtz', properties = ['dipole'])
--------------------------------------------------------------------------

  Memory set to  29.802 GiB by Python driver.
    SCF Algorithm Type (re)set to DF.

*** tstart() called on node58.bme.utexas.edu
*** at Tue Nov  3 04:28:53 2020

   => Loading Basis Set <=

    Name: AUG-CC-PVTZ
    Role: ORBITAL
    Keyword: BASIS
    atoms 1-2  entry O          line   327 file /home/xy3866/psi4conda/share/psi4/basis/aug-cc-pvtz.gbs 
    atoms 3-8  entry C          line   235 file /home/xy3866/psi4conda/share/psi4/basis/aug-cc-pvtz.gbs 
    atoms 9-20 entry H          line    36 file /home/xy3866/psi4conda/share/psi4/basis/aug-cc-pvtz.gbs 


         ---------------------------------------------------------
                                   SCF
               by Justin Turney, Rob Parrish, Andy Simmonett
                          and Daniel G. A. Smith
                              RHF Reference
                        8 Threads,  30517 MiB Core
         ---------------------------------------------------------

  ==> Geometry <==

    Molecular point group: c1
    Full point group: C1

    Geometry (in Angstrom), charge = 0, multiplicity = 1:

       Center              X                  Y                   Z               Mass       
    ------------   -----------------  -----------------  -----------------  -----------------
         O           -0.899032112057     0.318890224919    -0.240873317186    15.994914619570
         O            0.256381887943    -1.452693775081     0.584260682814    15.994914619570
         C            1.457742887943     0.422119224919    -0.390290317186    12.000000000000
         C            1.855124887943     1.407540824919     0.713884982814    12.000000000000
         C            2.612068887943    -0.516151775081    -0.717260317186    12.000000000000
         C            0.242097487943    -0.391589875081    -0.016962217186    12.000000000000
         C           -2.113696112057    -0.330989775081     0.200385682814    12.000000000000
         C           -3.258057112057     0.566485224919    -0.206293317186    12.000000000000
         H            1.182008887943     1.006302224919    -1.274240317186     1.007825032230
         H            2.684433887943     1.991525224919     0.467324682814     1.007825032230
         H            2.056502887943     0.831889224919     1.652200682814     1.007825032230
         H            0.981547887943     2.064781224919     0.958795682814     1.007825032230
         H            3.490706887943     0.058727224919    -1.024038317186     1.007825032230
         H            2.348789887943    -1.201474775081    -1.527036317186     1.007825032230
         H            2.870458887943    -1.114559775081     0.159099682814     1.007825032230
         H           -2.175906112057    -1.318397775081    -0.263352317186     1.007825032230
         H           -2.065111112057    -0.475648775081     1.283706682814     1.007825032230
         H           -4.209132112057     0.122394224919     0.100203682814     1.007825032230
         H           -3.163686112057     1.545997224919     0.266401682814     1.007825032230
         H           -3.270562112057     0.701621224919    -1.289255317186     1.007825032230

  Running in c1 symmetry.

  Rotational constants: A =      0.13710  B =      0.03617  C =      0.03233 [cm^-1]
  Rotational constants: A =   4110.26834  B =   1084.22294  C =    969.18703 [MHz]
  Nuclear repulsion =  395.375942207914932

  Charge       = 0
  Multiplicity = 1
  Electrons    = 64
  Nalpha       = 32
  Nbeta        = 32

  ==> Algorithm <==

  SCF Algorithm Type is DF.
  DIIS enabled.
  MOM disabled.
  Fractional occupation disabled.
  Guess Type is SAD.
  Energy threshold   = 1.00e-10
  Density threshold  = 1.00e-10
  Integral threshold = 0.00e+00

  ==> Primary Basis <==

  Basis Set: AUG-CC-PVTZ
    Blend: AUG-CC-PVTZ
    Number of shells: 220
    Number of basis function: 644
    Number of Cartesian functions: 740
    Spherical Harmonics?: true
    Max angular momentum: 3

   => Loading Basis Set <=

    Name: (AUG-CC-PVTZ AUX)
    Role: JKFIT
    Keyword: DF_BASIS_SCF
    atoms 1-2  entry O          line   286 file /home/xy3866/psi4conda/share/psi4/basis/aug-cc-pvtz-jkfit.gbs 
    atoms 3-8  entry C          line   162 file /home/xy3866/psi4conda/share/psi4/basis/aug-cc-pvtz-jkfit.gbs 
    atoms 9-20 entry H          line    70 file /home/xy3866/psi4conda/share/psi4/basis/aug-cc-pvtz-jkfit.gbs 

  ==> Pre-Iterations <==

   -------------------------------------------------------
    Irrep   Nso     Nmo     Nalpha   Nbeta   Ndocc  Nsocc
   -------------------------------------------------------
     A        644     644       0       0       0       0
   -------------------------------------------------------
    Total     644     644      32      32      32       0
   -------------------------------------------------------

  ==> Integral Setup <==

  DFHelper Memory: AOs need 4.113 GiB; user supplied 22.352 GiB. Using in-core AOs.

  ==> MemDFJK: Density-Fitted J/K Matrices <==

    J tasked:                   Yes
    K tasked:                   Yes
    wK tasked:                   No
    OpenMP threads:               8
    Memory [MiB]:             22888
    Algorithm:                 Disk
    Schwarz Cutoff:           1E-12
    Mask sparsity (%):       6.6838
    Fitting Condition:        1E-10

   => Auxiliary Basis Set <=

  Basis Set: (AUG-CC-PVTZ AUX)
    Blend: AUG-CC-PVTZ-JKFIT
    Number of shells: 408
    Number of basis function: 1384
    Number of Cartesian functions: 1708
    Spherical Harmonics?: true
    Max angular momentum: 4

  Minimum eigenvalue in the overlap matrix is 2.8615061628E-06.
  Using Symmetric Orthogonalization.

  SCF Guess: Superposition of Atomic Densities via on-the-fly atomic UHF.

  ==> Iterations <==

                           Total Energy        Delta E     RMS |[F,P]|

   @DF-RHF iter SAD:  -383.07852086957632   -3.83079e+02   0.00000e+00 
   @DF-RHF iter   1:  -383.76571811833270   -6.87197e-01   1.18198e-03 DIIS
   @DF-RHF iter   2:  -384.01067148646575   -2.44953e-01   6.30757e-04 DIIS
   @DF-RHF iter   3:  -384.07486437824451   -6.41929e-02   1.32933e-04 DIIS
   @DF-RHF iter   4:  -384.07929993477842   -4.43556e-03   6.27299e-05 DIIS
   @DF-RHF iter   5:  -384.08017480407858   -8.74869e-04   1.16643e-05 DIIS
   @DF-RHF iter   6:  -384.08022941831842   -5.46142e-05   5.25446e-06 DIIS
   @DF-RHF iter   7:  -384.08023994278750   -1.05245e-05   2.01911e-06 DIIS
   @DF-RHF iter   8:  -384.08024208738249   -2.14459e-06   9.15497e-07 DIIS
   @DF-RHF iter   9:  -384.08024256801292   -4.80630e-07   2.64508e-07 DIIS
   @DF-RHF iter  10:  -384.08024261107283   -4.30599e-08   6.39763e-08 DIIS
   @DF-RHF iter  11:  -384.08024261327438   -2.20155e-09   1.71857e-08 DIIS
   @DF-RHF iter  12:  -384.08024261339972   -1.25340e-10   4.76775e-09 DIIS
   @DF-RHF iter  13:  -384.08024261341103   -1.13118e-11   1.66150e-09 DIIS
   @DF-RHF iter  14:  -384.08024261341154   -5.11591e-13   5.73806e-10 DIIS
   @DF-RHF iter  15:  -384.08024261341023    1.30740e-12   1.55901e-10 DIIS
   @DF-RHF iter  16:  -384.08024261341126   -1.02318e-12   5.42865e-11 DIIS
  Energy and wave function converged.


  ==> Post-Iterations <==

    Orbital Energies [Eh]
    ---------------------

    Doubly Occupied:                                                      

       1A    -20.598660     2A    -20.542669     3A    -11.375331  
       4A    -11.286120     5A    -11.246048     6A    -11.227963  
       7A    -11.223663     8A    -11.216601     9A     -1.448508  
      10A     -1.349544    11A     -1.093965    12A     -1.034104  
      13A     -0.938595    14A     -0.896273    15A     -0.828901  
      16A     -0.760794    17A     -0.698635    18A     -0.677415  
      19A     -0.660485    20A     -0.619629    21A     -0.591663  
      22A     -0.584059    23A     -0.558074    24A     -0.552989  
      25A     -0.542045    26A     -0.520102    27A     -0.510261  
      28A     -0.505051    29A     -0.483478    30A     -0.478228  
      31A     -0.454995    32A     -0.438904  

    Virtual:                                                              

      33A      0.028332    34A      0.031916    35A      0.036619  
      36A      0.040157    37A      0.048936    38A      0.050396  
      39A      0.051834    40A      0.060475    41A      0.066991  
      42A      0.068805    43A      0.074560    44A      0.076400  
      45A      0.101765    46A      0.104305    47A      0.116233  
      48A      0.119152    49A      0.123297    50A      0.125836  
      51A      0.126722    52A      0.130878    53A      0.135636  
      54A      0.141199    55A      0.143911    56A      0.145216  
      57A      0.146936    58A      0.153396    59A      0.158560  
      60A      0.168119    61A      0.170022    62A      0.175086  
      63A      0.180905    64A      0.185107    65A      0.198670  
      66A      0.203575    67A      0.210248    68A      0.222315  
      69A      0.225907    70A      0.235308    71A      0.237717  
      72A      0.240062    73A      0.248824    74A      0.257487  
      75A      0.261881    76A      0.273835    77A      0.283074  
      78A      0.286320    79A      0.290805    80A      0.291487  
      81A      0.298323    82A      0.303551    83A      0.313005  
      84A      0.314722    85A      0.326610    86A      0.330481  
      87A      0.333895    88A      0.335546    89A      0.341550  
      90A      0.345073    91A      0.347159    92A      0.354214  
      93A      0.362524    94A      0.365032    95A      0.368442  
      96A      0.371443    97A      0.374852    98A      0.376806  
      99A      0.388447   100A      0.391010   101A      0.393251  
     102A      0.399259   103A      0.402380   104A      0.417164  
     105A      0.419816   106A      0.424251   107A      0.425902  
     108A      0.429069   109A      0.433068   110A      0.437532  
     111A      0.444904   112A      0.445598   113A      0.450801  
     114A      0.454569   115A      0.455628   116A      0.458717  
     117A      0.464642   118A      0.468213   119A      0.473668  
     120A      0.474852   121A      0.478149   122A      0.481350  
     123A      0.487984   124A      0.491231   125A      0.499615  
     126A      0.506878   127A      0.510699   128A      0.514309  
     129A      0.519246   130A      0.525301   131A      0.528646  
     132A      0.537486   133A      0.543942   134A      0.546970  
     135A      0.548165   136A      0.556613   137A      0.558765  
     138A      0.562370   139A      0.571433   140A      0.579617  
     141A      0.589470   142A      0.593287   143A      0.597955  
     144A      0.600928   145A      0.615445   146A      0.619147  
     147A      0.627882   148A      0.634075   149A      0.645061  
     150A      0.646980   151A      0.649492   152A      0.657517  
     153A      0.664812   154A      0.670331   155A      0.676031  
     156A      0.686185   157A      0.688384   158A      0.703472  
     159A      0.724773   160A      0.745375   161A      0.752585  
     162A      0.759254   163A      0.770016   164A      0.789325  
     165A      0.793430   166A      0.797457   167A      0.810369  
     168A      0.817175   169A      0.823293   170A      0.824964  
     171A      0.830570   172A      0.840170   173A      0.844251  
     174A      0.845170   175A      0.849318   176A      0.855200  
     177A      0.862478   178A      0.869661   179A      0.879885  
     180A      0.884431   181A      0.887569   182A      0.889157  
     183A      0.903870   184A      0.906940   185A      0.913680  
     186A      0.915780   187A      0.923580   188A      0.923954  
     189A      0.931972   190A      0.935358   191A      0.936428  
     192A      0.944328   193A      0.949036   194A      0.953291  
     195A      0.958209   196A      0.964372   197A      0.975268  
     198A      0.980170   199A      0.983447   200A      0.991842  
     201A      1.005223   202A      1.009829   203A      1.012075  
     204A      1.015147   205A      1.021253   206A      1.031584  
     207A      1.035976   208A      1.048472   209A      1.052341  
     210A      1.058416   211A      1.063906   212A      1.067917  
     213A      1.076971   214A      1.085119   215A      1.093664  
     216A      1.106300   217A      1.107854   218A      1.108886  
     219A      1.118486   220A      1.126820   221A      1.131530  
     222A      1.143960   223A      1.146717   224A      1.148847  
     225A      1.154605   226A      1.165339   227A      1.169278  
     228A      1.178886   229A      1.183476   230A      1.189311  
     231A      1.198147   232A      1.201441   233A      1.212816  
     234A      1.215279   235A      1.222260   236A      1.231345  
     237A      1.232093   238A      1.247843   239A      1.253636  
     240A      1.263694   241A      1.264659   242A      1.270962  
     243A      1.277656   244A      1.282024   245A      1.287277  
     246A      1.293645   247A      1.307475   248A      1.321184  
     249A      1.335790   250A      1.338431   251A      1.355369  
     252A      1.365210   253A      1.370831   254A      1.376522  
     255A      1.384020   256A      1.386478   257A      1.389498  
     258A      1.408325   259A      1.418493   260A      1.422769  
     261A      1.433019   262A      1.443338   263A      1.448025  
     264A      1.462590   265A      1.470206   266A      1.486595  
     267A      1.498001   268A      1.508404   269A      1.516688  
     270A      1.518733   271A      1.525690   272A      1.531819  
     273A      1.538102   274A      1.552216   275A      1.563030  
     276A      1.573750   277A      1.580193   278A      1.598223  
     279A      1.603139   280A      1.604026   281A      1.621599  
     282A      1.628010   283A      1.640516   284A      1.646010  
     285A      1.659738   286A      1.664416   287A      1.670561  
     288A      1.671458   289A      1.681867   290A      1.686843  
     291A      1.690667   292A      1.701686   293A      1.704908  
     294A      1.707625   295A      1.713750   296A      1.722100  
     297A      1.725448   298A      1.728760   299A      1.735796  
     300A      1.737816   301A      1.751857   302A      1.755986  
     303A      1.768727   304A      1.773211   305A      1.774529  
     306A      1.786860   307A      1.799225   308A      1.819743  
     309A      1.822542   310A      1.832914   311A      1.837050  
     312A      1.843211   313A      1.855541   314A      1.858584  
     315A      1.867590   316A      1.884248   317A      1.886371  
     318A      1.903209   319A      1.908391   320A      1.921533  
     321A      1.925452   322A      1.928072   323A      1.948849  
     324A      1.955158   325A      1.962684   326A      1.974576  
     327A      1.980078   328A      1.983086   329A      1.992198  
     330A      1.997206   331A      2.015404   332A      2.021091  
     333A      2.038054   334A      2.062218   335A      2.072691  
     336A      2.079268   337A      2.087879   338A      2.097474  
     339A      2.102463   340A      2.117430   341A      2.121944  
     342A      2.141535   343A      2.147619   344A      2.170207  
     345A      2.190016   346A      2.194521   347A      2.208372  
     348A      2.216266   349A      2.233124   350A      2.242227  
     351A      2.254219   352A      2.255659   353A      2.264711  
     354A      2.272930   355A      2.279834   356A      2.291451  
     357A      2.301066   358A      2.308405   359A      2.319989  
     360A      2.333538   361A      2.340405   362A      2.359298  
     363A      2.368834   364A      2.386193   365A      2.404201  
     366A      2.410690   367A      2.424152   368A      2.461644  
     369A      2.478432   370A      2.481786   371A      2.494744  
     372A      2.512073   373A      2.518453   374A      2.542251  
     375A      2.564771   376A      2.584437   377A      2.617569  
     378A      2.627963   379A      2.658575   380A      2.668495  
     381A      2.669587   382A      2.694774   383A      2.707041  
     384A      2.741415   385A      2.754511   386A      2.769241  
     387A      2.788852   388A      2.801688   389A      2.849446  
     390A      2.860615   391A      2.897661   392A      2.933131  
     393A      2.952071   394A      2.982543   395A      2.987206  
     396A      3.015454   397A      3.021059   398A      3.059987  
     399A      3.098406   400A      3.101464   401A      3.134315  
     402A      3.155717   403A      3.201325   404A      3.232626  
     405A      3.258548   406A      3.272890   407A      3.327463  
     408A      3.348398   409A      3.355168   410A      3.398951  
     411A      3.418868   412A      3.430644   413A      3.433395  
     414A      3.449542   415A      3.455364   416A      3.475800  
     417A      3.485370   418A      3.498576   419A      3.512986  
     420A      3.541439   421A      3.547068   422A      3.569293  
     423A      3.594578   424A      3.612137   425A      3.615720  
     426A      3.641161   427A      3.649865   428A      3.663329  
     429A      3.669160   430A      3.675801   431A      3.698453  
     432A      3.704729   433A      3.707523   434A      3.713666  
     435A      3.724195   436A      3.731182   437A      3.740039  
     438A      3.743597   439A      3.770115   440A      3.775784  
     441A      3.799536   442A      3.801074   443A      3.810652  
     444A      3.823229   445A      3.826973   446A      3.837210  
     447A      3.856838   448A      3.863359   449A      3.875146  
     450A      3.889362   451A      3.894469   452A      3.909069  
     453A      3.916692   454A      3.924628   455A      3.935193  
     456A      3.941716   457A      3.949246   458A      3.963596  
     459A      3.981064   460A      3.987312   461A      3.988472  
     462A      4.000246   463A      4.011589   464A      4.022070  
     465A      4.037414   466A      4.040905   467A      4.071259  
     468A      4.077615   469A      4.091622   470A      4.099340  
     471A      4.118701   472A      4.148022   473A      4.155716  
     474A      4.167353   475A      4.172337   476A      4.194854  
     477A      4.197108   478A      4.209219   479A      4.217757  
     480A      4.223874   481A      4.235996   482A      4.240202  
     483A      4.251461   484A      4.269481   485A      4.280320  
     486A      4.293706   487A      4.310032   488A      4.317823  
     489A      4.329825   490A      4.352738   491A      4.376004  
     492A      4.388873   493A      4.398106   494A      4.411144  
     495A      4.423345   496A      4.449115   497A      4.453893  
     498A      4.468903   499A      4.484675   500A      4.499686  
     501A      4.516643   502A      4.523749   503A      4.546782  
     504A      4.548544   505A      4.583200   506A      4.598668  
     507A      4.608644   508A      4.623455   509A      4.634446  
     510A      4.658728   511A      4.671016   512A      4.687637  
     513A      4.696062   514A      4.718730   515A      4.722949  
     516A      4.740763   517A      4.778747   518A      4.790757  
     519A      4.818815   520A      4.829212   521A      4.846393  
     522A      4.849769   523A      4.856533   524A      4.869532  
     525A      4.879733   526A      4.883747   527A      4.899238  
     528A      4.916090   529A      4.929650   530A      4.948850  
     531A      4.974115   532A      4.985145   533A      5.006551  
     534A      5.015099   535A      5.042337   536A      5.047277  
     537A      5.072883   538A      5.082816   539A      5.104976  
     540A      5.128936   541A      5.140929   542A      5.152511  
     543A      5.163103   544A      5.174591   545A      5.190253  
     546A      5.200696   547A      5.209221   548A      5.231386  
     549A      5.251322   550A      5.252862   551A      5.259538  
     552A      5.280321   553A      5.286566   554A      5.322109  
     555A      5.336180   556A      5.345923   557A      5.367886  
     558A      5.397919   559A      5.409549   560A      5.425306  
     561A      5.438010   562A      5.445412   563A      5.448376  
     564A      5.461434   565A      5.480468   566A      5.499478  
     567A      5.535053   568A      5.563084   569A      5.571795  
     570A      5.589817   571A      5.610037   572A      5.620332  
     573A      5.637791   574A      5.646917   575A      5.718461  
     576A      5.751308   577A      5.755105   578A      5.779018  
     579A      5.796848   580A      5.801184   581A      5.813273  
     582A      5.818774   583A      5.881924   584A      5.920233  
     585A      5.935350   586A      5.972387   587A      6.005181  
     588A      6.020491   589A      6.038648   590A      6.060740  
     591A      6.121895   592A      6.135429   593A      6.165412  
     594A      6.185670   595A      6.230872   596A      6.232086  
     597A      6.249616   598A      6.270078   599A      6.316127  
     600A      6.347433   601A      6.379903   602A      6.415330  
     603A      6.469743   604A      6.650091   605A      6.707736  
     606A      6.733976   607A      6.804779   608A      6.808219  
     609A      6.823873   610A      6.850981   611A      6.863279  
     612A      6.884573   613A      6.915481   614A      6.928647  
     615A      6.967292   616A      6.993967   617A      7.093956  
     618A      7.140446   619A      7.230524   620A      7.257244  
     621A      7.292332   622A      7.350932   623A      7.454960  
     624A      7.492172   625A      7.521358   626A      7.626034  
     627A      7.657162   628A      7.700469   629A      7.759094  
     630A      7.848783   631A      7.872147   632A      7.958581  
     633A      7.997526   634A      8.107775   635A      8.401449  
     636A      8.558510   637A     15.278356   638A     16.238160  
     639A     17.532165   640A     17.963646   641A     18.237364  
     642A     18.647608   643A     18.994285   644A     20.188843  

    Final Occupation by Irrep:
              A 
    DOCC [    32 ]

  @DF-RHF Final Energy:  -384.08024261341126

   => Energetics <=

    Nuclear Repulsion Energy =            395.3759422079149317
    One-Electron Energy =               -1307.0248678121129160
    Two-Electron Energy =                 527.5686829907867832
    Total Energy =                       -384.0802426134112011

Computation Completed

*** tstop() called on node58.bme.utexas.edu at Tue Nov  3 04:29:55 2020
Module time:
	user time   =     250.49 seconds =       4.17 minutes
	system time =      36.38 seconds =       0.61 minutes
	total time  =         62 seconds =       1.03 minutes
Total time:
	user time   =     250.49 seconds =       4.17 minutes
	system time =      36.38 seconds =       0.61 minutes
	total time  =         62 seconds =       1.03 minutes
   => Loading Basis Set <=

    Name: (AUG-CC-PVTZ AUX)
    Role: RIFIT
    Keyword: DF_BASIS_MP2
    atoms 1-2  entry O          line   264 file /home/xy3866/psi4conda/share/psi4/basis/aug-cc-pvtz-ri.gbs 
    atoms 3-8  entry C          line   148 file /home/xy3866/psi4conda/share/psi4/basis/aug-cc-pvtz-ri.gbs 
    atoms 9-20 entry H          line    30 file /home/xy3866/psi4conda/share/psi4/basis/aug-cc-pvtz-ri.gbs 


*** tstart() called on node58.bme.utexas.edu
*** at Tue Nov  3 04:29:55 2020


  //>>>>>>>>>>>>>>>>>>>>>>>>>>>>>>>>>>>//
  //               DFMP2               //
  //<<<<<<<<<<<<<<<<<<<<<<<<<<<<<<<<<<<//

	 --------------------------------------------------------
	                          DF-MP2                         
	      2nd-Order Density-Fitted Moller-Plesset Theory     
	              RMP2 Wavefunction,   8 Threads             
	                                                         
	        Rob Parrish, Justin Turney, Andy Simmonett,      
	           Ed Hohenstein, and C. David Sherrill          
	 --------------------------------------------------------

   => Auxiliary Basis Set <=

  Basis Set: (AUG-CC-PVTZ AUX)
    Blend: AUG-CC-PVTZ-RI
    Number of shells: 392
    Number of basis function: 1400
    Number of Cartesian functions: 1748
    Spherical Harmonics?: true
    Max angular momentum: 4

	 --------------------------------------------------------
	                 NBF =   644, NAUX =  1400
	 --------------------------------------------------------
	   CLASS    FOCC     OCC    AOCC    AVIR     VIR    FVIR
	   PAIRS       0      32      32     612     612       0
	 --------------------------------------------------------

  DFHelper Memory: AOs need 4.113 GiB; user supplied 22.352 GiB. Using in-core AOs.


         ------------------------------------------------------------
                                     CPHF                           
                                  Rob Parrish                       
         ------------------------------------------------------------

  ==> Geometry <==

    Molecular point group: c1
    Full point group: C1

    Geometry (in Angstrom), charge = 0, multiplicity = 1:

       Center              X                  Y                   Z               Mass       
    ------------   -----------------  -----------------  -----------------  -----------------
         O           -0.899032112057     0.318890224919    -0.240873317186    15.994914619570
         O            0.256381887943    -1.452693775081     0.584260682814    15.994914619570
         C            1.457742887943     0.422119224919    -0.390290317186    12.000000000000
         C            1.855124887943     1.407540824919     0.713884982814    12.000000000000
         C            2.612068887943    -0.516151775081    -0.717260317186    12.000000000000
         C            0.242097487943    -0.391589875081    -0.016962217186    12.000000000000
         C           -2.113696112057    -0.330989775081     0.200385682814    12.000000000000
         C           -3.258057112057     0.566485224919    -0.206293317186    12.000000000000
         H            1.182008887943     1.006302224919    -1.274240317186     1.007825032230
         H            2.684433887943     1.991525224919     0.467324682814     1.007825032230
         H            2.056502887943     0.831889224919     1.652200682814     1.007825032230
         H            0.981547887943     2.064781224919     0.958795682814     1.007825032230
         H            3.490706887943     0.058727224919    -1.024038317186     1.007825032230
         H            2.348789887943    -1.201474775081    -1.527036317186     1.007825032230
         H            2.870458887943    -1.114559775081     0.159099682814     1.007825032230
         H           -2.175906112057    -1.318397775081    -0.263352317186     1.007825032230
         H           -2.065111112057    -0.475648775081     1.283706682814     1.007825032230
         H           -4.209132112057     0.122394224919     0.100203682814     1.007825032230
         H           -3.163686112057     1.545997224919     0.266401682814     1.007825032230
         H           -3.270562112057     0.701621224919    -1.289255317186     1.007825032230

  Nuclear repulsion =  395.375942207914932
  Reference energy  = -384.080242613411258

  ==> Basis Set <==

  Basis Set: AUG-CC-PVTZ
    Blend: AUG-CC-PVTZ
    Number of shells: 220
    Number of basis function: 644
    Number of Cartesian functions: 740
    Spherical Harmonics?: true
    Max angular momentum: 3

  ==> CGRSolver (by Rob Parrish) <==

   Number of roots    =         1
   Preconditioning    =    JACOBI
   Convergence cutoff =     1E-06
   Maximum iterations =       100

  ==> CPHFRHamiltonian (by Rob Parrish) <== 

  ==> MemDFJK: Density-Fitted J/K Matrices <==

    J tasked:                   Yes
    K tasked:                   Yes
    wK tasked:                   No
    OpenMP threads:               8
    Memory [MiB]:             22888
    Algorithm:                 Disk
    Schwarz Cutoff:           1E-12
    Mask sparsity (%):       6.6838
    Fitting Condition:        1E-10

   => Auxiliary Basis Set <=

  Basis Set: (AUG-CC-PVTZ AUX)
    Blend: AUG-CC-PVTZ-JKFIT
    Number of shells: 408
    Number of basis function: 1384
    Number of Cartesian functions: 1708
    Spherical Harmonics?: true
    Max angular momentum: 4

  ==> CPHF Iterations <==

  => Iterations <=

             Iter  Converged  Remaining    Residual
  CGR           1          0          1   1.104E-01
  CGR           2          0          1   3.179E-02
  CGR           3          0          1   1.204E-02
  CGR           4          0          1   4.167E-03
  CGR           5          0          1   1.538E-03
  CGR           6          0          1   4.314E-04
  CGR           7          0          1   1.540E-04
  CGR           8          0          1   7.129E-05
  CGR           9          0          1   2.561E-05
  CGR          10          0          1   8.582E-06
  CGR          11          0          1   2.135E-06
  CGR          12          1          0   6.897E-07

    CGRSolver converged.

	-----------------------------------------------------------
	 ==================> DF-MP2 Energies <==================== 
	-----------------------------------------------------------
	 Reference Energy          =    -384.0802426134112579 [Eh]
	 Singles Energy            =      -0.0000000000000000 [Eh]
	 Same-Spin Energy          =      -0.3840149064662803 [Eh]
	 Opposite-Spin Energy      =      -1.2872391324882737 [Eh]
	 Correlation Energy        =      -1.6712540389545540 [Eh]
	 Total Energy              =    -385.7514966523658018 [Eh]
	-----------------------------------------------------------
	 ================> DF-SCS-MP2 Energies <================== 
	-----------------------------------------------------------
	 SCS Same-Spin Scale       =       0.3333333333333333 [-]
	 SCS Opposite-Spin Scale   =       1.2000000000000000 [-]
	 SCS Same-Spin Energy      =      -0.1280049688220934 [Eh]
	 SCS Opposite-Spin Energy  =      -1.5446869589859284 [Eh]
	 SCS Correlation Energy    =      -1.6726919278080219 [Eh]
	 SCS Total Energy          =    -385.7529345412193038 [Eh]
	-----------------------------------------------------------



Properties will be evaluated at   0.000000,  -0.000000,   0.000000 [a0]

Properties computed using the MP2 density matrix

  Nuclear Dipole Moment: [e a0]
     X:     0.6813      Y:     3.9443      Z:    -0.4579

  Electronic Dipole Moment: [e a0]
     X:    -0.9498      Y:    -3.3333      Z:     0.2072

  Dipole Moment: [e a0]
     X:    -0.2685      Y:     0.6109      Z:    -0.2507     Total:     0.7129

  Dipole Moment: [D]
     X:    -0.6825      Y:     1.5528      Z:    -0.6373     Total:     1.8119


*** tstop() called on node58.bme.utexas.edu at Tue Nov  3 04:32:13 2020
Module time:
	user time   =     783.42 seconds =      13.06 minutes
	system time =      38.71 seconds =       0.65 minutes
	total time  =        138 seconds =       2.30 minutes
Total time:
	user time   =    1035.17 seconds =      17.25 minutes
	system time =      75.16 seconds =       1.25 minutes
	total time  =        200 seconds =       3.33 minutes

    Psi4 stopped on: Tuesday, 03 November 2020 04:32AM
    Psi4 wall time for execution: 0:03:19.53

*** Psi4 exiting successfully. Buy a developer a beer!
