
    -----------------------------------------------------------------------
          Psi4: An Open-Source Ab Initio Electronic Structure Package
                               Psi4 1.3.2 release

                         Git: Rev {HEAD} ecbda83 


    R. M. Parrish, L. A. Burns, D. G. A. Smith, A. C. Simmonett,
    A. E. DePrince III, E. G. Hohenstein, U. Bozkaya, A. Yu. Sokolov,
    R. Di Remigio, R. M. Richard, J. F. Gonthier, A. M. James,
    H. R. McAlexander, A. Kumar, M. Saitow, X. Wang, B. P. Pritchard,
    P. Verma, H. F. Schaefer III, K. Patkowski, R. A. King, E. F. Valeev,
    F. A. Evangelista, J. M. Turney, T. D. Crawford, and C. D. Sherrill,
    J. Chem. Theory Comput. 13(7) pp 3185--3197 (2017).
    (doi: 10.1021/acs.jctc.7b00174)


                         Additional Contributions by
    P. Kraus, H. Kruse, M. H. Lechner, M. C. Schieber, R. A. Shaw,
    A. Alenaizan, R. Galvelis, Z. L. Glick, S. Lehtola, and J. P. Misiewicz

    -----------------------------------------------------------------------


    Psi4 started on: Tuesday, 03 November 2020 12:35AM

    Process ID: 58016
    Host:       node58.bme.utexas.edu
    PSIDATADIR: /home/xy3866/psi4conda/share/psi4
    Memory:     500.0 MiB
    Threads:    8
    
  ==> Input File <==

--------------------------------------------------------------------------
#psi4
#
memory 32 gb

molecule  {
0 1
  O       -0.8547657     0.3692287    -0.2776690
  O        0.3245267    -1.4530913     0.5717482
  C        1.4621750     0.4213130    -0.3980820
  C        1.8184670     1.3890190     0.7353960
  C        2.6165010    -0.5169580    -0.7250520
  C        0.2447430    -0.3668820     0.0213200
  C       -2.1092640    -0.3317960     0.1925940
  C       -3.2536250     0.5656790    -0.2140850
  H        1.1864410     1.0054960    -1.2820320
  H        2.6888660     1.9907190     0.4595330
  H        2.0609350     0.8310830     1.6444090
  H        0.9859800     2.0639750     0.9510040
  H        3.4951390     0.0579210    -1.0318300
  H        2.3532220    -1.2022810    -1.5348280
  H        2.8748910    -1.1153660     0.1513080
  H       -2.1714740    -1.3192040    -0.2711440
  H       -2.0606790    -0.4764550     1.2759150
  H       -4.2047000     0.1215880     0.0924120
  H       -3.1592540     1.5451910     0.2586100
  H       -3.2661300     0.7008150    -1.2970470
units angstrom
no_reorient  #important for SAPT in psi4, default
symmetry c1  #important for SAPT in psi4, default
}

set PROPERTIES_ORIGIN ["COM"]
properties('MP2/aug-cc-pvtz', properties = ['dipole'])
--------------------------------------------------------------------------

  Memory set to  29.802 GiB by Python driver.
    SCF Algorithm Type (re)set to DF.

*** tstart() called on node58.bme.utexas.edu
*** at Tue Nov  3 00:35:07 2020

   => Loading Basis Set <=

    Name: AUG-CC-PVTZ
    Role: ORBITAL
    Keyword: BASIS
    atoms 1-2  entry O          line   327 file /home/xy3866/psi4conda/share/psi4/basis/aug-cc-pvtz.gbs 
    atoms 3-8  entry C          line   235 file /home/xy3866/psi4conda/share/psi4/basis/aug-cc-pvtz.gbs 
    atoms 9-20 entry H          line    36 file /home/xy3866/psi4conda/share/psi4/basis/aug-cc-pvtz.gbs 


         ---------------------------------------------------------
                                   SCF
               by Justin Turney, Rob Parrish, Andy Simmonett
                          and Daniel G. A. Smith
                              RHF Reference
                        8 Threads,  30517 MiB Core
         ---------------------------------------------------------

  ==> Geometry <==

    Molecular point group: c1
    Full point group: C1

    Geometry (in Angstrom), charge = 0, multiplicity = 1:

       Center              X                  Y                   Z               Mass       
    ------------   -----------------  -----------------  -----------------  -----------------
         O           -0.869033007978     0.362125339017    -0.273022408273    15.994914619570
         O            0.310259392022    -1.460194660983     0.576394791727    15.994914619570
         C            1.447907692022     0.414209639017    -0.393435408273    12.000000000000
         C            1.804199692022     1.381915639017     0.740042591727    12.000000000000
         C            2.602233692022    -0.524061360983    -0.720405408273    12.000000000000
         C            0.230475692022    -0.373985360983     0.025966591727    12.000000000000
         C           -2.123531307978    -0.338899360983     0.197240591727    12.000000000000
         C           -3.267892307978     0.558575639017    -0.209438408273    12.000000000000
         H            1.172173692022     0.998392639017    -1.277385408273     1.007825032230
         H            2.674598692022     1.983615639017     0.464179591727     1.007825032230
         H            2.046667692022     0.823979639017     1.649055591727     1.007825032230
         H            0.971712692022     2.056871639017     0.955650591727     1.007825032230
         H            3.480871692022     0.050817639017    -1.027183408273     1.007825032230
         H            2.338954692022    -1.209384360983    -1.530181408273     1.007825032230
         H            2.860623692022    -1.122469360983     0.155954591727     1.007825032230
         H           -2.185741307978    -1.326307360983    -0.266497408273     1.007825032230
         H           -2.074946307978    -0.483558360983     1.280561591727     1.007825032230
         H           -4.218967307978     0.114484639017     0.097058591727     1.007825032230
         H           -3.173521307978     1.538087639017     0.263256591727     1.007825032230
         H           -3.280397307978     0.693711639017    -1.292400408273     1.007825032230

  Running in c1 symmetry.

  Rotational constants: A =      0.13672  B =      0.03629  C =      0.03250 [cm^-1]
  Rotational constants: A =   4098.71944  B =   1088.01088  C =    974.22285 [MHz]
  Nuclear repulsion =  394.959286713621168

  Charge       = 0
  Multiplicity = 1
  Electrons    = 64
  Nalpha       = 32
  Nbeta        = 32

  ==> Algorithm <==

  SCF Algorithm Type is DF.
  DIIS enabled.
  MOM disabled.
  Fractional occupation disabled.
  Guess Type is SAD.
  Energy threshold   = 1.00e-10
  Density threshold  = 1.00e-10
  Integral threshold = 0.00e+00

  ==> Primary Basis <==

  Basis Set: AUG-CC-PVTZ
    Blend: AUG-CC-PVTZ
    Number of shells: 220
    Number of basis function: 644
    Number of Cartesian functions: 740
    Spherical Harmonics?: true
    Max angular momentum: 3

   => Loading Basis Set <=

    Name: (AUG-CC-PVTZ AUX)
    Role: JKFIT
    Keyword: DF_BASIS_SCF
    atoms 1-2  entry O          line   286 file /home/xy3866/psi4conda/share/psi4/basis/aug-cc-pvtz-jkfit.gbs 
    atoms 3-8  entry C          line   162 file /home/xy3866/psi4conda/share/psi4/basis/aug-cc-pvtz-jkfit.gbs 
    atoms 9-20 entry H          line    70 file /home/xy3866/psi4conda/share/psi4/basis/aug-cc-pvtz-jkfit.gbs 

  ==> Pre-Iterations <==

   -------------------------------------------------------
    Irrep   Nso     Nmo     Nalpha   Nbeta   Ndocc  Nsocc
   -------------------------------------------------------
     A        644     644       0       0       0       0
   -------------------------------------------------------
    Total     644     644      32      32      32       0
   -------------------------------------------------------

  ==> Integral Setup <==

  DFHelper Memory: AOs need 4.114 GiB; user supplied 22.352 GiB. Using in-core AOs.

  ==> MemDFJK: Density-Fitted J/K Matrices <==

    J tasked:                   Yes
    K tasked:                   Yes
    wK tasked:                   No
    OpenMP threads:               8
    Memory [MiB]:             22888
    Algorithm:                 Disk
    Schwarz Cutoff:           1E-12
    Mask sparsity (%):       6.6703
    Fitting Condition:        1E-10

   => Auxiliary Basis Set <=

  Basis Set: (AUG-CC-PVTZ AUX)
    Blend: AUG-CC-PVTZ-JKFIT
    Number of shells: 408
    Number of basis function: 1384
    Number of Cartesian functions: 1708
    Spherical Harmonics?: true
    Max angular momentum: 4

  Minimum eigenvalue in the overlap matrix is 2.6889694577E-06.
  Using Symmetric Orthogonalization.

  SCF Guess: Superposition of Atomic Densities via on-the-fly atomic UHF.

  ==> Iterations <==

                           Total Energy        Delta E     RMS |[F,P]|

   @DF-RHF iter SAD:  -383.00393524071080   -3.83004e+02   0.00000e+00 
   @DF-RHF iter   1:  -383.76427304029056   -7.60338e-01   1.17722e-03 DIIS
   @DF-RHF iter   2:  -384.00907592565000   -2.44803e-01   6.22035e-04 DIIS
   @DF-RHF iter   3:  -384.07198170394230   -6.29058e-02   1.33170e-04 DIIS
   @DF-RHF iter   4:  -384.07636506731285   -4.38336e-03   6.33349e-05 DIIS
   @DF-RHF iter   5:  -384.07724698571161   -8.81918e-04   1.16347e-05 DIIS
   @DF-RHF iter   6:  -384.07729989113722   -5.29054e-05   5.19252e-06 DIIS
   @DF-RHF iter   7:  -384.07730987944228   -9.98831e-06   1.97004e-06 DIIS
   @DF-RHF iter   8:  -384.07731183408515   -1.95464e-06   8.74480e-07 DIIS
   @DF-RHF iter   9:  -384.07731228631053   -4.52225e-07   2.63659e-07 DIIS
   @DF-RHF iter  10:  -384.07731232928933   -4.29788e-08   6.55923e-08 DIIS
   @DF-RHF iter  11:  -384.07731233166430   -2.37497e-09   1.80075e-08 DIIS
   @DF-RHF iter  12:  -384.07731233179948   -1.35174e-10   5.27566e-09 DIIS
   @DF-RHF iter  13:  -384.07731233181062   -1.11413e-11   1.81870e-09 DIIS
   @DF-RHF iter  14:  -384.07731233181357   -2.95586e-12   5.91016e-10 DIIS
   @DF-RHF iter  15:  -384.07731233181147    2.10321e-12   1.75047e-10 DIIS
   @DF-RHF iter  16:  -384.07731233181090    5.68434e-13   6.71087e-11 DIIS
  Energy and wave function converged.


  ==> Post-Iterations <==

    Orbital Energies [Eh]
    ---------------------

    Doubly Occupied:                                                      

       1A    -20.606257     2A    -20.541965     3A    -11.372133  
       4A    -11.296684     5A    -11.237344     6A    -11.228459  
       7A    -11.223120     8A    -11.212107     9A     -1.440633  
      10A     -1.350046    11A     -1.088300    12A     -1.037223  
      13A     -0.934915    14A     -0.888970    15A     -0.830798  
      16A     -0.756262    17A     -0.694523    18A     -0.674041  
      19A     -0.659203    20A     -0.616890    21A     -0.592306  
      22A     -0.580748    23A     -0.556072    24A     -0.547527  
      25A     -0.541610    26A     -0.524480    27A     -0.511137  
      28A     -0.507405    29A     -0.484487    30A     -0.477666  
      31A     -0.462206    32A     -0.430247  

    Virtual:                                                              

      33A      0.027966    34A      0.032088    35A      0.036829  
      36A      0.040044    37A      0.049045    38A      0.050478  
      39A      0.051722    40A      0.060191    41A      0.067301  
      42A      0.068744    43A      0.074629    44A      0.075921  
      45A      0.101495    46A      0.104082    47A      0.116777  
      48A      0.119132    49A      0.123620    50A      0.125755  
      51A      0.126517    52A      0.131835    53A      0.134675  
      54A      0.141343    55A      0.144685    56A      0.145443  
      57A      0.146385    58A      0.154573    59A      0.160355  
      60A      0.168835    61A      0.171979    62A      0.177793  
      63A      0.180922    64A      0.187992    65A      0.198892  
      66A      0.201847    67A      0.209615    68A      0.220214  
      69A      0.223784    70A      0.235396    71A      0.238315  
      72A      0.239670    73A      0.248401    74A      0.258200  
      75A      0.262656    76A      0.273008    77A      0.283521  
      78A      0.285570    79A      0.290022    80A      0.291968  
      81A      0.296818    82A      0.300923    83A      0.311997  
      84A      0.316481    85A      0.327225    86A      0.329616  
      87A      0.334269    88A      0.336652    89A      0.338240  
      90A      0.345386    91A      0.346941    92A      0.354673  
      93A      0.360001    94A      0.365940    95A      0.367769  
      96A      0.371596    97A      0.374622    98A      0.375760  
      99A      0.387988   100A      0.391511   101A      0.392316  
     102A      0.399810   103A      0.402965   104A      0.412074  
     105A      0.419351   106A      0.423403   107A      0.425140  
     108A      0.429979   109A      0.432190   110A      0.437354  
     111A      0.443638   112A      0.446263   113A      0.450186  
     114A      0.453900   115A      0.455980   116A      0.458487  
     117A      0.461593   118A      0.466479   119A      0.472877  
     120A      0.475714   121A      0.478266   122A      0.482209  
     123A      0.488354   124A      0.490214   125A      0.499075  
     126A      0.506400   127A      0.511432   128A      0.514234  
     129A      0.521366   130A      0.522817   131A      0.526284  
     132A      0.536125   133A      0.542644   134A      0.545707  
     135A      0.546709   136A      0.555517   137A      0.560944  
     138A      0.561871   139A      0.573889   140A      0.578475  
     141A      0.589923   142A      0.598214   143A      0.600892  
     144A      0.603765   145A      0.614854   146A      0.617645  
     147A      0.627942   148A      0.632082   149A      0.636121  
     150A      0.646305   151A      0.650710   152A      0.657304  
     153A      0.665276   154A      0.671145   155A      0.674445  
     156A      0.686728   157A      0.688362   158A      0.704613  
     159A      0.728598   160A      0.744490   161A      0.748746  
     162A      0.758347   163A      0.771723   164A      0.790382  
     165A      0.795969   166A      0.799554   167A      0.810742  
     168A      0.818709   169A      0.822472   170A      0.827960  
     171A      0.831677   172A      0.841507   173A      0.844111  
     174A      0.847370   175A      0.850990   176A      0.855043  
     177A      0.863643   178A      0.869707   179A      0.875673  
     180A      0.882842   181A      0.889100   182A      0.890844  
     183A      0.904548   184A      0.908057   185A      0.914893  
     186A      0.919330   187A      0.921842   188A      0.922750  
     189A      0.933540   190A      0.935755   191A      0.939501  
     192A      0.947492   193A      0.951764   194A      0.953466  
     195A      0.959641   196A      0.963084   197A      0.972892  
     198A      0.979974   199A      0.983490   200A      0.989228  
     201A      1.003821   202A      1.006067   203A      1.012804  
     204A      1.017924   205A      1.022239   206A      1.032025  
     207A      1.035894   208A      1.050414   209A      1.053968  
     210A      1.057377   211A      1.062645   212A      1.066576  
     213A      1.076191   214A      1.086561   215A      1.092188  
     216A      1.105210   217A      1.106987   218A      1.113130  
     219A      1.116483   220A      1.125291   221A      1.127305  
     222A      1.139428   223A      1.147004   224A      1.150682  
     225A      1.154124   226A      1.166247   227A      1.173190  
     228A      1.178599   229A      1.184814   230A      1.191175  
     231A      1.194936   232A      1.202406   233A      1.210400  
     234A      1.217687   235A      1.221273   236A      1.229437  
     237A      1.233078   238A      1.247762   239A      1.253913  
     240A      1.261958   241A      1.266343   242A      1.273373  
     243A      1.274981   244A      1.281768   245A      1.291146  
     246A      1.293969   247A      1.306083   248A      1.320408  
     249A      1.335631   250A      1.338254   251A      1.353237  
     252A      1.366702   253A      1.372777   254A      1.379959  
     255A      1.384834   256A      1.390427   257A      1.397152  
     258A      1.409728   259A      1.417544   260A      1.425142  
     261A      1.437866   262A      1.444178   263A      1.451322  
     264A      1.462962   265A      1.467239   266A      1.490197  
     267A      1.502721   268A      1.509506   269A      1.516614  
     270A      1.524047   271A      1.530797   272A      1.539791  
     273A      1.543902   274A      1.555174   275A      1.565198  
     276A      1.571322   277A      1.579629   278A      1.596408  
     279A      1.600801   280A      1.608388   281A      1.616987  
     282A      1.635326   283A      1.636449   284A      1.647125  
     285A      1.652812   286A      1.656963   287A      1.665059  
     288A      1.671789   289A      1.680278   290A      1.687909  
     291A      1.691384   292A      1.699596   293A      1.702389  
     294A      1.703155   295A      1.719782   296A      1.720446  
     297A      1.724723   298A      1.725921   299A      1.733873  
     300A      1.740582   301A      1.751868   302A      1.759636  
     303A      1.765901   304A      1.774161   305A      1.776646  
     306A      1.784511   307A      1.801043   308A      1.815385  
     309A      1.820618   310A      1.831734   311A      1.837190  
     312A      1.844155   313A      1.857407   314A      1.858155  
     315A      1.869356   316A      1.883076   317A      1.891481  
     318A      1.903933   319A      1.905216   320A      1.919143  
     321A      1.921898   322A      1.928003   323A      1.941306  
     324A      1.955362   325A      1.960213   326A      1.971679  
     327A      1.977776   328A      1.991272   329A      1.994239  
     330A      2.004393   331A      2.014093   332A      2.027727  
     333A      2.033579   334A      2.061246   335A      2.067639  
     336A      2.082748   337A      2.091584   338A      2.093568  
     339A      2.099874   340A      2.115475   341A      2.127925  
     342A      2.138041   343A      2.145513   344A      2.165560  
     345A      2.188518   346A      2.194386   347A      2.210733  
     348A      2.216409   349A      2.237995   350A      2.243006  
     351A      2.253306   352A      2.254801   353A      2.263676  
     354A      2.268386   355A      2.280900   356A      2.293618  
     357A      2.299186   358A      2.308617   359A      2.317819  
     360A      2.340327   361A      2.341437   362A      2.361269  
     363A      2.373925   364A      2.388384   365A      2.408784  
     366A      2.414692   367A      2.423646   368A      2.455195  
     369A      2.476370   370A      2.488998   371A      2.497652  
     372A      2.514245   373A      2.519586   374A      2.538005  
     375A      2.562305   376A      2.570859   377A      2.606114  
     378A      2.623223   379A      2.638097   380A      2.665068  
     381A      2.672445   382A      2.688803   383A      2.706532  
     384A      2.728219   385A      2.753328   386A      2.783644  
     387A      2.790212   388A      2.802409   389A      2.834572  
     390A      2.856426   391A      2.899834   392A      2.924835  
     393A      2.950233   394A      2.970686   395A      2.986787  
     396A      3.009324   397A      3.028721   398A      3.069767  
     399A      3.090927   400A      3.104525   401A      3.142894  
     402A      3.171900   403A      3.186677   404A      3.232207  
     405A      3.242968   406A      3.255381   407A      3.315041  
     408A      3.342717   409A      3.368281   410A      3.391355  
     411A      3.411755   412A      3.424963   413A      3.435842  
     414A      3.450465   415A      3.457041   416A      3.474140  
     417A      3.506519   418A      3.510555   419A      3.513747  
     420A      3.535578   421A      3.544303   422A      3.563860  
     423A      3.586555   424A      3.610299   425A      3.615878  
     426A      3.630476   427A      3.650700   428A      3.658779  
     429A      3.668006   430A      3.674839   431A      3.699866  
     432A      3.701414   433A      3.706787   434A      3.710247  
     435A      3.721847   436A      3.726600   437A      3.739447  
     438A      3.743067   439A      3.769956   440A      3.775631  
     441A      3.784065   442A      3.799823   443A      3.810784  
     444A      3.817503   445A      3.829333   446A      3.835373  
     447A      3.856242   448A      3.862072   449A      3.867458  
     450A      3.878412   451A      3.894182   452A      3.907766  
     453A      3.915543   454A      3.926510   455A      3.933118  
     456A      3.934470   457A      3.948303   458A      3.962488  
     459A      3.975223   460A      3.994813   461A      4.000594  
     462A      4.005277   463A      4.013610   464A      4.023820  
     465A      4.033929   466A      4.039821   467A      4.065770  
     468A      4.080136   469A      4.087006   470A      4.109118  
     471A      4.115798   472A      4.121592   473A      4.152873  
     474A      4.167311   475A      4.172104   476A      4.179308  
     477A      4.200942   478A      4.206186   479A      4.217299  
     480A      4.233146   481A      4.240742   482A      4.246108  
     483A      4.259186   484A      4.271202   485A      4.282046  
     486A      4.297279   487A      4.314492   488A      4.322682  
     489A      4.330585   490A      4.357215   491A      4.367848  
     492A      4.382336   493A      4.398606   494A      4.403909  
     495A      4.435231   496A      4.448771   497A      4.452256  
     498A      4.461968   499A      4.486447   500A      4.496939  
     501A      4.507685   502A      4.519814   503A      4.536916  
     504A      4.552325   505A      4.578211   506A      4.598701  
     507A      4.605712   508A      4.621384   509A      4.640840  
     510A      4.648700   511A      4.659898   512A      4.680167  
     513A      4.699608   514A      4.711178   515A      4.723301  
     516A      4.735979   517A      4.782236   518A      4.791559  
     519A      4.819230   520A      4.833192   521A      4.847436  
     522A      4.847967   523A      4.861922   524A      4.874303  
     525A      4.879665   526A      4.888728   527A      4.898403  
     528A      4.930919   529A      4.940064   530A      4.952771  
     531A      4.969828   532A      4.984991   533A      5.004394  
     534A      5.015181   535A      5.032840   536A      5.045708  
     537A      5.060527   538A      5.078093   539A      5.110148  
     540A      5.127353   541A      5.137499   542A      5.142199  
     543A      5.152011   544A      5.162158   545A      5.181181  
     546A      5.196303   547A      5.201452   548A      5.242001  
     549A      5.252223   550A      5.259194   551A      5.271816  
     552A      5.289047   553A      5.298442   554A      5.318942  
     555A      5.328608   556A      5.348562   557A      5.374263  
     558A      5.393426   559A      5.410970   560A      5.413804  
     561A      5.426221   562A      5.437306   563A      5.447139  
     564A      5.452129   565A      5.481258   566A      5.496789  
     567A      5.507610   568A      5.543599   569A      5.574662  
     570A      5.579283   571A      5.597858   572A      5.622275  
     573A      5.641138   574A      5.654931   575A      5.705918  
     576A      5.739287   577A      5.748346   578A      5.767702  
     579A      5.787400   580A      5.803577   581A      5.805494  
     582A      5.820365   583A      5.871597   584A      5.897159  
     585A      5.936634   586A      5.993925   587A      6.001076  
     588A      6.007988   589A      6.020054   590A      6.081839  
     591A      6.117534   592A      6.135517   593A      6.156674  
     594A      6.199069   595A      6.222383   596A      6.224589  
     597A      6.239999   598A      6.251814   599A      6.296594  
     600A      6.322618   601A      6.390701   602A      6.405265  
     603A      6.469553   604A      6.622283   605A      6.714586  
     606A      6.730255   607A      6.808353   608A      6.813047  
     609A      6.826454   610A      6.850344   611A      6.856934  
     612A      6.881507   613A      6.922087   614A      6.929865  
     615A      6.937118   616A      6.994516   617A      7.098080  
     618A      7.144981   619A      7.235866   620A      7.255314  
     621A      7.266274   622A      7.331997   623A      7.451095  
     624A      7.478424   625A      7.531382   626A      7.586328  
     627A      7.645420   628A      7.664351   629A      7.768979  
     630A      7.855459   631A      7.863672   632A      7.902828  
     633A      7.988591   634A      8.109205   635A      8.334337  
     636A      8.554610   637A     15.370012   638A     16.263399  
     639A     17.639459   640A     17.869646   641A     18.173202  
     642A     18.546617   643A     19.186070   644A     20.005427  

    Final Occupation by Irrep:
              A 
    DOCC [    32 ]

  @DF-RHF Final Energy:  -384.07731233181090

   => Energetics <=

    Nuclear Repulsion Energy =            394.9592867136211680
    One-Electron Energy =               -1306.2616726215935614
    Two-Electron Energy =                 527.2250735761615488
    Total Energy =                       -384.0773123318108446

Computation Completed

*** tstop() called on node58.bme.utexas.edu at Tue Nov  3 00:36:10 2020
Module time:
	user time   =     252.50 seconds =       4.21 minutes
	system time =      36.54 seconds =       0.61 minutes
	total time  =         63 seconds =       1.05 minutes
Total time:
	user time   =     252.50 seconds =       4.21 minutes
	system time =      36.54 seconds =       0.61 minutes
	total time  =         63 seconds =       1.05 minutes
   => Loading Basis Set <=

    Name: (AUG-CC-PVTZ AUX)
    Role: RIFIT
    Keyword: DF_BASIS_MP2
    atoms 1-2  entry O          line   264 file /home/xy3866/psi4conda/share/psi4/basis/aug-cc-pvtz-ri.gbs 
    atoms 3-8  entry C          line   148 file /home/xy3866/psi4conda/share/psi4/basis/aug-cc-pvtz-ri.gbs 
    atoms 9-20 entry H          line    30 file /home/xy3866/psi4conda/share/psi4/basis/aug-cc-pvtz-ri.gbs 


*** tstart() called on node58.bme.utexas.edu
*** at Tue Nov  3 00:36:11 2020


  //>>>>>>>>>>>>>>>>>>>>>>>>>>>>>>>>>>>//
  //               DFMP2               //
  //<<<<<<<<<<<<<<<<<<<<<<<<<<<<<<<<<<<//

	 --------------------------------------------------------
	                          DF-MP2                         
	      2nd-Order Density-Fitted Moller-Plesset Theory     
	              RMP2 Wavefunction,   8 Threads             
	                                                         
	        Rob Parrish, Justin Turney, Andy Simmonett,      
	           Ed Hohenstein, and C. David Sherrill          
	 --------------------------------------------------------

   => Auxiliary Basis Set <=

  Basis Set: (AUG-CC-PVTZ AUX)
    Blend: AUG-CC-PVTZ-RI
    Number of shells: 392
    Number of basis function: 1400
    Number of Cartesian functions: 1748
    Spherical Harmonics?: true
    Max angular momentum: 4

	 --------------------------------------------------------
	                 NBF =   644, NAUX =  1400
	 --------------------------------------------------------
	   CLASS    FOCC     OCC    AOCC    AVIR     VIR    FVIR
	   PAIRS       0      32      32     612     612       0
	 --------------------------------------------------------

  DFHelper Memory: AOs need 4.114 GiB; user supplied 22.352 GiB. Using in-core AOs.


         ------------------------------------------------------------
                                     CPHF                           
                                  Rob Parrish                       
         ------------------------------------------------------------

  ==> Geometry <==

    Molecular point group: c1
    Full point group: C1

    Geometry (in Angstrom), charge = 0, multiplicity = 1:

       Center              X                  Y                   Z               Mass       
    ------------   -----------------  -----------------  -----------------  -----------------
         O           -0.869033007978     0.362125339017    -0.273022408273    15.994914619570
         O            0.310259392022    -1.460194660983     0.576394791727    15.994914619570
         C            1.447907692022     0.414209639017    -0.393435408273    12.000000000000
         C            1.804199692022     1.381915639017     0.740042591727    12.000000000000
         C            2.602233692022    -0.524061360983    -0.720405408273    12.000000000000
         C            0.230475692022    -0.373985360983     0.025966591727    12.000000000000
         C           -2.123531307978    -0.338899360983     0.197240591727    12.000000000000
         C           -3.267892307978     0.558575639017    -0.209438408273    12.000000000000
         H            1.172173692022     0.998392639017    -1.277385408273     1.007825032230
         H            2.674598692022     1.983615639017     0.464179591727     1.007825032230
         H            2.046667692022     0.823979639017     1.649055591727     1.007825032230
         H            0.971712692022     2.056871639017     0.955650591727     1.007825032230
         H            3.480871692022     0.050817639017    -1.027183408273     1.007825032230
         H            2.338954692022    -1.209384360983    -1.530181408273     1.007825032230
         H            2.860623692022    -1.122469360983     0.155954591727     1.007825032230
         H           -2.185741307978    -1.326307360983    -0.266497408273     1.007825032230
         H           -2.074946307978    -0.483558360983     1.280561591727     1.007825032230
         H           -4.218967307978     0.114484639017     0.097058591727     1.007825032230
         H           -3.173521307978     1.538087639017     0.263256591727     1.007825032230
         H           -3.280397307978     0.693711639017    -1.292400408273     1.007825032230

  Nuclear repulsion =  394.959286713621168
  Reference energy  = -384.077312331810901

  ==> Basis Set <==

  Basis Set: AUG-CC-PVTZ
    Blend: AUG-CC-PVTZ
    Number of shells: 220
    Number of basis function: 644
    Number of Cartesian functions: 740
    Spherical Harmonics?: true
    Max angular momentum: 3

  ==> CGRSolver (by Rob Parrish) <==

   Number of roots    =         1
   Preconditioning    =    JACOBI
   Convergence cutoff =     1E-06
   Maximum iterations =       100

  ==> CPHFRHamiltonian (by Rob Parrish) <== 

  ==> MemDFJK: Density-Fitted J/K Matrices <==

    J tasked:                   Yes
    K tasked:                   Yes
    wK tasked:                   No
    OpenMP threads:               8
    Memory [MiB]:             22888
    Algorithm:                 Disk
    Schwarz Cutoff:           1E-12
    Mask sparsity (%):       6.6703
    Fitting Condition:        1E-10

   => Auxiliary Basis Set <=

  Basis Set: (AUG-CC-PVTZ AUX)
    Blend: AUG-CC-PVTZ-JKFIT
    Number of shells: 408
    Number of basis function: 1384
    Number of Cartesian functions: 1708
    Spherical Harmonics?: true
    Max angular momentum: 4

  ==> CPHF Iterations <==

  => Iterations <=

             Iter  Converged  Remaining    Residual
  CGR           1          0          1   1.107E-01
  CGR           2          0          1   3.125E-02
  CGR           3          0          1   1.186E-02
  CGR           4          0          1   4.092E-03
  CGR           5          0          1   1.466E-03
  CGR           6          0          1   3.723E-04
  CGR           7          0          1   1.165E-04
  CGR           8          0          1   3.574E-05
  CGR           9          0          1   1.374E-05
  CGR          10          0          1   6.409E-06
  CGR          11          0          1   1.745E-06
  CGR          12          1          0   4.854E-07

    CGRSolver converged.

	-----------------------------------------------------------
	 ==================> DF-MP2 Energies <==================== 
	-----------------------------------------------------------
	 Reference Energy          =    -384.0773123318109015 [Eh]
	 Singles Energy            =      -0.0000000000000000 [Eh]
	 Same-Spin Energy          =      -0.3846767182688056 [Eh]
	 Opposite-Spin Energy      =      -1.2892646531121830 [Eh]
	 Correlation Energy        =      -1.6739413713809885 [Eh]
	 Total Energy              =    -385.7512537031918782 [Eh]
	-----------------------------------------------------------
	 ================> DF-SCS-MP2 Energies <================== 
	-----------------------------------------------------------
	 SCS Same-Spin Scale       =       0.3333333333333333 [-]
	 SCS Opposite-Spin Scale   =       1.2000000000000000 [-]
	 SCS Same-Spin Energy      =      -0.1282255727562685 [Eh]
	 SCS Opposite-Spin Energy  =      -1.5471175837346196 [Eh]
	 SCS Correlation Energy    =      -1.6753431564908881 [Eh]
	 SCS Total Energy          =    -385.7526554883017980 [Eh]
	-----------------------------------------------------------



Properties will be evaluated at   0.000000,   0.000000,   0.000000 [a0]

Properties computed using the MP2 density matrix

  Nuclear Dipole Moment: [e a0]
     X:     0.5711      Y:     3.8554      Z:    -0.4935

  Electronic Dipole Moment: [e a0]
     X:    -1.0406      Y:    -3.2818      Z:     0.2886

  Dipole Moment: [e a0]
     X:    -0.4695      Y:     0.5736      Z:    -0.2048     Total:     0.7691

  Dipole Moment: [D]
     X:    -1.1933      Y:     1.4581      Z:    -0.5206     Total:     1.9547


*** tstop() called on node58.bme.utexas.edu at Tue Nov  3 00:38:34 2020
Module time:
	user time   =     786.25 seconds =      13.10 minutes
	system time =      41.44 seconds =       0.69 minutes
	total time  =        143 seconds =       2.38 minutes
Total time:
	user time   =    1040.04 seconds =      17.33 minutes
	system time =      78.03 seconds =       1.30 minutes
	total time  =        207 seconds =       3.45 minutes

    Psi4 stopped on: Tuesday, 03 November 2020 12:38AM
    Psi4 wall time for execution: 0:03:27.56

*** Psi4 exiting successfully. Buy a developer a beer!
