
    -----------------------------------------------------------------------
          Psi4: An Open-Source Ab Initio Electronic Structure Package
                               Psi4 1.3.2 release

                         Git: Rev {HEAD} ecbda83 


    R. M. Parrish, L. A. Burns, D. G. A. Smith, A. C. Simmonett,
    A. E. DePrince III, E. G. Hohenstein, U. Bozkaya, A. Yu. Sokolov,
    R. Di Remigio, R. M. Richard, J. F. Gonthier, A. M. James,
    H. R. McAlexander, A. Kumar, M. Saitow, X. Wang, B. P. Pritchard,
    P. Verma, H. F. Schaefer III, K. Patkowski, R. A. King, E. F. Valeev,
    F. A. Evangelista, J. M. Turney, T. D. Crawford, and C. D. Sherrill,
    J. Chem. Theory Comput. 13(7) pp 3185--3197 (2017).
    (doi: 10.1021/acs.jctc.7b00174)


                         Additional Contributions by
    P. Kraus, H. Kruse, M. H. Lechner, M. C. Schieber, R. A. Shaw,
    A. Alenaizan, R. Galvelis, Z. L. Glick, S. Lehtola, and J. P. Misiewicz

    -----------------------------------------------------------------------


    Psi4 started on: Tuesday, 03 November 2020 04:43AM

    Process ID: 82292
    Host:       node58.bme.utexas.edu
    PSIDATADIR: /home/xy3866/psi4conda/share/psi4
    Memory:     500.0 MiB
    Threads:    8
    
  ==> Input File <==

--------------------------------------------------------------------------
#psi4
#
memory 32 gb

molecule  {
0 1
  O       -0.8946000     0.3180840    -0.2486650
  O        0.2608140    -1.4535000     0.5764690
  C        1.4621750     0.4213130    -0.3980820
  C        1.8082222     1.4298955     0.7024560
  C        2.6165010    -0.5169580    -0.7250520
  C        0.2447430    -0.3668820     0.0213200
  C       -2.1092640    -0.3317960     0.1925940
  C       -3.2536250     0.5656790    -0.2140850
  H        1.1927453     1.0374555    -1.2620511
  H        2.6888660     1.9907190     0.4595330
  H        2.0609350     0.8310830     1.6444090
  H        0.9859800     2.0639750     0.9510040
  H        3.4951390     0.0579210    -1.0318300
  H        2.3532220    -1.2022810    -1.5348280
  H        2.8748910    -1.1153660     0.1513080
  H       -2.1714740    -1.3192040    -0.2711440
  H       -2.0606790    -0.4764550     1.2759150
  H       -4.2047000     0.1215880     0.0924120
  H       -3.1592540     1.5451910     0.2586100
  H       -3.2661300     0.7008150    -1.2970470
units angstrom
no_reorient  #important for SAPT in psi4, default
symmetry c1  #important for SAPT in psi4, default
}

set PROPERTIES_ORIGIN ["COM"]
properties('MP2/aug-cc-pvtz', properties = ['dipole'])
--------------------------------------------------------------------------

  Memory set to  29.802 GiB by Python driver.
    SCF Algorithm Type (re)set to DF.

*** tstart() called on node58.bme.utexas.edu
*** at Tue Nov  3 04:43:59 2020

   => Loading Basis Set <=

    Name: AUG-CC-PVTZ
    Role: ORBITAL
    Keyword: BASIS
    atoms 1-2  entry O          line   327 file /home/xy3866/psi4conda/share/psi4/basis/aug-cc-pvtz.gbs 
    atoms 3-8  entry C          line   235 file /home/xy3866/psi4conda/share/psi4/basis/aug-cc-pvtz.gbs 
    atoms 9-20 entry H          line    36 file /home/xy3866/psi4conda/share/psi4/basis/aug-cc-pvtz.gbs 


         ---------------------------------------------------------
                                   SCF
               by Justin Turney, Rob Parrish, Andy Simmonett
                          and Daniel G. A. Smith
                              RHF Reference
                        8 Threads,  30517 MiB Core
         ---------------------------------------------------------

  ==> Geometry <==

    Molecular point group: c1
    Full point group: C1

    Geometry (in Angstrom), charge = 0, multiplicity = 1:

       Center              X                  Y                   Z               Mass       
    ------------   -----------------  -----------------  -----------------  -----------------
         O           -0.893595491691     0.313581043468    -0.245433615627    15.994914619570
         O            0.261818508309    -1.458002956532     0.579700384373    15.994914619570
         C            1.463179508309     0.416810043468    -0.394850615627    12.000000000000
         C            1.809226708309     1.425392543468     0.705687384373    12.000000000000
         C            2.617505508309    -0.521460956532    -0.721820615627    12.000000000000
         C            0.245747508309    -0.371384956532     0.024551384373    12.000000000000
         C           -2.108259491691    -0.336298956532     0.195825384373    12.000000000000
         C           -3.252620491691     0.561176043468    -0.210853615627    12.000000000000
         H            1.193749808309     1.032952543468    -1.258819715627     1.007825032230
         H            2.689870508309     1.986216043468     0.462764384373     1.007825032230
         H            2.061939508309     0.826580043468     1.647640384373     1.007825032230
         H            0.986984508309     2.059472043468     0.954235384373     1.007825032230
         H            3.496143508309     0.053418043468    -1.028598615627     1.007825032230
         H            2.354226508309    -1.206783956532    -1.531596615627     1.007825032230
         H            2.875895508309    -1.119868956532     0.154539384373     1.007825032230
         H           -2.170469491691    -1.323706956532    -0.267912615627     1.007825032230
         H           -2.059674491691    -0.480957956532     1.279146384373     1.007825032230
         H           -4.203695491691     0.117085043468     0.095643384373     1.007825032230
         H           -3.158249491691     1.540688043468     0.261841384373     1.007825032230
         H           -3.265125491691     0.696312043468    -1.293815615627     1.007825032230

  Running in c1 symmetry.

  Rotational constants: A =      0.13655  B =      0.03635  C =      0.03243 [cm^-1]
  Rotational constants: A =   4093.80431  B =   1089.72256  C =    972.21877 [MHz]
  Nuclear repulsion =  395.662073166430559

  Charge       = 0
  Multiplicity = 1
  Electrons    = 64
  Nalpha       = 32
  Nbeta        = 32

  ==> Algorithm <==

  SCF Algorithm Type is DF.
  DIIS enabled.
  MOM disabled.
  Fractional occupation disabled.
  Guess Type is SAD.
  Energy threshold   = 1.00e-10
  Density threshold  = 1.00e-10
  Integral threshold = 0.00e+00

  ==> Primary Basis <==

  Basis Set: AUG-CC-PVTZ
    Blend: AUG-CC-PVTZ
    Number of shells: 220
    Number of basis function: 644
    Number of Cartesian functions: 740
    Spherical Harmonics?: true
    Max angular momentum: 3

   => Loading Basis Set <=

    Name: (AUG-CC-PVTZ AUX)
    Role: JKFIT
    Keyword: DF_BASIS_SCF
    atoms 1-2  entry O          line   286 file /home/xy3866/psi4conda/share/psi4/basis/aug-cc-pvtz-jkfit.gbs 
    atoms 3-8  entry C          line   162 file /home/xy3866/psi4conda/share/psi4/basis/aug-cc-pvtz-jkfit.gbs 
    atoms 9-20 entry H          line    70 file /home/xy3866/psi4conda/share/psi4/basis/aug-cc-pvtz-jkfit.gbs 

  ==> Pre-Iterations <==

   -------------------------------------------------------
    Irrep   Nso     Nmo     Nalpha   Nbeta   Ndocc  Nsocc
   -------------------------------------------------------
     A        644     644       0       0       0       0
   -------------------------------------------------------
    Total     644     644      32      32      32       0
   -------------------------------------------------------

  ==> Integral Setup <==

  DFHelper Memory: AOs need 4.114 GiB; user supplied 22.352 GiB. Using in-core AOs.

  ==> MemDFJK: Density-Fitted J/K Matrices <==

    J tasked:                   Yes
    K tasked:                   Yes
    wK tasked:                   No
    OpenMP threads:               8
    Memory [MiB]:             22888
    Algorithm:                 Disk
    Schwarz Cutoff:           1E-12
    Mask sparsity (%):       6.6732
    Fitting Condition:        1E-10

   => Auxiliary Basis Set <=

  Basis Set: (AUG-CC-PVTZ AUX)
    Blend: AUG-CC-PVTZ-JKFIT
    Number of shells: 408
    Number of basis function: 1384
    Number of Cartesian functions: 1708
    Spherical Harmonics?: true
    Max angular momentum: 4

  Minimum eigenvalue in the overlap matrix is 2.6669794032E-06.
  Using Symmetric Orthogonalization.

  SCF Guess: Superposition of Atomic Densities via on-the-fly atomic UHF.

  ==> Iterations <==

                           Total Energy        Delta E     RMS |[F,P]|

   @DF-RHF iter SAD:  -383.08981999419456   -3.83090e+02   0.00000e+00 
   @DF-RHF iter   1:  -383.77047286467428   -6.80653e-01   1.17667e-03 DIIS
   @DF-RHF iter   2:  -384.01527265056552   -2.44800e-01   6.20109e-04 DIIS
   @DF-RHF iter   3:  -384.07722893837774   -6.19563e-02   1.32121e-04 DIIS
   @DF-RHF iter   4:  -384.08160600671988   -4.37707e-03   6.21757e-05 DIIS
   @DF-RHF iter   5:  -384.08246759483984   -8.61588e-04   1.14552e-05 DIIS
   @DF-RHF iter   6:  -384.08252038131076   -5.27865e-05   5.15129e-06 DIIS
   @DF-RHF iter   7:  -384.08253029568345   -9.91437e-06   1.94910e-06 DIIS
   @DF-RHF iter   8:  -384.08253227761884   -1.98194e-06   8.75214e-07 DIIS
   @DF-RHF iter   9:  -384.08253271366283   -4.36044e-07   2.55173e-07 DIIS
   @DF-RHF iter  10:  -384.08253275375614   -4.00933e-08   6.24840e-08 DIIS
   @DF-RHF iter  11:  -384.08253275586304   -2.10690e-09   1.63434e-08 DIIS
   @DF-RHF iter  12:  -384.08253275597895   -1.15904e-10   4.24099e-09 DIIS
   @DF-RHF iter  13:  -384.08253275598787   -8.92442e-12   1.47078e-09 DIIS
   @DF-RHF iter  14:  -384.08253275599020   -2.33058e-12   5.15396e-10 DIIS
   @DF-RHF iter  15:  -384.08253275598724    2.95586e-12   1.34143e-10 DIIS
   @DF-RHF iter  16:  -384.08253275598901   -1.76215e-12   3.75822e-11 DIIS
  Energy and wave function converged.


  ==> Post-Iterations <==

    Orbital Energies [Eh]
    ---------------------

    Doubly Occupied:                                                      

       1A    -20.599669     2A    -20.540786     3A    -11.374286  
       4A    -11.286651     5A    -11.245715     6A    -11.227371  
       7A    -11.224092     8A    -11.217938     9A     -1.450158  
      10A     -1.349275    11A     -1.094190    12A     -1.034752  
      13A     -0.940357    14A     -0.895147    15A     -0.828319  
      16A     -0.762022    17A     -0.699155    18A     -0.678157  
      19A     -0.661783    20A     -0.620207    21A     -0.595098  
      22A     -0.583882    23A     -0.556371    24A     -0.552465  
      25A     -0.537200    26A     -0.519888    27A     -0.509952  
      28A     -0.507181    29A     -0.491576    30A     -0.473695  
      31A     -0.455423    32A     -0.437560  

    Virtual:                                                              

      33A      0.028271    34A      0.031887    35A      0.036635  
      36A      0.040119    37A      0.048993    38A      0.050387  
      39A      0.051830    40A      0.060406    41A      0.066974  
      42A      0.068755    43A      0.074327    44A      0.076143  
      45A      0.102121    46A      0.104379    47A      0.116624  
      48A      0.118852    49A      0.123019    50A      0.126103  
      51A      0.126796    52A      0.130788    53A      0.135381  
      54A      0.141073    55A      0.143569    56A      0.144787  
      57A      0.147021    58A      0.154099    59A      0.159752  
      60A      0.168412    61A      0.172009    62A      0.176370  
      63A      0.180641    64A      0.186781    65A      0.198464  
      66A      0.201872    67A      0.211207    68A      0.221182  
      69A      0.223861    70A      0.235337    71A      0.239218  
      72A      0.240328    73A      0.250086    74A      0.258549  
      75A      0.260801    76A      0.272820    77A      0.283264  
      78A      0.286081    79A      0.290775    80A      0.291939  
      81A      0.297813    82A      0.302756    83A      0.312127  
      84A      0.316000    85A      0.326172    86A      0.331695  
      87A      0.332613    88A      0.334788    89A      0.340870  
      90A      0.345489    91A      0.347094    92A      0.354847  
      93A      0.361327    94A      0.366180    95A      0.367739  
      96A      0.371666    97A      0.374395    98A      0.376369  
      99A      0.388590   100A      0.389904   101A      0.393677  
     102A      0.399861   103A      0.402105   104A      0.417049  
     105A      0.419563   106A      0.423264   107A      0.425127  
     108A      0.429052   109A      0.432319   110A      0.438651  
     111A      0.444054   112A      0.445328   113A      0.451130  
     114A      0.454241   115A      0.454601   116A      0.458103  
     117A      0.464668   118A      0.467149   119A      0.473222  
     120A      0.474734   121A      0.477845   122A      0.482133  
     123A      0.486678   124A      0.491495   125A      0.499982  
     126A      0.507002   127A      0.512109   128A      0.514943  
     129A      0.519680   130A      0.523023   131A      0.527523  
     132A      0.537191   133A      0.543614   134A      0.546222  
     135A      0.547918   136A      0.557092   137A      0.559935  
     138A      0.563207   139A      0.572232   140A      0.581582  
     141A      0.589792   142A      0.596001   143A      0.597973  
     144A      0.604354   145A      0.612428   146A      0.619029  
     147A      0.627126   148A      0.633308   149A      0.643836  
     150A      0.646795   151A      0.652655   152A      0.658870  
     153A      0.663414   154A      0.671844   155A      0.677758  
     156A      0.687151   157A      0.688459   158A      0.701324  
     159A      0.722203   160A      0.743181   161A      0.750462  
     162A      0.758816   163A      0.771879   164A      0.792137  
     165A      0.794922   166A      0.796178   167A      0.810101  
     168A      0.817571   169A      0.823157   170A      0.826983  
     171A      0.829103   172A      0.842293   173A      0.844581  
     174A      0.847766   175A      0.849624   176A      0.853846  
     177A      0.865611   178A      0.871899   179A      0.879995  
     180A      0.883128   181A      0.888712   182A      0.891454  
     183A      0.905266   184A      0.905725   185A      0.914996  
     186A      0.917298   187A      0.922790   188A      0.922894  
     189A      0.931676   190A      0.935040   191A      0.937184  
     192A      0.946337   193A      0.951652   194A      0.955263  
     195A      0.956028   196A      0.963591   197A      0.975544  
     198A      0.980463   199A      0.984509   200A      0.992077  
     201A      1.004578   202A      1.006774   203A      1.012305  
     204A      1.014688   205A      1.022149   206A      1.032014  
     207A      1.037856   208A      1.046685   209A      1.050940  
     210A      1.059731   211A      1.061972   212A      1.066923  
     213A      1.073837   214A      1.087902   215A      1.093241  
     216A      1.106168   217A      1.106956   218A      1.110080  
     219A      1.118452   220A      1.126093   221A      1.131958  
     222A      1.141926   223A      1.148548   224A      1.148913  
     225A      1.154643   226A      1.166304   227A      1.171364  
     228A      1.178434   229A      1.182458   230A      1.189175  
     231A      1.194332   232A      1.202512   233A      1.211588  
     234A      1.217587   235A      1.222399   236A      1.230282  
     237A      1.231819   238A      1.249406   239A      1.253871  
     240A      1.261877   241A      1.265638   242A      1.271303  
     243A      1.275068   244A      1.282766   245A      1.289849  
     246A      1.294705   247A      1.309106   248A      1.320154  
     249A      1.334061   250A      1.337562   251A      1.355166  
     252A      1.367440   253A      1.372293   254A      1.373453  
     255A      1.383737   256A      1.386689   257A      1.392277  
     258A      1.407658   259A      1.416795   260A      1.424019  
     261A      1.434811   262A      1.443069   263A      1.449777  
     264A      1.461619   265A      1.467968   266A      1.488670  
     267A      1.499165   268A      1.506856   269A      1.515256  
     270A      1.519687   271A      1.526872   272A      1.533220  
     273A      1.541229   274A      1.549796   275A      1.566342  
     276A      1.571765   277A      1.581547   278A      1.600709  
     279A      1.604297   280A      1.604544   281A      1.618189  
     282A      1.633154   283A      1.643412   284A      1.646764  
     285A      1.657145   286A      1.662533   287A      1.669150  
     288A      1.670599   289A      1.682350   290A      1.686412  
     291A      1.691943   292A      1.701819   293A      1.704575  
     294A      1.706705   295A      1.719820   296A      1.723270  
     297A      1.726656   298A      1.731270   299A      1.734734  
     300A      1.738097   301A      1.754564   302A      1.758310  
     303A      1.770984   304A      1.772729   305A      1.778070  
     306A      1.786050   307A      1.799974   308A      1.817384  
     309A      1.819335   310A      1.832204   311A      1.837041  
     312A      1.846569   313A      1.854648   314A      1.859419  
     315A      1.865208   316A      1.884193   317A      1.890642  
     318A      1.902676   319A      1.907246   320A      1.917056  
     321A      1.925801   322A      1.932108   323A      1.951131  
     324A      1.953411   325A      1.958977   326A      1.976036  
     327A      1.977439   328A      1.980018   329A      1.988516  
     330A      1.998870   331A      2.013716   332A      2.025636  
     333A      2.038382   334A      2.063814   335A      2.068300  
     336A      2.083440   337A      2.085652   338A      2.097003  
     339A      2.099752   340A      2.118085   341A      2.128647  
     342A      2.139914   343A      2.149176   344A      2.169304  
     345A      2.189456   346A      2.198515   347A      2.207555  
     348A      2.216982   349A      2.230431   350A      2.241427  
     351A      2.251213   352A      2.254425   353A      2.263742  
     354A      2.275265   355A      2.281648   356A      2.288755  
     357A      2.298766   358A      2.304143   359A      2.311562  
     360A      2.321635   361A      2.345333   362A      2.364293  
     363A      2.364550   364A      2.386791   365A      2.394996  
     366A      2.410953   367A      2.423551   368A      2.458342  
     369A      2.477060   370A      2.486969   371A      2.501107  
     372A      2.513626   373A      2.521126   374A      2.546076  
     375A      2.562997   376A      2.583983   377A      2.619061  
     378A      2.636604   379A      2.662979   380A      2.675050  
     381A      2.681318   382A      2.695665   383A      2.710686  
     384A      2.739644   385A      2.756562   386A      2.780580  
     387A      2.791068   388A      2.817528   389A      2.846985  
     390A      2.871042   391A      2.894283   392A      2.943129  
     393A      2.964126   394A      2.980791   395A      2.987329  
     396A      3.019487   397A      3.024629   398A      3.061849  
     399A      3.102048   400A      3.111314   401A      3.131111  
     402A      3.152657   403A      3.199849   404A      3.236894  
     405A      3.264554   406A      3.267098   407A      3.324409  
     408A      3.343830   409A      3.356519   410A      3.395482  
     411A      3.409033   412A      3.429574   413A      3.437770  
     414A      3.448692   415A      3.457281   416A      3.479823  
     417A      3.486704   418A      3.490955   419A      3.509728  
     420A      3.537173   421A      3.551443   422A      3.577705  
     423A      3.594410   424A      3.616897   425A      3.619858  
     426A      3.635177   427A      3.643858   428A      3.661402  
     429A      3.670232   430A      3.684301   431A      3.692705  
     432A      3.705181   433A      3.710399   434A      3.716838  
     435A      3.720055   436A      3.732260   437A      3.743376  
     438A      3.750251   439A      3.770695   440A      3.779514  
     441A      3.794532   442A      3.802201   443A      3.807026  
     444A      3.820073   445A      3.830193   446A      3.837989  
     447A      3.863631   448A      3.866796   449A      3.876126  
     450A      3.893165   451A      3.902621   452A      3.913371  
     453A      3.913890   454A      3.928847   455A      3.932885  
     456A      3.935412   457A      3.945822   458A      3.964933  
     459A      3.978814   460A      3.981917   461A      3.993099  
     462A      4.002380   463A      4.011909   464A      4.026818  
     465A      4.031139   466A      4.041826   467A      4.066312  
     468A      4.082839   469A      4.090296   470A      4.103252  
     471A      4.118156   472A      4.147704   473A      4.156706  
     474A      4.167432   475A      4.169738   476A      4.187439  
     477A      4.198824   478A      4.206883   479A      4.221063  
     480A      4.231729   481A      4.238421   482A      4.247868  
     483A      4.254355   484A      4.271575   485A      4.291466  
     486A      4.295537   487A      4.312903   488A      4.319996  
     489A      4.340030   490A      4.355691   491A      4.368598  
     492A      4.384263   493A      4.402870   494A      4.404817  
     495A      4.420786   496A      4.448101   497A      4.461011  
     498A      4.463935   499A      4.486713   500A      4.507945  
     501A      4.511819   502A      4.529112   503A      4.547091  
     504A      4.556872   505A      4.581758   506A      4.605834  
     507A      4.608723   508A      4.623612   509A      4.632524  
     510A      4.660772   511A      4.673133   512A      4.686365  
     513A      4.703056   514A      4.707448   515A      4.723972  
     516A      4.742249   517A      4.779962   518A      4.786401  
     519A      4.815119   520A      4.836415   521A      4.847260  
     522A      4.855031   523A      4.859747   524A      4.870372  
     525A      4.880672   526A      4.884459   527A      4.895359  
     528A      4.914567   529A      4.935746   530A      4.952785  
     531A      4.975579   532A      4.982486   533A      5.006040  
     534A      5.016757   535A      5.043994   536A      5.050058  
     537A      5.077188   538A      5.083958   539A      5.106990  
     540A      5.128832   541A      5.142846   542A      5.156561  
     543A      5.166133   544A      5.174071   545A      5.186576  
     546A      5.197347   547A      5.214521   548A      5.229776  
     549A      5.233253   550A      5.250395   551A      5.256189  
     552A      5.290309   553A      5.297651   554A      5.303950  
     555A      5.334357   556A      5.340193   557A      5.383123  
     558A      5.388895   559A      5.395850   560A      5.423607  
     561A      5.426811   562A      5.444210   563A      5.448947  
     564A      5.462044   565A      5.478371   566A      5.507676  
     567A      5.533321   568A      5.545618   569A      5.582266  
     570A      5.587018   571A      5.605969   572A      5.621286  
     573A      5.647771   574A      5.656845   575A      5.723979  
     576A      5.744722   577A      5.756554   578A      5.776764  
     579A      5.795581   580A      5.806814   581A      5.814153  
     582A      5.843675   583A      5.880393   584A      5.907212  
     585A      5.947458   586A      5.977646   587A      6.006015  
     588A      6.020491   589A      6.037805   590A      6.050330  
     591A      6.135139   592A      6.150438   593A      6.165474  
     594A      6.183460   595A      6.225679   596A      6.230368  
     597A      6.252445   598A      6.284186   599A      6.291602  
     600A      6.327837   601A      6.397324   602A      6.416259  
     603A      6.482001   604A      6.658678   605A      6.713169  
     606A      6.732689   607A      6.807956   608A      6.810950  
     609A      6.824612   610A      6.849962   611A      6.865642  
     612A      6.880936   613A      6.915098   614A      6.930275  
     615A      6.965355   616A      6.995366   617A      7.095476  
     618A      7.146150   619A      7.232192   620A      7.261220  
     621A      7.296091   622A      7.347614   623A      7.454346  
     624A      7.490644   625A      7.521914   626A      7.633497  
     627A      7.654917   628A      7.705936   629A      7.762114  
     630A      7.853814   631A      7.891404   632A      7.957535  
     633A      8.005249   634A      8.113714   635A      8.402052  
     636A      8.570857   637A     15.326649   638A     16.252576  
     639A     17.607518   640A     17.978379   641A     18.217169  
     642A     18.642282   643A     19.118618   644A     20.093414  

    Final Occupation by Irrep:
              A 
    DOCC [    32 ]

  @DF-RHF Final Energy:  -384.08253275598901

   => Energetics <=

    Nuclear Repulsion Energy =            395.6620731664305595
    One-Electron Energy =               -1307.5885725885666488
    Two-Electron Energy =                 527.8439666661471392
    Total Energy =                       -384.0825327559889502

Computation Completed

*** tstop() called on node58.bme.utexas.edu at Tue Nov  3 04:45:00 2020
Module time:
	user time   =     258.95 seconds =       4.32 minutes
	system time =      33.93 seconds =       0.57 minutes
	total time  =         61 seconds =       1.02 minutes
Total time:
	user time   =     258.95 seconds =       4.32 minutes
	system time =      33.93 seconds =       0.57 minutes
	total time  =         61 seconds =       1.02 minutes
   => Loading Basis Set <=

    Name: (AUG-CC-PVTZ AUX)
    Role: RIFIT
    Keyword: DF_BASIS_MP2
    atoms 1-2  entry O          line   264 file /home/xy3866/psi4conda/share/psi4/basis/aug-cc-pvtz-ri.gbs 
    atoms 3-8  entry C          line   148 file /home/xy3866/psi4conda/share/psi4/basis/aug-cc-pvtz-ri.gbs 
    atoms 9-20 entry H          line    30 file /home/xy3866/psi4conda/share/psi4/basis/aug-cc-pvtz-ri.gbs 


*** tstart() called on node58.bme.utexas.edu
*** at Tue Nov  3 04:45:00 2020


  //>>>>>>>>>>>>>>>>>>>>>>>>>>>>>>>>>>>//
  //               DFMP2               //
  //<<<<<<<<<<<<<<<<<<<<<<<<<<<<<<<<<<<//

	 --------------------------------------------------------
	                          DF-MP2                         
	      2nd-Order Density-Fitted Moller-Plesset Theory     
	              RMP2 Wavefunction,   8 Threads             
	                                                         
	        Rob Parrish, Justin Turney, Andy Simmonett,      
	           Ed Hohenstein, and C. David Sherrill          
	 --------------------------------------------------------

   => Auxiliary Basis Set <=

  Basis Set: (AUG-CC-PVTZ AUX)
    Blend: AUG-CC-PVTZ-RI
    Number of shells: 392
    Number of basis function: 1400
    Number of Cartesian functions: 1748
    Spherical Harmonics?: true
    Max angular momentum: 4

	 --------------------------------------------------------
	                 NBF =   644, NAUX =  1400
	 --------------------------------------------------------
	   CLASS    FOCC     OCC    AOCC    AVIR     VIR    FVIR
	   PAIRS       0      32      32     612     612       0
	 --------------------------------------------------------

  DFHelper Memory: AOs need 4.114 GiB; user supplied 22.352 GiB. Using in-core AOs.


         ------------------------------------------------------------
                                     CPHF                           
                                  Rob Parrish                       
         ------------------------------------------------------------

  ==> Geometry <==

    Molecular point group: c1
    Full point group: C1

    Geometry (in Angstrom), charge = 0, multiplicity = 1:

       Center              X                  Y                   Z               Mass       
    ------------   -----------------  -----------------  -----------------  -----------------
         O           -0.893595491691     0.313581043468    -0.245433615627    15.994914619570
         O            0.261818508309    -1.458002956532     0.579700384373    15.994914619570
         C            1.463179508309     0.416810043468    -0.394850615627    12.000000000000
         C            1.809226708309     1.425392543468     0.705687384373    12.000000000000
         C            2.617505508309    -0.521460956532    -0.721820615627    12.000000000000
         C            0.245747508309    -0.371384956532     0.024551384373    12.000000000000
         C           -2.108259491691    -0.336298956532     0.195825384373    12.000000000000
         C           -3.252620491691     0.561176043468    -0.210853615627    12.000000000000
         H            1.193749808309     1.032952543468    -1.258819715627     1.007825032230
         H            2.689870508309     1.986216043468     0.462764384373     1.007825032230
         H            2.061939508309     0.826580043468     1.647640384373     1.007825032230
         H            0.986984508309     2.059472043468     0.954235384373     1.007825032230
         H            3.496143508309     0.053418043468    -1.028598615627     1.007825032230
         H            2.354226508309    -1.206783956532    -1.531596615627     1.007825032230
         H            2.875895508309    -1.119868956532     0.154539384373     1.007825032230
         H           -2.170469491691    -1.323706956532    -0.267912615627     1.007825032230
         H           -2.059674491691    -0.480957956532     1.279146384373     1.007825032230
         H           -4.203695491691     0.117085043468     0.095643384373     1.007825032230
         H           -3.158249491691     1.540688043468     0.261841384373     1.007825032230
         H           -3.265125491691     0.696312043468    -1.293815615627     1.007825032230

  Nuclear repulsion =  395.662073166430559
  Reference energy  = -384.082532755989007

  ==> Basis Set <==

  Basis Set: AUG-CC-PVTZ
    Blend: AUG-CC-PVTZ
    Number of shells: 220
    Number of basis function: 644
    Number of Cartesian functions: 740
    Spherical Harmonics?: true
    Max angular momentum: 3

  ==> CGRSolver (by Rob Parrish) <==

   Number of roots    =         1
   Preconditioning    =    JACOBI
   Convergence cutoff =     1E-06
   Maximum iterations =       100

  ==> CPHFRHamiltonian (by Rob Parrish) <== 

  ==> MemDFJK: Density-Fitted J/K Matrices <==

    J tasked:                   Yes
    K tasked:                   Yes
    wK tasked:                   No
    OpenMP threads:               8
    Memory [MiB]:             22888
    Algorithm:                 Disk
    Schwarz Cutoff:           1E-12
    Mask sparsity (%):       6.6732
    Fitting Condition:        1E-10

   => Auxiliary Basis Set <=

  Basis Set: (AUG-CC-PVTZ AUX)
    Blend: AUG-CC-PVTZ-JKFIT
    Number of shells: 408
    Number of basis function: 1384
    Number of Cartesian functions: 1708
    Spherical Harmonics?: true
    Max angular momentum: 4

  ==> CPHF Iterations <==

  => Iterations <=

             Iter  Converged  Remaining    Residual
  CGR           1          0          1   1.097E-01
  CGR           2          0          1   3.151E-02
  CGR           3          0          1   1.178E-02
  CGR           4          0          1   4.002E-03
  CGR           5          0          1   1.435E-03
  CGR           6          0          1   3.614E-04
  CGR           7          0          1   1.118E-04
  CGR           8          0          1   3.340E-05
  CGR           9          0          1   1.248E-05
  CGR          10          0          1   5.932E-06
  CGR          11          0          1   1.660E-06
  CGR          12          1          0   4.472E-07

    CGRSolver converged.

	-----------------------------------------------------------
	 ==================> DF-MP2 Energies <==================== 
	-----------------------------------------------------------
	 Reference Energy          =    -384.0825327559890070 [Eh]
	 Singles Energy            =      -0.0000000000000000 [Eh]
	 Same-Spin Energy          =      -0.3839212468306953 [Eh]
	 Opposite-Spin Energy      =      -1.2868109794752123 [Eh]
	 Correlation Energy        =      -1.6707322263059075 [Eh]
	 Total Energy              =    -385.7532649822949224 [Eh]
	-----------------------------------------------------------
	 ================> DF-SCS-MP2 Energies <================== 
	-----------------------------------------------------------
	 SCS Same-Spin Scale       =       0.3333333333333333 [-]
	 SCS Opposite-Spin Scale   =       1.2000000000000000 [-]
	 SCS Same-Spin Energy      =      -0.1279737489435651 [Eh]
	 SCS Opposite-Spin Energy  =      -1.5441731753702548 [Eh]
	 SCS Correlation Energy    =      -1.6721469243138198 [Eh]
	 SCS Total Energy          =    -385.7546796803028428 [Eh]
	-----------------------------------------------------------



Properties will be evaluated at  -0.000000,   0.000000,  -0.000000 [a0]

Properties computed using the MP2 density matrix

  Nuclear Dipole Moment: [e a0]
     X:     0.7484      Y:     3.9144      Z:    -0.4905

  Electronic Dipole Moment: [e a0]
     X:    -1.0285      Y:    -3.2827      Z:     0.2427

  Dipole Moment: [e a0]
     X:    -0.2801      Y:     0.6317      Z:    -0.2478     Total:     0.7341

  Dipole Moment: [D]
     X:    -0.7119      Y:     1.6056      Z:    -0.6298     Total:     1.8658


*** tstop() called on node58.bme.utexas.edu at Tue Nov  3 04:47:22 2020
Module time:
	user time   =     787.84 seconds =      13.13 minutes
	system time =      38.95 seconds =       0.65 minutes
	total time  =        142 seconds =       2.37 minutes
Total time:
	user time   =    1048.01 seconds =      17.47 minutes
	system time =      72.96 seconds =       1.22 minutes
	total time  =        203 seconds =       3.38 minutes

    Psi4 stopped on: Tuesday, 03 November 2020 04:47AM
    Psi4 wall time for execution: 0:03:23.62

*** Psi4 exiting successfully. Buy a developer a beer!
