
    -----------------------------------------------------------------------
          Psi4: An Open-Source Ab Initio Electronic Structure Package
                               Psi4 1.3.2 release

                         Git: Rev {HEAD} ecbda83 


    R. M. Parrish, L. A. Burns, D. G. A. Smith, A. C. Simmonett,
    A. E. DePrince III, E. G. Hohenstein, U. Bozkaya, A. Yu. Sokolov,
    R. Di Remigio, R. M. Richard, J. F. Gonthier, A. M. James,
    H. R. McAlexander, A. Kumar, M. Saitow, X. Wang, B. P. Pritchard,
    P. Verma, H. F. Schaefer III, K. Patkowski, R. A. King, E. F. Valeev,
    F. A. Evangelista, J. M. Turney, T. D. Crawford, and C. D. Sherrill,
    J. Chem. Theory Comput. 13(7) pp 3185--3197 (2017).
    (doi: 10.1021/acs.jctc.7b00174)


                         Additional Contributions by
    P. Kraus, H. Kruse, M. H. Lechner, M. C. Schieber, R. A. Shaw,
    A. Alenaizan, R. Galvelis, Z. L. Glick, S. Lehtola, and J. P. Misiewicz

    -----------------------------------------------------------------------


    Psi4 started on: Tuesday, 03 November 2020 02:32AM

    Process ID: 69368
    Host:       node58.bme.utexas.edu
    PSIDATADIR: /home/xy3866/psi4conda/share/psi4
    Memory:     500.0 MiB
    Threads:    8
    
  ==> Input File <==

--------------------------------------------------------------------------
#psi4
#
memory 32 gb

molecule  {
0 1
  O       -0.8946000     0.3180840    -0.2486650
  O        0.2608140    -1.4535000     0.5764690
  C        1.4621750     0.4213130    -0.3980820
  C        1.8184670     1.3890190     0.7353960
  C        2.6165010    -0.5169580    -0.7250520
  C        0.2447430    -0.3668820     0.0213200
  C       -2.2772052    -0.4216494     0.2536031
  C       -3.2536250     0.5656790    -0.2140850
  H        1.1864410     1.0054960    -1.2820320
  H        2.6888660     1.9907190     0.4595330
  H        2.0609350     0.8310830     1.6444090
  H        0.9859800     2.0639750     0.9510040
  H        3.4951390     0.0579210    -1.0318300
  H        2.3532220    -1.2022810    -1.5348280
  H        2.8748910    -1.1153660     0.1513080
  H       -2.1714740    -1.3192040    -0.2711440
  H       -2.0606790    -0.4764550     1.2759150
  H       -4.2047000     0.1215880     0.0924120
  H       -3.1592540     1.5451910     0.2586100
  H       -3.2661300     0.7008150    -1.2970470
units angstrom
no_reorient  #important for SAPT in psi4, default
symmetry c1  #important for SAPT in psi4, default
}

set PROPERTIES_ORIGIN ["COM"]
properties('MP2/aug-cc-pvtz', properties = ['dipole'])
--------------------------------------------------------------------------

  Memory set to  29.802 GiB by Python driver.
    SCF Algorithm Type (re)set to DF.

*** tstart() called on node58.bme.utexas.edu
*** at Tue Nov  3 02:32:13 2020

   => Loading Basis Set <=

    Name: AUG-CC-PVTZ
    Role: ORBITAL
    Keyword: BASIS
    atoms 1-2  entry O          line   327 file /home/xy3866/psi4conda/share/psi4/basis/aug-cc-pvtz.gbs 
    atoms 3-8  entry C          line   235 file /home/xy3866/psi4conda/share/psi4/basis/aug-cc-pvtz.gbs 
    atoms 9-20 entry H          line    36 file /home/xy3866/psi4conda/share/psi4/basis/aug-cc-pvtz.gbs 


         ---------------------------------------------------------
                                   SCF
               by Justin Turney, Rob Parrish, Andy Simmonett
                          and Daniel G. A. Smith
                              RHF Reference
                        8 Threads,  30517 MiB Core
         ---------------------------------------------------------

  ==> Geometry <==

    Molecular point group: c1
    Full point group: C1

    Geometry (in Angstrom), charge = 0, multiplicity = 1:

       Center              X                  Y                   Z               Mass       
    ------------   -----------------  -----------------  -----------------  -----------------
         O           -0.877239104474     0.327372540255    -0.254972006169    15.994914619570
         O            0.278174895526    -1.444211459745     0.570161993831    15.994914619570
         C            1.479535895526     0.430601540255    -0.404389006169    12.000000000000
         C            1.835827895526     1.398307540255     0.729088993831    12.000000000000
         C            2.633861895526    -0.507669459745    -0.731359006169    12.000000000000
         C            0.262103895526    -0.357593459745     0.015012993831    12.000000000000
         C           -2.259844304474    -0.412360859745     0.247296093831    12.000000000000
         C           -3.236264104474     0.574967540255    -0.220392006169    12.000000000000
         H            1.203801895526     1.014784540255    -1.288339006169     1.007825032230
         H            2.706226895526     2.000007540255     0.453225993831     1.007825032230
         H            2.078295895526     0.840371540255     1.638101993831     1.007825032230
         H            1.003340895526     2.073263540255     0.944696993831     1.007825032230
         H            3.512499895526     0.067209540255    -1.038137006169     1.007825032230
         H            2.370582895526    -1.192992459745    -1.541135006169     1.007825032230
         H            2.892251895526    -1.106077459745     0.145000993831     1.007825032230
         H           -2.154113104474    -1.309915459745    -0.277451006169     1.007825032230
         H           -2.043318104474    -0.467166459745     1.269607993831     1.007825032230
         H           -4.187339104474     0.130876540255     0.086104993831     1.007825032230
         H           -3.141893104474     1.554479540255     0.252302993831     1.007825032230
         H           -3.248769104474     0.710103540255    -1.303354006169     1.007825032230

  Running in c1 symmetry.

  Rotational constants: A =      0.13625  B =      0.03557  C =      0.03190 [cm^-1]
  Rotational constants: A =   4084.71835  B =   1066.33861  C =    956.35035 [MHz]
  Nuclear repulsion =  392.757568788008598

  Charge       = 0
  Multiplicity = 1
  Electrons    = 64
  Nalpha       = 32
  Nbeta        = 32

  ==> Algorithm <==

  SCF Algorithm Type is DF.
  DIIS enabled.
  MOM disabled.
  Fractional occupation disabled.
  Guess Type is SAD.
  Energy threshold   = 1.00e-10
  Density threshold  = 1.00e-10
  Integral threshold = 0.00e+00

  ==> Primary Basis <==

  Basis Set: AUG-CC-PVTZ
    Blend: AUG-CC-PVTZ
    Number of shells: 220
    Number of basis function: 644
    Number of Cartesian functions: 740
    Spherical Harmonics?: true
    Max angular momentum: 3

   => Loading Basis Set <=

    Name: (AUG-CC-PVTZ AUX)
    Role: JKFIT
    Keyword: DF_BASIS_SCF
    atoms 1-2  entry O          line   286 file /home/xy3866/psi4conda/share/psi4/basis/aug-cc-pvtz-jkfit.gbs 
    atoms 3-8  entry C          line   162 file /home/xy3866/psi4conda/share/psi4/basis/aug-cc-pvtz-jkfit.gbs 
    atoms 9-20 entry H          line    70 file /home/xy3866/psi4conda/share/psi4/basis/aug-cc-pvtz-jkfit.gbs 

  ==> Pre-Iterations <==

   -------------------------------------------------------
    Irrep   Nso     Nmo     Nalpha   Nbeta   Ndocc  Nsocc
   -------------------------------------------------------
     A        644     644       0       0       0       0
   -------------------------------------------------------
    Total     644     644      32      32      32       0
   -------------------------------------------------------

  ==> Integral Setup <==

  DFHelper Memory: AOs need 4.110 GiB; user supplied 22.352 GiB. Using in-core AOs.

  ==> MemDFJK: Density-Fitted J/K Matrices <==

    J tasked:                   Yes
    K tasked:                   Yes
    wK tasked:                   No
    OpenMP threads:               8
    Memory [MiB]:             22888
    Algorithm:                 Disk
    Schwarz Cutoff:           1E-12
    Mask sparsity (%):       6.7619
    Fitting Condition:        1E-10

   => Auxiliary Basis Set <=

  Basis Set: (AUG-CC-PVTZ AUX)
    Blend: AUG-CC-PVTZ-JKFIT
    Number of shells: 408
    Number of basis function: 1384
    Number of Cartesian functions: 1708
    Spherical Harmonics?: true
    Max angular momentum: 4

  Minimum eigenvalue in the overlap matrix is 2.7500470086E-06.
  Using Symmetric Orthogonalization.

  SCF Guess: Superposition of Atomic Densities via on-the-fly atomic UHF.

  ==> Iterations <==

                           Total Energy        Delta E     RMS |[F,P]|

   @DF-RHF iter SAD:  -382.90899692219074   -3.82909e+02   0.00000e+00 
   @DF-RHF iter   1:  -383.74358855474668   -8.34592e-01   1.18087e-03 DIIS
   @DF-RHF iter   2:  -383.99101822490189   -2.47430e-01   6.19761e-04 DIIS
   @DF-RHF iter   3:  -384.05279023940898   -6.17720e-02   1.27573e-04 DIIS
   @DF-RHF iter   4:  -384.05704262229403   -4.25238e-03   5.99190e-05 DIIS
   @DF-RHF iter   5:  -384.05783289212752   -7.90270e-04   1.20475e-05 DIIS
   @DF-RHF iter   6:  -384.05788290772608   -5.00156e-05   5.77265e-06 DIIS
   @DF-RHF iter   7:  -384.05789290127484   -9.99355e-06   1.90263e-06 DIIS
   @DF-RHF iter   8:  -384.05789469601365   -1.79474e-06   8.66898e-07 DIIS
   @DF-RHF iter   9:  -384.05789512461592   -4.28602e-07   2.57816e-07 DIIS
   @DF-RHF iter  10:  -384.05789516944014   -4.48242e-08   7.03177e-08 DIIS
   @DF-RHF iter  11:  -384.05789517248968   -3.04954e-09   2.06066e-08 DIIS
   @DF-RHF iter  12:  -384.05789517270927   -2.19586e-10   6.51680e-09 DIIS
   @DF-RHF iter  13:  -384.05789517273007   -2.08047e-11   2.27751e-09 DIIS
   @DF-RHF iter  14:  -384.05789517273246   -2.38742e-12   7.90449e-10 DIIS
   @DF-RHF iter  15:  -384.05789517273342   -9.66338e-13   2.13618e-10 DIIS
   @DF-RHF iter  16:  -384.05789517273257    8.52651e-13   6.56628e-11 DIIS
  Energy and wave function converged.


  ==> Post-Iterations <==

    Orbital Energies [Eh]
    ---------------------

    Doubly Occupied:                                                      

       1A    -20.573495     2A    -20.526680     3A    -11.359146  
       4A    -11.299849     5A    -11.236729     6A    -11.233507  
       7A    -11.220803     8A    -11.210896     9A     -1.414401  
      10A     -1.317485    11A     -1.086125    12A     -1.054037  
      13A     -0.932808    14A     -0.883679    15A     -0.838715  
      16A     -0.735322    17A     -0.685140    18A     -0.678036  
      19A     -0.644322    20A     -0.614329    21A     -0.590634  
      22A     -0.588045    23A     -0.550427    24A     -0.546881  
      25A     -0.540813    26A     -0.533948    27A     -0.521397  
      28A     -0.489144    29A     -0.479322    30A     -0.469761  
      31A     -0.446734    32A     -0.421326  

    Virtual:                                                              

      33A      0.027325    34A      0.032586    35A      0.037104  
      36A      0.040172    37A      0.049077    38A      0.050465  
      39A      0.051860    40A      0.059841    41A      0.067408  
      42A      0.069102    43A      0.074324    44A      0.075762  
      45A      0.098491    46A      0.104033    47A      0.117598  
      48A      0.120661    49A      0.124511    50A      0.125851  
      51A      0.126965    52A      0.131326    53A      0.135304  
      54A      0.140825    55A      0.144903    56A      0.145407  
      57A      0.147408    58A      0.155058    59A      0.161616  
      60A      0.169512    61A      0.172595    62A      0.178143  
      63A      0.183732    64A      0.188344    65A      0.193713  
      66A      0.195988    67A      0.200362    68A      0.215679  
      69A      0.223417    70A      0.233594    71A      0.236480  
      72A      0.239832    73A      0.248244    74A      0.254758  
      75A      0.264415    76A      0.268882    77A      0.281678  
      78A      0.282359    79A      0.290888    80A      0.293914  
      81A      0.296873    82A      0.302249    83A      0.312166  
      84A      0.317882    85A      0.322534    86A      0.329484  
      87A      0.331602    88A      0.335543    89A      0.338441  
      90A      0.344871    91A      0.346924    92A      0.353674  
      93A      0.356557    94A      0.367479    95A      0.369562  
      96A      0.373219    97A      0.375036    98A      0.376984  
      99A      0.385888   100A      0.391590   101A      0.393864  
     102A      0.398577   103A      0.401283   104A      0.405578  
     105A      0.418940   106A      0.423431   107A      0.423654  
     108A      0.428423   109A      0.431708   110A      0.435989  
     111A      0.440648   112A      0.445450   113A      0.450549  
     114A      0.453009   115A      0.453689   116A      0.458978  
     117A      0.462536   118A      0.468286   119A      0.475490  
     120A      0.477799   121A      0.479111   122A      0.483769  
     123A      0.488019   124A      0.490301   125A      0.502976  
     126A      0.506598   127A      0.513242   128A      0.518142  
     129A      0.521317   130A      0.526115   131A      0.529773  
     132A      0.532437   133A      0.542530   134A      0.545277  
     135A      0.551953   136A      0.555429   137A      0.562631  
     138A      0.569952   139A      0.574109   140A      0.585720  
     141A      0.591341   142A      0.595893   143A      0.600067  
     144A      0.611474   145A      0.615027   146A      0.618257  
     147A      0.621416   148A      0.632457   149A      0.635286  
     150A      0.646372   151A      0.649543   152A      0.660327  
     153A      0.663908   154A      0.672952   155A      0.674489  
     156A      0.689649   157A      0.692052   158A      0.706970  
     159A      0.716858   160A      0.741213   161A      0.742437  
     162A      0.750523   163A      0.767043   164A      0.783454  
     165A      0.794490   166A      0.798838   167A      0.812725  
     168A      0.819229   169A      0.822686   170A      0.826933  
     171A      0.831833   172A      0.838049   173A      0.847036  
     174A      0.849475   175A      0.851524   176A      0.859748  
     177A      0.862011   178A      0.874918   179A      0.882294  
     180A      0.884328   181A      0.891344   182A      0.893877  
     183A      0.898638   184A      0.910377   185A      0.912799  
     186A      0.917444   187A      0.922123   188A      0.928086  
     189A      0.932169   190A      0.935116   191A      0.937440  
     192A      0.944658   193A      0.949592   194A      0.954042  
     195A      0.956255   196A      0.960273   197A      0.971898  
     198A      0.976744   199A      0.983558   200A      0.986971  
     201A      0.995801   202A      1.007271   203A      1.015277  
     204A      1.017808   205A      1.020183   206A      1.036286  
     207A      1.040182   208A      1.048080   209A      1.050644  
     210A      1.059708   211A      1.065918   212A      1.070607  
     213A      1.079013   214A      1.087751   215A      1.092492  
     216A      1.101737   217A      1.110531   218A      1.113448  
     219A      1.116223   220A      1.122418   221A      1.129171  
     222A      1.134827   223A      1.142422   224A      1.153150  
     225A      1.158640   226A      1.166797   227A      1.176689  
     228A      1.181286   229A      1.184276   230A      1.190310  
     231A      1.202187   232A      1.207143   233A      1.210898  
     234A      1.220032   235A      1.222744   236A      1.230498  
     237A      1.234987   238A      1.250954   239A      1.254046  
     240A      1.257461   241A      1.269471   242A      1.272030  
     243A      1.273584   244A      1.280631   245A      1.284085  
     246A      1.293448   247A      1.301799   248A      1.315494  
     249A      1.332085   250A      1.333027   251A      1.349667  
     252A      1.363829   253A      1.368607   254A      1.372844  
     255A      1.379249   256A      1.390090   257A      1.395931  
     258A      1.408791   259A      1.420945   260A      1.423907  
     261A      1.437371   262A      1.445589   263A      1.453888  
     264A      1.466703   265A      1.468437   266A      1.492638  
     267A      1.501569   268A      1.506023   269A      1.508506  
     270A      1.524466   271A      1.534291   272A      1.539666  
     273A      1.543147   274A      1.558897   275A      1.563019  
     276A      1.572064   277A      1.582317   278A      1.594242  
     279A      1.601799   280A      1.609726   281A      1.617842  
     282A      1.627413   283A      1.635581   284A      1.642625  
     285A      1.648693   286A      1.653915   287A      1.656232  
     288A      1.669596   289A      1.678466   290A      1.689789  
     291A      1.691902   292A      1.695538   293A      1.701259  
     294A      1.709006   295A      1.715173   296A      1.720793  
     297A      1.728332   298A      1.729473   299A      1.737703  
     300A      1.744526   301A      1.750752   302A      1.761563  
     303A      1.762793   304A      1.775340   305A      1.781175  
     306A      1.785596   307A      1.801508   308A      1.806653  
     309A      1.811463   310A      1.836560   311A      1.843071  
     312A      1.849765   313A      1.859041   314A      1.862765  
     315A      1.870839   316A      1.879175   317A      1.890724  
     318A      1.902272   319A      1.908036   320A      1.917767  
     321A      1.933310   322A      1.935403   323A      1.948231  
     324A      1.957100   325A      1.969540   326A      1.976304  
     327A      1.979483   328A      1.988050   329A      1.991089  
     330A      1.997992   331A      2.012478   332A      2.020345  
     333A      2.036897   334A      2.052265   335A      2.068490  
     336A      2.075042   337A      2.084874   338A      2.095097  
     339A      2.100800   340A      2.110803   341A      2.118003  
     342A      2.137913   343A      2.155654   344A      2.170338  
     345A      2.194390   346A      2.199974   347A      2.215396  
     348A      2.216839   349A      2.231415   350A      2.243040  
     351A      2.250765   352A      2.259291   353A      2.266826  
     354A      2.277045   355A      2.288599   356A      2.292277  
     357A      2.295155   358A      2.311199   359A      2.322588  
     360A      2.326111   361A      2.345864   362A      2.348631  
     363A      2.369520   364A      2.391884   365A      2.399839  
     366A      2.410275   367A      2.429071   368A      2.445531  
     369A      2.468753   370A      2.478179   371A      2.493785  
     372A      2.509894   373A      2.528776   374A      2.537846  
     375A      2.559943   376A      2.571121   377A      2.602797  
     378A      2.624630   379A      2.637983   380A      2.662084  
     381A      2.680050   382A      2.695256   383A      2.712815  
     384A      2.743457   385A      2.763556   386A      2.793231  
     387A      2.806167   388A      2.814499   389A      2.842522  
     390A      2.875578   391A      2.897954   392A      2.916388  
     393A      2.932306   394A      2.956325   395A      2.972275  
     396A      2.991795   397A      3.028174   398A      3.054570  
     399A      3.060768   400A      3.105728   401A      3.125296  
     402A      3.136585   403A      3.179885   404A      3.208389  
     405A      3.252316   406A      3.266933   407A      3.286407  
     408A      3.313468   409A      3.331216   410A      3.356667  
     411A      3.364713   412A      3.388402   413A      3.424367  
     414A      3.440466   415A      3.461870   416A      3.473502  
     417A      3.502529   418A      3.507095   419A      3.510618  
     420A      3.538645   421A      3.556212   422A      3.562388  
     423A      3.587075   424A      3.602740   425A      3.616592  
     426A      3.627851   427A      3.640131   428A      3.644653  
     429A      3.658659   430A      3.672276   431A      3.685760  
     432A      3.695701   433A      3.705103   434A      3.706820  
     435A      3.707878   436A      3.720764   437A      3.739413  
     438A      3.746828   439A      3.753545   440A      3.767996  
     441A      3.789949   442A      3.798006   443A      3.803235  
     444A      3.812308   445A      3.813550   446A      3.825000  
     447A      3.835114   448A      3.852747   449A      3.864862  
     450A      3.890952   451A      3.902540   452A      3.907512  
     453A      3.914686   454A      3.923490   455A      3.934929  
     456A      3.938051   457A      3.951218   458A      3.969923  
     459A      3.979664   460A      3.986563   461A      3.999847  
     462A      4.006011   463A      4.013250   464A      4.021995  
     465A      4.042707   466A      4.063585   467A      4.065843  
     468A      4.071393   469A      4.073726   470A      4.103724  
     471A      4.114715   472A      4.123277   473A      4.131341  
     474A      4.152717   475A      4.172950   476A      4.175756  
     477A      4.189395   478A      4.204092   479A      4.218459  
     480A      4.229396   481A      4.242841   482A      4.248661  
     483A      4.251641   484A      4.262110   485A      4.277335  
     486A      4.290438   487A      4.312459   488A      4.313503  
     489A      4.341058   490A      4.343949   491A      4.363469  
     492A      4.375801   493A      4.398727   494A      4.408727  
     495A      4.425425   496A      4.447974   497A      4.457645  
     498A      4.465024   499A      4.489324   500A      4.492494  
     501A      4.517046   502A      4.530016   503A      4.547371  
     504A      4.558308   505A      4.587856   506A      4.597171  
     507A      4.623254   508A      4.632298   509A      4.655904  
     510A      4.657791   511A      4.676577   512A      4.684127  
     513A      4.707067   514A      4.713345   515A      4.731813  
     516A      4.754165   517A      4.772992   518A      4.792160  
     519A      4.818437   520A      4.832712   521A      4.839522  
     522A      4.850896   523A      4.855949   524A      4.878854  
     525A      4.883396   526A      4.897710   527A      4.908684  
     528A      4.924442   529A      4.939524   530A      4.944358  
     531A      4.958335   532A      4.976906   533A      5.003171  
     534A      5.023246   535A      5.044350   536A      5.052343  
     537A      5.077587   538A      5.115686   539A      5.127412  
     540A      5.130303   541A      5.138851   542A      5.154246  
     543A      5.165121   544A      5.190824   545A      5.193933  
     546A      5.209034   547A      5.215692   548A      5.231217  
     549A      5.239417   550A      5.251161   551A      5.262831  
     552A      5.280838   553A      5.292686   554A      5.304235  
     555A      5.315761   556A      5.358840   557A      5.371668  
     558A      5.378189   559A      5.403334   560A      5.410934  
     561A      5.435549   562A      5.448205   563A      5.481158  
     564A      5.498322   565A      5.505521   566A      5.521381  
     567A      5.529450   568A      5.557313   569A      5.579745  
     570A      5.606879   571A      5.626002   572A      5.638577  
     573A      5.646511   574A      5.660222   575A      5.695387  
     576A      5.709166   577A      5.739521   578A      5.780480  
     579A      5.798435   580A      5.812671   581A      5.848972  
     582A      5.869654   583A      5.896326   584A      5.921632  
     585A      5.957051   586A      5.972328   587A      5.995334  
     588A      6.031916   589A      6.061077   590A      6.078194  
     591A      6.127591   592A      6.134760   593A      6.196301  
     594A      6.226638   595A      6.244047   596A      6.255927  
     597A      6.282683   598A      6.304572   599A      6.314559  
     600A      6.363212   601A      6.401332   602A      6.423968  
     603A      6.547164   604A      6.658117   605A      6.717147  
     606A      6.732236   607A      6.792938   608A      6.812105  
     609A      6.827101   610A      6.840292   611A      6.863083  
     612A      6.882094   613A      6.922881   614A      6.927668  
     615A      6.971258   616A      7.020930   617A      7.086169  
     618A      7.123330   619A      7.222353   620A      7.258344  
     621A      7.288476   622A      7.323320   623A      7.453422  
     624A      7.498351   625A      7.526995   626A      7.559426  
     627A      7.634479   628A      7.648513   629A      7.770806  
     630A      7.805930   631A      7.882969   632A      7.912993  
     633A      8.013099   634A      8.106509   635A      8.311079  
     636A      8.489558   637A     15.029820   638A     16.129857  
     639A     17.535228   640A     17.995053   641A     18.154426  
     642A     19.118383   643A     19.378516   644A     20.134430  

    Final Occupation by Irrep:
              A 
    DOCC [    32 ]

  @DF-RHF Final Energy:  -384.05789517273257

   => Energetics <=

    Nuclear Repulsion Energy =            392.7575687880085979
    One-Electron Energy =               -1302.1830576814327287
    Two-Electron Energy =                 525.3675937206916160
    Total Energy =                       -384.0578951727325148

Computation Completed

*** tstop() called on node58.bme.utexas.edu at Tue Nov  3 02:33:13 2020
Module time:
	user time   =     251.45 seconds =       4.19 minutes
	system time =      33.32 seconds =       0.56 minutes
	total time  =         60 seconds =       1.00 minutes
Total time:
	user time   =     251.45 seconds =       4.19 minutes
	system time =      33.32 seconds =       0.56 minutes
	total time  =         60 seconds =       1.00 minutes
   => Loading Basis Set <=

    Name: (AUG-CC-PVTZ AUX)
    Role: RIFIT
    Keyword: DF_BASIS_MP2
    atoms 1-2  entry O          line   264 file /home/xy3866/psi4conda/share/psi4/basis/aug-cc-pvtz-ri.gbs 
    atoms 3-8  entry C          line   148 file /home/xy3866/psi4conda/share/psi4/basis/aug-cc-pvtz-ri.gbs 
    atoms 9-20 entry H          line    30 file /home/xy3866/psi4conda/share/psi4/basis/aug-cc-pvtz-ri.gbs 


*** tstart() called on node58.bme.utexas.edu
*** at Tue Nov  3 02:33:13 2020


  //>>>>>>>>>>>>>>>>>>>>>>>>>>>>>>>>>>>//
  //               DFMP2               //
  //<<<<<<<<<<<<<<<<<<<<<<<<<<<<<<<<<<<//

	 --------------------------------------------------------
	                          DF-MP2                         
	      2nd-Order Density-Fitted Moller-Plesset Theory     
	              RMP2 Wavefunction,   8 Threads             
	                                                         
	        Rob Parrish, Justin Turney, Andy Simmonett,      
	           Ed Hohenstein, and C. David Sherrill          
	 --------------------------------------------------------

   => Auxiliary Basis Set <=

  Basis Set: (AUG-CC-PVTZ AUX)
    Blend: AUG-CC-PVTZ-RI
    Number of shells: 392
    Number of basis function: 1400
    Number of Cartesian functions: 1748
    Spherical Harmonics?: true
    Max angular momentum: 4

	 --------------------------------------------------------
	                 NBF =   644, NAUX =  1400
	 --------------------------------------------------------
	   CLASS    FOCC     OCC    AOCC    AVIR     VIR    FVIR
	   PAIRS       0      32      32     612     612       0
	 --------------------------------------------------------

  DFHelper Memory: AOs need 4.110 GiB; user supplied 22.352 GiB. Using in-core AOs.


         ------------------------------------------------------------
                                     CPHF                           
                                  Rob Parrish                       
         ------------------------------------------------------------

  ==> Geometry <==

    Molecular point group: c1
    Full point group: C1

    Geometry (in Angstrom), charge = 0, multiplicity = 1:

       Center              X                  Y                   Z               Mass       
    ------------   -----------------  -----------------  -----------------  -----------------
         O           -0.877239104474     0.327372540255    -0.254972006169    15.994914619570
         O            0.278174895526    -1.444211459745     0.570161993831    15.994914619570
         C            1.479535895526     0.430601540255    -0.404389006169    12.000000000000
         C            1.835827895526     1.398307540255     0.729088993831    12.000000000000
         C            2.633861895526    -0.507669459745    -0.731359006169    12.000000000000
         C            0.262103895526    -0.357593459745     0.015012993831    12.000000000000
         C           -2.259844304474    -0.412360859745     0.247296093831    12.000000000000
         C           -3.236264104474     0.574967540255    -0.220392006169    12.000000000000
         H            1.203801895526     1.014784540255    -1.288339006169     1.007825032230
         H            2.706226895526     2.000007540255     0.453225993831     1.007825032230
         H            2.078295895526     0.840371540255     1.638101993831     1.007825032230
         H            1.003340895526     2.073263540255     0.944696993831     1.007825032230
         H            3.512499895526     0.067209540255    -1.038137006169     1.007825032230
         H            2.370582895526    -1.192992459745    -1.541135006169     1.007825032230
         H            2.892251895526    -1.106077459745     0.145000993831     1.007825032230
         H           -2.154113104474    -1.309915459745    -0.277451006169     1.007825032230
         H           -2.043318104474    -0.467166459745     1.269607993831     1.007825032230
         H           -4.187339104474     0.130876540255     0.086104993831     1.007825032230
         H           -3.141893104474     1.554479540255     0.252302993831     1.007825032230
         H           -3.248769104474     0.710103540255    -1.303354006169     1.007825032230

  Nuclear repulsion =  392.757568788008598
  Reference energy  = -384.057895172732572

  ==> Basis Set <==

  Basis Set: AUG-CC-PVTZ
    Blend: AUG-CC-PVTZ
    Number of shells: 220
    Number of basis function: 644
    Number of Cartesian functions: 740
    Spherical Harmonics?: true
    Max angular momentum: 3

  ==> CGRSolver (by Rob Parrish) <==

   Number of roots    =         1
   Preconditioning    =    JACOBI
   Convergence cutoff =     1E-06
   Maximum iterations =       100

  ==> CPHFRHamiltonian (by Rob Parrish) <== 

  ==> MemDFJK: Density-Fitted J/K Matrices <==

    J tasked:                   Yes
    K tasked:                   Yes
    wK tasked:                   No
    OpenMP threads:               8
    Memory [MiB]:             22888
    Algorithm:                 Disk
    Schwarz Cutoff:           1E-12
    Mask sparsity (%):       6.7619
    Fitting Condition:        1E-10

   => Auxiliary Basis Set <=

  Basis Set: (AUG-CC-PVTZ AUX)
    Blend: AUG-CC-PVTZ-JKFIT
    Number of shells: 408
    Number of basis function: 1384
    Number of Cartesian functions: 1708
    Spherical Harmonics?: true
    Max angular momentum: 4

  ==> CPHF Iterations <==

  => Iterations <=

             Iter  Converged  Remaining    Residual
  CGR           1          0          1   1.164E-01
  CGR           2          0          1   3.141E-02
  CGR           3          0          1   1.186E-02
  CGR           4          0          1   3.351E-03
  CGR           5          0          1   1.406E-03
  CGR           6          0          1   4.353E-04
  CGR           7          0          1   1.421E-04
  CGR           8          0          1   5.099E-05
  CGR           9          0          1   1.858E-05
  CGR          10          0          1   6.741E-06
  CGR          11          0          1   1.746E-06
  CGR          12          1          0   5.918E-07

    CGRSolver converged.

	-----------------------------------------------------------
	 ==================> DF-MP2 Energies <==================== 
	-----------------------------------------------------------
	 Reference Energy          =    -384.0578951727325716 [Eh]
	 Singles Energy            =      -0.0000000000000000 [Eh]
	 Same-Spin Energy          =      -0.3851942883791943 [Eh]
	 Opposite-Spin Energy      =      -1.2901428902375358 [Eh]
	 Correlation Energy        =      -1.6753371786167301 [Eh]
	 Total Energy              =    -385.7332323513493293 [Eh]
	-----------------------------------------------------------
	 ================> DF-SCS-MP2 Energies <================== 
	-----------------------------------------------------------
	 SCS Same-Spin Scale       =       0.3333333333333333 [-]
	 SCS Opposite-Spin Scale   =       1.2000000000000000 [-]
	 SCS Same-Spin Energy      =      -0.1283980961263981 [Eh]
	 SCS Opposite-Spin Energy  =      -1.5481714682850429 [Eh]
	 SCS Correlation Energy    =      -1.6765695644114409 [Eh]
	 SCS Total Energy          =    -385.7344647371440374 [Eh]
	-----------------------------------------------------------



Properties will be evaluated at  -0.000000,   0.000000,   0.000000 [a0]

Properties computed using the MP2 density matrix

  Nuclear Dipole Moment: [e a0]
     X:     0.9267      Y:     4.0398      Z:    -0.6166

  Electronic Dipole Moment: [e a0]
     X:    -1.5391      Y:    -3.4429      Z:     0.4117

  Dipole Moment: [e a0]
     X:    -0.6125      Y:     0.5968      Z:    -0.2049     Total:     0.8794

  Dipole Moment: [D]
     X:    -1.5567      Y:     1.5170      Z:    -0.5208     Total:     2.2351


*** tstop() called on node58.bme.utexas.edu at Tue Nov  3 02:35:30 2020
Module time:
	user time   =     776.05 seconds =      12.93 minutes
	system time =      39.31 seconds =       0.66 minutes
	total time  =        137 seconds =       2.28 minutes
Total time:
	user time   =    1028.78 seconds =      17.15 minutes
	system time =      72.69 seconds =       1.21 minutes
	total time  =        197 seconds =       3.28 minutes

    Psi4 stopped on: Tuesday, 03 November 2020 02:35AM
    Psi4 wall time for execution: 0:03:17.19

*** Psi4 exiting successfully. Buy a developer a beer!
