
    -----------------------------------------------------------------------
          Psi4: An Open-Source Ab Initio Electronic Structure Package
                               Psi4 1.3.2 release

                         Git: Rev {HEAD} ecbda83 


    R. M. Parrish, L. A. Burns, D. G. A. Smith, A. C. Simmonett,
    A. E. DePrince III, E. G. Hohenstein, U. Bozkaya, A. Yu. Sokolov,
    R. Di Remigio, R. M. Richard, J. F. Gonthier, A. M. James,
    H. R. McAlexander, A. Kumar, M. Saitow, X. Wang, B. P. Pritchard,
    P. Verma, H. F. Schaefer III, K. Patkowski, R. A. King, E. F. Valeev,
    F. A. Evangelista, J. M. Turney, T. D. Crawford, and C. D. Sherrill,
    J. Chem. Theory Comput. 13(7) pp 3185--3197 (2017).
    (doi: 10.1021/acs.jctc.7b00174)


                         Additional Contributions by
    P. Kraus, H. Kruse, M. H. Lechner, M. C. Schieber, R. A. Shaw,
    A. Alenaizan, R. Galvelis, Z. L. Glick, S. Lehtola, and J. P. Misiewicz

    -----------------------------------------------------------------------


    Psi4 started on: Wednesday, 04 November 2020 05:42PM

    Process ID: 88025
    Host:       node35.bme.utexas.edu
    PSIDATADIR: /home/xy3866/psi4conda/share/psi4
    Memory:     500.0 MiB
    Threads:    8
    
  ==> Input File <==

--------------------------------------------------------------------------
#psi4
#
memory 32 gb

molecule  {
0 1
  N        1.9514160     0.5241040     0.0000050
  C        1.2282460    -0.6072470    -0.0000030
  C       -0.1789070    -0.5171830    -0.0000110
  C       -0.7103380     0.7755800     0.0000000
  N        0.0120446     1.9087645     0.0000059
  C        1.2911430     1.7045360     0.0000120
  N       -1.1651470    -1.4838950    -0.0000170
  C       -2.2855240    -0.7743080     0.0000440
  N       -2.0747130     0.5813540    -0.0000230
  N        1.8664710    -1.8000490    -0.0000060
  H        1.9266830     2.5875900     0.0000020
  H       -3.2831410    -1.1955370     0.0000680
  H       -2.7752520     1.3134440    -0.0000840
  H        2.8756040    -1.8180060     0.0000090
  H        1.3377970    -2.6593590     0.0000020
units angstrom
no_reorient  #important for SAPT in psi4, default
symmetry c1  #important for SAPT in psi4, default
}

set PROPERTIES_ORIGIN ["COM"]
properties('MP2/aug-cc-pvtz', properties = ['dipole'])
--------------------------------------------------------------------------

  Memory set to  29.802 GiB by Python driver.
    SCF Algorithm Type (re)set to DF.

*** tstart() called on node35.bme.utexas.edu
*** at Wed Nov  4 17:42:34 2020

   => Loading Basis Set <=

    Name: AUG-CC-PVTZ
    Role: ORBITAL
    Keyword: BASIS
    atoms 1, 5, 7, 9-10 entry N          line   281 file /home/xy3866/psi4conda/share/psi4/basis/aug-cc-pvtz.gbs 
    atoms 2-4, 6, 8     entry C          line   235 file /home/xy3866/psi4conda/share/psi4/basis/aug-cc-pvtz.gbs 
    atoms 11-15         entry H          line    36 file /home/xy3866/psi4conda/share/psi4/basis/aug-cc-pvtz.gbs 


         ---------------------------------------------------------
                                   SCF
               by Justin Turney, Rob Parrish, Andy Simmonett
                          and Daniel G. A. Smith
                              RHF Reference
                        8 Threads,  30517 MiB Core
         ---------------------------------------------------------

  ==> Geometry <==

    Molecular point group: c1
    Full point group: C1

    Geometry (in Angstrom), charge = 0, multiplicity = 1:

       Center              X                  Y                   Z               Mass       
    ------------   -----------------  -----------------  -----------------  -----------------
         N            1.947857536309     0.513635092995     0.000004929890    14.003074004430
         C            1.224687536309    -0.617715907005    -0.000003070110    12.000000000000
         C           -0.182465463691    -0.527651907005    -0.000011070110    12.000000000000
         C           -0.713896463691     0.765111092995    -0.000000070110    12.000000000000
         N            0.008486136309     1.898295592995     0.000005829890    14.003074004430
         C            1.287584536309     1.694067092995     0.000011929890    12.000000000000
         N           -1.168705463691    -1.494363907005    -0.000017070110    14.003074004430
         C           -2.289082463691    -0.784776907005     0.000043929890    12.000000000000
         N           -2.078271463691     0.570885092995    -0.000023070110    14.003074004430
         N            1.862912536309    -1.810517907005    -0.000006070110    14.003074004430
         H            1.923124536309     2.577121092995     0.000001929890     1.007825032230
         H           -3.286699463691    -1.206005907005     0.000067929890     1.007825032230
         H           -2.778810463691     1.302975092995    -0.000084070110     1.007825032230
         H            2.872045536309    -1.828474907005     0.000008929890     1.007825032230
         H            1.334238536309    -2.669827907005     0.000001929890     1.007825032230

  Running in c1 symmetry.

  Rotational constants: A =      0.07918  B =      0.05246  C =      0.03156 [cm^-1]
  Rotational constants: A =   2373.83308  B =   1572.82586  C =    946.02197 [MHz]
  Nuclear repulsion =  502.772662177684253

  Charge       = 0
  Multiplicity = 1
  Electrons    = 70
  Nalpha       = 35
  Nbeta        = 35

  ==> Algorithm <==

  SCF Algorithm Type is DF.
  DIIS enabled.
  MOM disabled.
  Fractional occupation disabled.
  Guess Type is SAD.
  Energy threshold   = 1.00e-10
  Density threshold  = 1.00e-10
  Integral threshold = 0.00e+00

  ==> Primary Basis <==

  Basis Set: AUG-CC-PVTZ
    Blend: AUG-CC-PVTZ
    Number of shells: 185
    Number of basis function: 575
    Number of Cartesian functions: 675
    Spherical Harmonics?: true
    Max angular momentum: 3

   => Loading Basis Set <=

    Name: (AUG-CC-PVTZ AUX)
    Role: JKFIT
    Keyword: DF_BASIS_SCF
    atoms 1, 5, 7, 9-10 entry N          line   224 file /home/xy3866/psi4conda/share/psi4/basis/aug-cc-pvtz-jkfit.gbs 
    atoms 2-4, 6, 8     entry C          line   162 file /home/xy3866/psi4conda/share/psi4/basis/aug-cc-pvtz-jkfit.gbs 
    atoms 11-15         entry H          line    70 file /home/xy3866/psi4conda/share/psi4/basis/aug-cc-pvtz-jkfit.gbs 

  ==> Pre-Iterations <==

   -------------------------------------------------------
    Irrep   Nso     Nmo     Nalpha   Nbeta   Ndocc  Nsocc
   -------------------------------------------------------
     A        575     575       0       0       0       0
   -------------------------------------------------------
    Total     575     575      35      35      35       0
   -------------------------------------------------------

  ==> Integral Setup <==

  DFHelper Memory: AOs need 3.105 GiB; user supplied 22.352 GiB. Using in-core AOs.

  ==> MemDFJK: Density-Fitted J/K Matrices <==

    J tasked:                   Yes
    K tasked:                   Yes
    wK tasked:                   No
    OpenMP threads:               8
    Memory [MiB]:             22888
    Algorithm:                 Disk
    Schwarz Cutoff:           1E-12
    Mask sparsity (%):       3.8872
    Fitting Condition:        1E-10

   => Auxiliary Basis Set <=

  Basis Set: (AUG-CC-PVTZ AUX)
    Blend: AUG-CC-PVTZ-JKFIT
    Number of shells: 370
    Number of basis function: 1270
    Number of Cartesian functions: 1585
    Spherical Harmonics?: true
    Max angular momentum: 4

  Minimum eigenvalue in the overlap matrix is 1.6794055634E-06.
  Using Symmetric Orthogonalization.

  SCF Guess: Superposition of Atomic Densities via on-the-fly atomic UHF.

  ==> Iterations <==

                           Total Energy        Delta E     RMS |[F,P]|

   @DF-RHF iter SAD:  -464.53844030288622   -4.64538e+02   0.00000e+00 
   @DF-RHF iter   1:  -464.44198630687754    9.64540e-02   1.17315e-03 DIIS
   @DF-RHF iter   2:  -464.63440948523049   -1.92423e-01   5.77739e-04 DIIS
   @DF-RHF iter   3:  -464.67872009048119   -4.43106e-02   1.32075e-04 DIIS
   @DF-RHF iter   4:  -464.68199372959617   -3.27364e-03   6.31477e-05 DIIS
   @DF-RHF iter   5:  -464.68267034060636   -6.76611e-04   1.18717e-05 DIIS
   @DF-RHF iter   6:  -464.68272281270782   -5.24721e-05   5.64466e-06 DIIS
   @DF-RHF iter   7:  -464.68273621865478   -1.34059e-05   2.34840e-06 DIIS
   @DF-RHF iter   8:  -464.68273921629492   -2.99764e-06   8.07476e-07 DIIS
   @DF-RHF iter   9:  -464.68273963708185   -4.20787e-07   4.31403e-07 DIIS
   @DF-RHF iter  10:  -464.68273973526311   -9.81813e-08   1.61730e-07 DIIS
   @DF-RHF iter  11:  -464.68273975630098   -2.10379e-08   6.78314e-08 DIIS
   @DF-RHF iter  12:  -464.68273975950331   -3.20233e-09   2.91966e-08 DIIS
   @DF-RHF iter  13:  -464.68273975999591   -4.92605e-10   9.37336e-09 DIIS
   @DF-RHF iter  14:  -464.68273976003860   -4.26894e-11   3.82507e-09 DIIS
   @DF-RHF iter  15:  -464.68273976004360   -5.00222e-12   1.22027e-09 DIIS
   @DF-RHF iter  16:  -464.68273976004451   -9.09495e-13   6.37028e-10 DIIS
   @DF-RHF iter  17:  -464.68273976004610   -1.59162e-12   2.31158e-10 DIIS
   @DF-RHF iter  18:  -464.68273976004537    7.38964e-13   9.48730e-11 DIIS
  Energy and wave function converged.


  ==> Post-Iterations <==

    Orbital Energies [Eh]
    ---------------------

    Doubly Occupied:                                                      

       1A    -15.637429     2A    -15.584145     3A    -15.572368  
       4A    -15.554298     5A    -15.546744     6A    -11.337200  
       7A    -11.327301     8A    -11.318799     9A    -11.304764  
      10A    -11.253035    11A     -1.367654    12A     -1.300335  
      13A     -1.249351    14A     -1.186194    15A     -1.150179  
      16A     -1.035125    17A     -0.894151    18A     -0.877586  
      19A     -0.846481    20A     -0.782012    21A     -0.738602  
      22A     -0.699001    23A     -0.678870    24A     -0.639111  
      25A     -0.633885    26A     -0.612342    27A     -0.595011  
      28A     -0.558402    29A     -0.501229    30A     -0.493525  
      31A     -0.449921    32A     -0.424446    33A     -0.406451  
      34A     -0.370362    35A     -0.310688  

    Virtual:                                                              

      36A      0.021101    37A      0.031340    38A      0.036307  
      39A      0.046510    40A      0.055394    41A      0.066215  
      42A      0.082070    43A      0.083646    44A      0.088654  
      45A      0.095584    46A      0.101621    47A      0.107437  
      48A      0.112043    49A      0.114953    50A      0.122475  
      51A      0.126602    52A      0.128834    53A      0.131856  
      54A      0.136337    55A      0.142134    56A      0.142482  
      57A      0.149031    58A      0.150673    59A      0.162911  
      60A      0.168661    61A      0.182650    62A      0.185457  
      63A      0.192520    64A      0.196683    65A      0.205777  
      66A      0.206559    67A      0.209521    68A      0.214307  
      69A      0.222784    70A      0.226299    71A      0.228794  
      72A      0.230062    73A      0.232329    74A      0.241281  
      75A      0.246768    76A      0.259561    77A      0.272167  
      78A      0.279023    79A      0.289344    80A      0.295682  
      81A      0.300466    82A      0.305390    83A      0.314485  
      84A      0.320450    85A      0.327272    86A      0.333525  
      87A      0.335211    88A      0.337233    89A      0.342059  
      90A      0.347104    91A      0.364833    92A      0.368845  
      93A      0.376314    94A      0.385623    95A      0.385696  
      96A      0.388935    97A      0.399293    98A      0.402537  
      99A      0.419305   100A      0.422176   101A      0.430244  
     102A      0.439229   103A      0.440125   104A      0.443429  
     105A      0.443534   106A      0.446174   107A      0.458183  
     108A      0.460926   109A      0.463116   110A      0.469484  
     111A      0.478070   112A      0.480004   113A      0.490815  
     114A      0.494257   115A      0.497734   116A      0.509073  
     117A      0.509171   118A      0.511489   119A      0.519936  
     120A      0.528042   121A      0.530297   122A      0.540633  
     123A      0.544330   124A      0.547304   125A      0.565439  
     126A      0.572753   127A      0.574033   128A      0.585894  
     129A      0.597195   130A      0.610704   131A      0.613598  
     132A      0.628362   133A      0.638531   134A      0.644526  
     135A      0.646065   136A      0.655779   137A      0.657508  
     138A      0.666256   139A      0.666853   140A      0.671479  
     141A      0.683460   142A      0.685849   143A      0.696339  
     144A      0.703500   145A      0.718262   146A      0.721601  
     147A      0.729015   148A      0.745097   149A      0.746738  
     150A      0.754713   151A      0.761659   152A      0.765385  
     153A      0.784320   154A      0.789587   155A      0.791140  
     156A      0.797354   157A      0.812297   158A      0.814242  
     159A      0.819430   160A      0.826141   161A      0.829155  
     162A      0.831259   163A      0.840842   164A      0.861042  
     165A      0.862010   166A      0.863966   167A      0.881648  
     168A      0.898315   169A      0.900499   170A      0.908411  
     171A      0.911955   172A      0.925782   173A      0.938595  
     174A      0.942266   175A      0.949523   176A      0.959693  
     177A      0.962805   178A      0.971013   179A      0.971086  
     180A      0.973897   181A      0.982377   182A      0.990044  
     183A      0.994623   184A      1.019368   185A      1.022755  
     186A      1.022796   187A      1.027809   188A      1.041094  
     189A      1.044991   190A      1.050629   191A      1.055645  
     192A      1.066859   193A      1.076941   194A      1.083875  
     195A      1.084509   196A      1.095045   197A      1.105194  
     198A      1.106823   199A      1.112497   200A      1.119011  
     201A      1.127214   202A      1.127840   203A      1.141134  
     204A      1.141818   205A      1.149784   206A      1.155779  
     207A      1.170249   208A      1.193010   209A      1.198235  
     210A      1.204273   211A      1.211334   212A      1.227721  
     213A      1.231597   214A      1.232427   215A      1.233548  
     216A      1.247351   217A      1.257768   218A      1.267805  
     219A      1.279330   220A      1.281080   221A      1.293828  
     222A      1.299409   223A      1.306959   224A      1.311814  
     225A      1.320006   226A      1.340636   227A      1.341672  
     228A      1.359931   229A      1.370336   230A      1.374010  
     231A      1.384376   232A      1.397226   233A      1.401902  
     234A      1.407772   235A      1.427700   236A      1.431476  
     237A      1.438634   238A      1.440928   239A      1.458278  
     240A      1.464184   241A      1.479178   242A      1.484028  
     243A      1.495050   244A      1.499508   245A      1.514586  
     246A      1.529978   247A      1.540543   248A      1.549634  
     249A      1.556371   250A      1.566232   251A      1.571597  
     252A      1.587684   253A      1.593956   254A      1.607657  
     255A      1.622451   256A      1.624395   257A      1.638049  
     258A      1.653590   259A      1.673249   260A      1.680286  
     261A      1.681012   262A      1.691831   263A      1.702313  
     264A      1.721130   265A      1.729593   266A      1.743232  
     267A      1.745192   268A      1.755674   269A      1.777683  
     270A      1.781284   271A      1.788207   272A      1.791847  
     273A      1.812375   274A      1.840109   275A      1.847453  
     276A      1.852288   277A      1.862859   278A      1.876142  
     279A      1.904067   280A      1.907933   281A      1.935018  
     282A      1.943759   283A      1.948268   284A      1.954083  
     285A      1.960593   286A      1.989682   287A      1.999631  
     288A      2.027387   289A      2.031648   290A      2.052285  
     291A      2.071385   292A      2.073422   293A      2.079101  
     294A      2.093360   295A      2.102663   296A      2.125532  
     297A      2.133719   298A      2.142612   299A      2.158090  
     300A      2.162101   301A      2.167065   302A      2.177998  
     303A      2.184077   304A      2.204809   305A      2.211097  
     306A      2.231956   307A      2.241311   308A      2.242809  
     309A      2.258021   310A      2.263514   311A      2.284650  
     312A      2.297696   313A      2.298219   314A      2.316693  
     315A      2.334333   316A      2.343871   317A      2.364749  
     318A      2.371977   319A      2.372131   320A      2.395292  
     321A      2.404135   322A      2.405002   323A      2.425906  
     324A      2.435466   325A      2.440259   326A      2.457222  
     327A      2.461949   328A      2.481118   329A      2.495342  
     330A      2.518322   331A      2.544062   332A      2.554566  
     333A      2.572269   334A      2.573345   335A      2.584978  
     336A      2.598956   337A      2.605835   338A      2.613515  
     339A      2.623653   340A      2.659163   341A      2.669868  
     342A      2.676830   343A      2.697619   344A      2.714227  
     345A      2.727309   346A      2.736257   347A      2.774993  
     348A      2.798057   349A      2.822746   350A      2.839863  
     351A      2.842524   352A      2.853912   353A      2.857501  
     354A      2.887387   355A      2.925370   356A      2.971551  
     357A      3.005721   358A      3.034595   359A      3.065824  
     360A      3.086113   361A      3.114583   362A      3.127953  
     363A      3.146797   364A      3.157549   365A      3.178296  
     366A      3.232865   367A      3.255540   368A      3.261837  
     369A      3.312982   370A      3.352130   371A      3.373783  
     372A      3.406412   373A      3.421580   374A      3.431069  
     375A      3.446561   376A      3.447970   377A      3.496003  
     378A      3.514628   379A      3.518295   380A      3.521320  
     381A      3.540812   382A      3.556663   383A      3.562073  
     384A      3.608385   385A      3.613689   386A      3.627601  
     387A      3.633094   388A      3.648747   389A      3.676557  
     390A      3.688365   391A      3.699807   392A      3.721117  
     393A      3.724738   394A      3.753545   395A      3.770007  
     396A      3.783830   397A      3.785274   398A      3.808316  
     399A      3.842941   400A      3.846435   401A      3.871807  
     402A      3.884426   403A      3.891093   404A      3.906995  
     405A      3.913474   406A      3.929305   407A      3.948985  
     408A      3.960086   409A      3.968649   410A      3.987777  
     411A      3.989381   412A      4.014089   413A      4.034077  
     414A      4.045605   415A      4.049307   416A      4.078801  
     417A      4.082910   418A      4.101548   419A      4.118390  
     420A      4.149840   421A      4.158261   422A      4.163600  
     423A      4.178318   424A      4.187285   425A      4.205287  
     426A      4.216512   427A      4.219047   428A      4.231886  
     429A      4.236868   430A      4.244936   431A      4.262190  
     432A      4.279186   433A      4.290560   434A      4.305183  
     435A      4.313876   436A      4.326922   437A      4.330629  
     438A      4.376163   439A      4.385378   440A      4.389545  
     441A      4.406369   442A      4.420957   443A      4.421947  
     444A      4.456659   445A      4.478851   446A      4.483882  
     447A      4.510494   448A      4.518062   449A      4.525410  
     450A      4.562512   451A      4.563207   452A      4.597516  
     453A      4.613362   454A      4.628935   455A      4.639768  
     456A      4.648050   457A      4.657006   458A      4.713628  
     459A      4.718850   460A      4.784043   461A      4.797133  
     462A      4.800411   463A      4.815198   464A      4.836974  
     465A      4.852479   466A      4.867989   467A      4.892876  
     468A      4.903823   469A      4.917099   470A      4.948998  
     471A      4.950744   472A      5.011870   473A      5.023439  
     474A      5.045612   475A      5.065648   476A      5.089214  
     477A      5.097863   478A      5.124961   479A      5.141069  
     480A      5.164065   481A      5.187548   482A      5.215928  
     483A      5.223252   484A      5.252445   485A      5.263430  
     486A      5.284660   487A      5.302864   488A      5.331504  
     489A      5.362677   490A      5.371781   491A      5.380147  
     492A      5.412644   493A      5.425496   494A      5.457661  
     495A      5.476134   496A      5.511441   497A      5.526054  
     498A      5.548171   499A      5.556539   500A      5.560656  
     501A      5.583271   502A      5.600474   503A      5.602972  
     504A      5.620498   505A      5.628032   506A      5.656051  
     507A      5.682957   508A      5.686139   509A      5.691059  
     510A      5.700455   511A      5.711953   512A      5.716864  
     513A      5.760476   514A      5.778285   515A      5.783836  
     516A      5.803005   517A      5.824039   518A      5.829437  
     519A      5.891473   520A      5.915539   521A      5.923241  
     522A      5.944073   523A      5.946087   524A      5.955203  
     525A      5.978699   526A      6.004296   527A      6.026517  
     528A      6.075393   529A      6.092681   530A      6.136636  
     531A      6.148360   532A      6.150795   533A      6.193796  
     534A      6.218860   535A      6.227724   536A      6.259190  
     537A      6.279388   538A      6.320051   539A      6.390055  
     540A      6.447460   541A      6.492614   542A      6.530724  
     543A      6.553528   544A      6.587495   545A      6.609473  
     546A      6.651114   547A      6.701969   548A      6.737348  
     549A      6.763851   550A      6.789758   551A      6.804621  
     552A      6.882030   553A      6.998224   554A      7.030778  
     555A      7.049236   556A      7.107450   557A      7.116298  
     558A      7.249051   559A      7.296493   560A      7.405558  
     561A      7.498537   562A      7.557299   563A      7.671480  
     564A      7.848813   565A      7.867599   566A     16.052710  
     567A     16.221160   568A     16.587074   569A     17.851161  
     570A     18.017925   571A     18.935408   572A     19.172708  
     573A     19.430658   574A     19.872396   575A     20.857692  

    Final Occupation by Irrep:
              A 
    DOCC [    35 ]

  @DF-RHF Final Energy:  -464.68273976004537

   => Energetics <=

    Nuclear Repulsion Energy =            502.7726621776842535
    One-Electron Energy =               -1628.4368148803473559
    Two-Electron Energy =                 660.9814129426177942
    Total Energy =                       -464.6827397600453651

Computation Completed

*** tstop() called on node35.bme.utexas.edu at Wed Nov  4 17:45:03 2020
Module time:
	user time   =     515.20 seconds =       8.59 minutes
	system time =     111.06 seconds =       1.85 minutes
	total time  =        149 seconds =       2.48 minutes
Total time:
	user time   =     515.20 seconds =       8.59 minutes
	system time =     111.06 seconds =       1.85 minutes
	total time  =        149 seconds =       2.48 minutes
   => Loading Basis Set <=

    Name: (AUG-CC-PVTZ AUX)
    Role: RIFIT
    Keyword: DF_BASIS_MP2
    atoms 1, 5, 7, 9-10 entry N          line   206 file /home/xy3866/psi4conda/share/psi4/basis/aug-cc-pvtz-ri.gbs 
    atoms 2-4, 6, 8     entry C          line   148 file /home/xy3866/psi4conda/share/psi4/basis/aug-cc-pvtz-ri.gbs 
    atoms 11-15         entry H          line    30 file /home/xy3866/psi4conda/share/psi4/basis/aug-cc-pvtz-ri.gbs 


*** tstart() called on node35.bme.utexas.edu
*** at Wed Nov  4 17:45:03 2020


  //>>>>>>>>>>>>>>>>>>>>>>>>>>>>>>>>>>>//
  //               DFMP2               //
  //<<<<<<<<<<<<<<<<<<<<<<<<<<<<<<<<<<<//

	 --------------------------------------------------------
	                          DF-MP2                         
	      2nd-Order Density-Fitted Moller-Plesset Theory     
	              RMP2 Wavefunction,   8 Threads             
	                                                         
	        Rob Parrish, Justin Turney, Andy Simmonett,      
	           Ed Hohenstein, and C. David Sherrill          
	 --------------------------------------------------------

   => Auxiliary Basis Set <=

  Basis Set: (AUG-CC-PVTZ AUX)
    Blend: AUG-CC-PVTZ-RI
    Number of shells: 350
    Number of basis function: 1290
    Number of Cartesian functions: 1635
    Spherical Harmonics?: true
    Max angular momentum: 4

	 --------------------------------------------------------
	                 NBF =   575, NAUX =  1290
	 --------------------------------------------------------
	   CLASS    FOCC     OCC    AOCC    AVIR     VIR    FVIR
	   PAIRS       0      35      35     540     540       0
	 --------------------------------------------------------

  DFHelper Memory: AOs need 3.105 GiB; user supplied 22.352 GiB. Using in-core AOs.


         ------------------------------------------------------------
                                     CPHF                           
                                  Rob Parrish                       
         ------------------------------------------------------------

  ==> Geometry <==

    Molecular point group: c1
    Full point group: C1

    Geometry (in Angstrom), charge = 0, multiplicity = 1:

       Center              X                  Y                   Z               Mass       
    ------------   -----------------  -----------------  -----------------  -----------------
         N            1.947857536309     0.513635092995     0.000004929890    14.003074004430
         C            1.224687536309    -0.617715907005    -0.000003070110    12.000000000000
         C           -0.182465463691    -0.527651907005    -0.000011070110    12.000000000000
         C           -0.713896463691     0.765111092995    -0.000000070110    12.000000000000
         N            0.008486136309     1.898295592995     0.000005829890    14.003074004430
         C            1.287584536309     1.694067092995     0.000011929890    12.000000000000
         N           -1.168705463691    -1.494363907005    -0.000017070110    14.003074004430
         C           -2.289082463691    -0.784776907005     0.000043929890    12.000000000000
         N           -2.078271463691     0.570885092995    -0.000023070110    14.003074004430
         N            1.862912536309    -1.810517907005    -0.000006070110    14.003074004430
         H            1.923124536309     2.577121092995     0.000001929890     1.007825032230
         H           -3.286699463691    -1.206005907005     0.000067929890     1.007825032230
         H           -2.778810463691     1.302975092995    -0.000084070110     1.007825032230
         H            2.872045536309    -1.828474907005     0.000008929890     1.007825032230
         H            1.334238536309    -2.669827907005     0.000001929890     1.007825032230

  Nuclear repulsion =  502.772662177684253
  Reference energy  = -464.682739760045365

  ==> Basis Set <==

  Basis Set: AUG-CC-PVTZ
    Blend: AUG-CC-PVTZ
    Number of shells: 185
    Number of basis function: 575
    Number of Cartesian functions: 675
    Spherical Harmonics?: true
    Max angular momentum: 3

  ==> CGRSolver (by Rob Parrish) <==

   Number of roots    =         1
   Preconditioning    =    JACOBI
   Convergence cutoff =     1E-06
   Maximum iterations =       100

  ==> CPHFRHamiltonian (by Rob Parrish) <== 

  ==> MemDFJK: Density-Fitted J/K Matrices <==

    J tasked:                   Yes
    K tasked:                   Yes
    wK tasked:                   No
    OpenMP threads:               8
    Memory [MiB]:             22888
    Algorithm:                 Disk
    Schwarz Cutoff:           1E-12
    Mask sparsity (%):       3.8872
    Fitting Condition:        1E-10

   => Auxiliary Basis Set <=

  Basis Set: (AUG-CC-PVTZ AUX)
    Blend: AUG-CC-PVTZ-JKFIT
    Number of shells: 370
    Number of basis function: 1270
    Number of Cartesian functions: 1585
    Spherical Harmonics?: true
    Max angular momentum: 4

  ==> CPHF Iterations <==

  => Iterations <=

             Iter  Converged  Remaining    Residual
  CGR           1          0          1   1.166E-01
  CGR           2          0          1   4.589E-02
  CGR           3          0          1   2.429E-02
  CGR           4          0          1   8.251E-03
  CGR           5          0          1   3.904E-03
  CGR           6          0          1   1.770E-03
  CGR           7          0          1   5.683E-04
  CGR           8          0          1   2.378E-04
  CGR           9          0          1   8.061E-05
  CGR          10          0          1   2.650E-05
  CGR          11          0          1   1.144E-05
  CGR          12          0          1   4.043E-06
  CGR          13          0          1   1.513E-06
  CGR          14          1          0   5.035E-07

    CGRSolver converged.

	-----------------------------------------------------------
	 ==================> DF-MP2 Energies <==================== 
	-----------------------------------------------------------
	 Reference Energy          =    -464.6827397600453651 [Eh]
	 Singles Energy            =      -0.0000000000000000 [Eh]
	 Same-Spin Energy          =      -0.5058837819741933 [Eh]
	 Opposite-Spin Energy      =      -1.4748633915049287 [Eh]
	 Correlation Energy        =      -1.9807471734791220 [Eh]
	 Total Energy              =    -466.6634869335244957 [Eh]
	-----------------------------------------------------------
	 ================> DF-SCS-MP2 Energies <================== 
	-----------------------------------------------------------
	 SCS Same-Spin Scale       =       0.3333333333333333 [-]
	 SCS Opposite-Spin Scale   =       1.2000000000000000 [-]
	 SCS Same-Spin Energy      =      -0.1686279273247311 [Eh]
	 SCS Opposite-Spin Energy  =      -1.7698360698059143 [Eh]
	 SCS Correlation Energy    =      -1.9384639971306454 [Eh]
	 SCS Total Energy          =    -466.6212037571760334 [Eh]
	-----------------------------------------------------------



Properties will be evaluated at   0.000000,   0.000000,  -0.000000 [a0]

Properties computed using the MP2 density matrix

  Nuclear Dipole Moment: [e a0]
     X:     0.0582      Y:    -1.7092      Z:    -0.0000

  Electronic Dipole Moment: [e a0]
     X:    -0.9997      Y:     1.2768      Z:    -0.0000

  Dipole Moment: [e a0]
     X:    -0.9414      Y:    -0.4324      Z:    -0.0000     Total:     1.0360

  Dipole Moment: [D]
     X:    -2.3929      Y:    -1.0990      Z:    -0.0000     Total:     2.6332


*** tstop() called on node35.bme.utexas.edu at Wed Nov  4 17:49:54 2020
Module time:
	user time   =    1440.24 seconds =      24.00 minutes
	system time =     160.04 seconds =       2.67 minutes
	total time  =        291 seconds =       4.85 minutes
Total time:
	user time   =    1956.42 seconds =      32.61 minutes
	system time =     271.18 seconds =       4.52 minutes
	total time  =        440 seconds =       7.33 minutes

    Psi4 stopped on: Wednesday, 04 November 2020 05:49PM
    Psi4 wall time for execution: 0:07:20.56

*** Psi4 exiting successfully. Buy a developer a beer!
