041_Ethane Gaussian SP Calculation on g2-node38.bme.utexas.edu          
Freq      RMP2-FC                                                     6-31G(d)            
Number of atoms                            I                8
Info1-9                                    I   N=           9
          19          18        1002           0           0         100
           6           2           1
Charge                                     I                0
Multiplicity                               I                1
Number of electrons                        I               18
Number of alpha electrons                  I                9
Number of beta electrons                   I                9
Number of basis functions                  I               42
Number of independent functions            I               42
Number of point charges in /Mol/           I                0
Number of translation vectors              I                0
Atomic numbers                             I   N=           8
           6           6           1           1           1           1
           1           1
Nuclear charges                            R   N=           8
  6.00000000E+00  6.00000000E+00  1.00000000E+00  1.00000000E+00  1.00000000E+00
  1.00000000E+00  1.00000000E+00  1.00000000E+00
Current cartesian coordinates              R   N=          24
 -1.44183034E+00 -6.81492068E-07 -3.93870675E-06  1.44183043E+00 -5.97366617E-08
 -1.67361483E-06 -2.18840296E+00 -1.92555198E+00  5.51505677E-02 -2.18839933E+00
  1.01053567E+00  1.64000342E+00 -2.18838552E+00  9.15027860E-01 -1.69515129E+00
  2.18837553E+00 -9.15006763E-01  1.69516543E+00  2.18840994E+00 -1.01055284E+00
 -1.63998959E+00  2.18840179E+00  1.92555250E+00 -5.51448577E-02
Force Field                                I                0
Int Atom Types                             I   N=           8
           0           0           0           0           0           0
           0           0
MM charges                                 R   N=           8
  0.00000000E+00  0.00000000E+00  0.00000000E+00  0.00000000E+00  0.00000000E+00
  0.00000000E+00  0.00000000E+00  0.00000000E+00
Integer atomic weights                     I   N=           8
          12          12           1           1           1           1
           1           1
Real atomic weights                        R   N=           8
  1.20000000E+01  1.20000000E+01  1.00782504E+00  1.00782504E+00  1.00782504E+00
  1.00782504E+00  1.00782504E+00  1.00782504E+00
Atom fragment info                         I   N=           8
           0           0           0           0           0           0
           0           0
Atom residue num                           I   N=           8
           0           0           0           0           0           0
           0           0
Nuclear spins                              I   N=           8
           0           0           1           1           1           1
           1           1
Nuclear ZEff                               R   N=           8
 -3.60000000E+00 -3.60000000E+00 -1.00000000E+00 -1.00000000E+00 -1.00000000E+00
 -1.00000000E+00 -1.00000000E+00 -1.00000000E+00
Nuclear QMom                               R   N=           8
  0.00000000E+00  0.00000000E+00  0.00000000E+00  0.00000000E+00  0.00000000E+00
  0.00000000E+00  0.00000000E+00  0.00000000E+00
Nuclear GFac                               R   N=           8
  0.00000000E+00  0.00000000E+00  2.79284600E+00  2.79284600E+00  2.79284600E+00
  2.79284600E+00  2.79284600E+00  2.79284600E+00
MicOpt                                     I   N=           8
          -1          -1          -1          -1          -1          -1
          -1          -1
Number of contracted shells                I               20
Number of primitive shells                 I               46
Pure/Cartesian d shells                    I                1
Pure/Cartesian f shells                    I                0
Highest angular momentum                   I                2
Largest degree of contraction              I                6
Shell types                                I   N=          20
           0          -1          -1           2           0          -1
          -1           2           0           0           0           0
           0           0           0           0           0           0
           0           0
Number of primitives per shell             I   N=          20
           6           3           1           1           6           3
           1           1           3           1           3           1
           3           1           3           1           3           1
           3           1
Shell to atom map                          I   N=          20
           1           1           1           1           2           2
           2           2           3           3           4           4
           5           5           6           6           7           7
           8           8
Primitive exponents                        R   N=          46
  3.04752488E+03  4.57369518E+02  1.03948685E+02  2.92101553E+01  9.28666296E+00
  3.16392696E+00  7.86827235E+00  1.88128854E+00  5.44249258E-01  1.68714478E-01
  8.00000000E-01  3.04752488E+03  4.57369518E+02  1.03948685E+02  2.92101553E+01
  9.28666296E+00  3.16392696E+00  7.86827235E+00  1.88128854E+00  5.44249258E-01
  1.68714478E-01  8.00000000E-01  1.87311370E+01  2.82539436E+00  6.40121692E-01
  1.61277759E-01  1.87311370E+01  2.82539436E+00  6.40121692E-01  1.61277759E-01
  1.87311370E+01  2.82539436E+00  6.40121692E-01  1.61277759E-01  1.87311370E+01
  2.82539436E+00  6.40121692E-01  1.61277759E-01  1.87311370E+01  2.82539436E+00
  6.40121692E-01  1.61277759E-01  1.87311370E+01  2.82539436E+00  6.40121692E-01
  1.61277759E-01
Contraction coefficients                   R   N=          46
  1.83473713E-03  1.40373228E-02  6.88426223E-02  2.32184443E-01  4.67941348E-01
  3.62311985E-01 -1.19332420E-01 -1.60854152E-01  1.14345644E+00  1.00000000E+00
  1.00000000E+00  1.83473713E-03  1.40373228E-02  6.88426223E-02  2.32184443E-01
  4.67941348E-01  3.62311985E-01 -1.19332420E-01 -1.60854152E-01  1.14345644E+00
  1.00000000E+00  1.00000000E+00  3.34946043E-02  2.34726953E-01  8.13757326E-01
  1.00000000E+00  3.34946043E-02  2.34726953E-01  8.13757326E-01  1.00000000E+00
  3.34946043E-02  2.34726953E-01  8.13757326E-01  1.00000000E+00  3.34946043E-02
  2.34726953E-01  8.13757326E-01  1.00000000E+00  3.34946043E-02  2.34726953E-01
  8.13757326E-01  1.00000000E+00  3.34946043E-02  2.34726953E-01  8.13757326E-01
  1.00000000E+00
P(S=P) Contraction coefficients            R   N=          46
  0.00000000E+00  0.00000000E+00  0.00000000E+00  0.00000000E+00  0.00000000E+00
  0.00000000E+00  6.89990666E-02  3.16423961E-01  7.44308291E-01  1.00000000E+00
  0.00000000E+00  0.00000000E+00  0.00000000E+00  0.00000000E+00  0.00000000E+00
  0.00000000E+00  0.00000000E+00  6.89990666E-02  3.16423961E-01  7.44308291E-01
  1.00000000E+00  0.00000000E+00  0.00000000E+00  0.00000000E+00  0.00000000E+00
  0.00000000E+00  0.00000000E+00  0.00000000E+00  0.00000000E+00  0.00000000E+00
  0.00000000E+00  0.00000000E+00  0.00000000E+00  0.00000000E+00  0.00000000E+00
  0.00000000E+00  0.00000000E+00  0.00000000E+00  0.00000000E+00  0.00000000E+00
  0.00000000E+00  0.00000000E+00  0.00000000E+00  0.00000000E+00  0.00000000E+00
  0.00000000E+00
Coordinates of each shell                  R   N=          60
 -1.44183034E+00 -6.81492068E-07 -3.93870675E-06 -1.44183034E+00 -6.81492068E-07
 -3.93870675E-06 -1.44183034E+00 -6.81492068E-07 -3.93870675E-06 -1.44183034E+00
 -6.81492068E-07 -3.93870675E-06  1.44183043E+00 -5.97366615E-08 -1.67361483E-06
  1.44183043E+00 -5.97366615E-08 -1.67361483E-06  1.44183043E+00 -5.97366615E-08
 -1.67361483E-06  1.44183043E+00 -5.97366615E-08 -1.67361483E-06 -2.18840296E+00
 -1.92555198E+00  5.51505677E-02 -2.18840296E+00 -1.92555198E+00  5.51505677E-02
 -2.18839933E+00  1.01053567E+00  1.64000342E+00 -2.18839933E+00  1.01053567E+00
  1.64000342E+00 -2.18838552E+00  9.15027860E-01 -1.69515129E+00 -2.18838552E+00
  9.15027860E-01 -1.69515129E+00  2.18837553E+00 -9.15006763E-01  1.69516543E+00
  2.18837553E+00 -9.15006763E-01  1.69516543E+00  2.18840994E+00 -1.01055284E+00
 -1.63998959E+00  2.18840994E+00 -1.01055284E+00 -1.63998959E+00  2.18840179E+00
  1.92555250E+00 -5.51448577E-02  2.18840179E+00  1.92555250E+00 -5.51448577E-02
Constraint Structure                       R   N=          24
 -1.44183034E+00 -6.81492068E-07 -3.93870675E-06  1.44183043E+00 -5.97366615E-08
 -1.67361483E-06 -2.18840296E+00 -1.92555198E+00  5.51505677E-02 -2.18839933E+00
  1.01053567E+00  1.64000342E+00 -2.18838552E+00  9.15027860E-01 -1.69515129E+00
  2.18837553E+00 -9.15006763E-01  1.69516543E+00  2.18840994E+00 -1.01055284E+00
 -1.63998959E+00  2.18840179E+00  1.92555250E+00 -5.51448577E-02
Num ILSW                                   I              100
ILSW                                       I   N=         100
           0           1           0           0           2           0
           0           0           0           0           0          -1
           0           0           0           0           0           0
           0           0           0           0           1           0
           1           0           0           0           0           0
           0           0      100000           0          -1           0
           0           0           0           0           0           0
           0           0           0           1           1           0
           0           0           1           0           0           0
           0           0           4          40           0           0
           0           0           0           0           0           0
           0           0           0           0           0           0
           0           0           0           0           0           0
           0           0           0           0           0           0
           0           0           0           0           0           0
           0           0           0           0           0           0
           0           0           0           0
Num RLSW                                   I               40
RLSW                                       R   N=          40
  1.00000000E+00  1.00000000E+00  1.00000000E+00  1.00000000E+00  1.00000000E+00
  0.00000000E+00  0.00000000E+00  1.00000000E+00  0.00000000E+00  0.00000000E+00
  0.00000000E+00  0.00000000E+00  1.00000000E+00  0.00000000E+00  0.00000000E+00
  0.00000000E+00  0.00000000E+00  1.00000000E+00  0.00000000E+00  0.00000000E+00
  0.00000000E+00  0.00000000E+00  1.00000000E+00  0.00000000E+00  0.00000000E+00
  0.00000000E+00  0.00000000E+00  1.00000000E+00  0.00000000E+00  0.00000000E+00
  0.00000000E+00  0.00000000E+00  0.00000000E+00  0.00000000E+00  0.00000000E+00
  0.00000000E+00  0.00000000E+00  0.00000000E+00  1.00000000E+00  1.00000000E+00
MxBond                                     I                4
NBond                                      I   N=           8
           4           4           1           1           1           1
           1           1
IBond                                      I   N=          32
           2           3           4           5           1           6
           7           8           1           0           0           0
           1           0           0           0           1           0
           0           0           2           0           0           0
           2           0           0           0           2           0
           0           0
RBond                                      R   N=          32
  1.00000000E+00  1.00000000E+00  1.00000000E+00  1.00000000E+00  1.00000000E+00
  1.00000000E+00  1.00000000E+00  1.00000000E+00  1.00000000E+00  0.00000000E+00
  0.00000000E+00  0.00000000E+00  1.00000000E+00  0.00000000E+00  0.00000000E+00
  0.00000000E+00  1.00000000E+00  0.00000000E+00  0.00000000E+00  0.00000000E+00
  1.00000000E+00  0.00000000E+00  0.00000000E+00  0.00000000E+00  1.00000000E+00
  0.00000000E+00  0.00000000E+00  0.00000000E+00  1.00000000E+00  0.00000000E+00
  0.00000000E+00  0.00000000E+00
Virial Ratio                               R      2.001144969591781E+00
SCF Energy                                 R     -7.922851794832974E+01
MP2 Energy                                 R     -7.949474201034575E+01
Total Energy                               R     -7.949474201034575E+01
Post-SCF wavefunction norm                 R      1.475486785571307E+00
RMS Force                                  R      1.214350907426572E-06
RMS Density                                R      3.821541112990734E-10
External E-field                           R   N=          35
  0.00000000E+00  0.00000000E+00  0.00000000E+00  0.00000000E+00  0.00000000E+00
  0.00000000E+00  0.00000000E+00  0.00000000E+00  0.00000000E+00  0.00000000E+00
  0.00000000E+00  0.00000000E+00  0.00000000E+00  0.00000000E+00  0.00000000E+00
  0.00000000E+00  0.00000000E+00  0.00000000E+00  0.00000000E+00  0.00000000E+00
  0.00000000E+00  0.00000000E+00  0.00000000E+00  0.00000000E+00  0.00000000E+00
  0.00000000E+00  0.00000000E+00  0.00000000E+00  0.00000000E+00  0.00000000E+00
  0.00000000E+00  0.00000000E+00  0.00000000E+00  0.00000000E+00  0.00000000E+00
IOpCl                                      I                0
IROHF                                      I                0
Alpha Orbital Energies                     R   N=          42
 -1.12131862E+01 -1.12125954E+01 -1.01738079E+00 -8.40217093E-01 -5.96239097E-01
 -5.96238290E-01 -5.09455050E-01 -4.85884159E-01 -4.85883552E-01  2.41716944E-01
  3.01310016E-01  3.15208993E-01  3.15209963E-01  3.37664582E-01  3.37665395E-01
  4.12826734E-01  7.06890130E-01  7.41479387E-01  7.41480497E-01  8.49651799E-01
  8.49656081E-01  9.43027220E-01  1.15298852E+00  1.15298929E+00  1.20074752E+00
  1.20133616E+00  1.20133768E+00  1.25434945E+00  1.27610941E+00  1.68650162E+00
  1.80296879E+00  1.80297261E+00  2.25525828E+00  2.29245275E+00  2.29246100E+00
  2.61270917E+00  2.61271504E+00  2.67184712E+00  2.67185293E+00  2.93964869E+00
  4.57593699E+00  4.79405424E+00
Alpha MO coefficients                      R   N=        1764
  7.03996038E-01  2.00918563E-02  3.70591940E-05  1.52631426E-09  3.72796233E-09
 -7.94445566E-03  8.06869373E-04 -1.06981479E-08 -1.21905840E-08 -1.68210612E-03
 -1.37418629E-03 -1.37418763E-03  7.39261230E-10  1.08591257E-09 -3.96393381E-09
  7.03984348E-01  2.00915251E-02 -3.70585990E-05 -6.48793817E-10  3.66794891E-09
 -7.94424008E-03 -8.06896016E-04  6.77782662E-09 -2.01410335E-08 -1.68209051E-03
 -1.37416653E-03 -1.37416723E-03  1.58137846E-10 -3.04813480E-09  2.55808886E-09
 -1.10574494E-05  1.83001414E-03 -1.10518454E-05  1.83001888E-03 -1.10581454E-05
  1.83002149E-03 -1.10548626E-05  1.82999548E-03 -1.10622990E-05  1.82998637E-03
 -1.10598052E-05  1.82998497E-03 -7.04194606E-01 -1.99890707E-02 -4.09789505E-05
 -2.77347161E-09 -1.77223583E-09  1.30901265E-02  1.65536801E-03  1.40871252E-08
  1.36381810E-08  9.54766256E-04  1.21016966E-03  1.21017075E-03 -7.16523713E-10
 -1.77108221E-09  3.09760836E-09  7.04206291E-01  1.99894048E-02 -4.09797924E-05
 -1.64216779E-09  7.25539244E-09 -1.30902586E-02  1.65535517E-03  7.22735362E-09
 -3.90517148E-08 -9.54794359E-04 -1.21019277E-03 -1.21019332E-03  3.32782928E-10
 -9.29640872E-10  2.16846344E-09 -1.91912994E-04 -1.77475875E-03 -1.91917966E-04
 -1.77476604E-03 -1.91914337E-04 -1.77476617E-03  1.91919924E-04  1.77480972E-03
  1.91911170E-04  1.77478191E-03  1.91913561E-04  1.77479063E-03 -1.45282956E-01
  2.69373011E-01  5.80657883E-02  2.71351592E-07  2.36333424E-08  2.39843074E-01
  7.65544985E-03  9.75001302E-08  2.57534552E-07  1.27482361E-02  4.22016181E-03
  4.22014340E-03  2.92924205E-08 -5.21452877E-08 -1.63003292E-07 -1.45282972E-01
  2.69373043E-01 -5.80657801E-02 -1.99620352E-07  6.84462909E-07  2.39843091E-01
 -7.65544828E-03 -4.19186726E-08  2.12593326E-07  1.27482307E-02  4.22015592E-03
  4.22015760E-03  2.87288903E-08 -6.01169377E-08  4.12511921E-08  8.49194740E-02
  1.77624331E-02  8.49194234E-02  1.77623830E-02  8.49198728E-02  1.77625093E-02
  8.49199547E-02  1.77625063E-02  8.49193899E-02  1.77623956E-02  8.49194844E-02
  1.77624356E-02 -1.26739113E-01  2.35752136E-01 -1.28287806E-01  4.33869368E-07
 -4.36894181E-07  2.80012629E-01 -3.91889221E-02  2.07735872E-07  1.30266648E-07
 -1.08882635E-02  1.26335998E-02  1.26335254E-02  5.06109717E-08 -1.25696308E-07
 -1.98385225E-07  1.26739098E-01 -2.35752111E-01 -1.28287792E-01  3.77561414E-07
 -1.06461974E-06 -2.80012583E-01 -3.91889127E-02  1.18150062E-07 -5.80794454E-07
  1.08882687E-02 -1.26335860E-02 -1.26335418E-02 -4.41760641E-08  1.73079317E-07
 -1.38609546E-07  1.16609692E-01  4.41518987E-02  1.16609352E-01  4.41517238E-02
  1.16609897E-01  4.41519368E-02 -1.16609457E-01 -4.41516819E-02 -1.16609839E-01
 -4.41520037E-02 -1.16609611E-01 -4.41518586E-02 -1.30137458E-08  1.43130730E-07
  4.69807515E-07  2.38714326E-01 -1.96128771E-01  5.67169763E-08  3.20016222E-07
  1.16551480E-01 -9.57591999E-02 -1.41046437E-07 -1.32998683E-02  1.33000027E-02
 -6.12636593E-03  5.03335343E-03 -1.05492188E-02 -3.14222213E-07  6.87951179E-07
  1.65836554E-06  2.38710740E-01 -1.96124719E-01  5.37034136E-07  8.46706153E-07
  1.16549339E-01 -9.57569884E-02  2.52327951E-07  1.32999896E-02 -1.33002358E-02
  6.12597171E-03 -5.03290732E-03  1.05488287E-02 -1.42223336E-01 -1.05703213E-01
 -2.43117558E-02 -1.80690459E-02  1.66535435E-01  1.23772287E-01 -1.66531366E-01
 -1.23769814E-01  2.43094432E-02  1.80673736E-02  1.42221644E-01  1.05702491E-01
  2.53697169E-07 -7.24362952E-07  3.95177015E-07  1.96124629E-01  2.38710583E-01
 -2.80742919E-07  1.59921197E-07  9.57569204E-02  1.16549508E-01  7.35895466E-09
 -9.13564189E-03  9.13564995E-03 -5.03321326E-03 -6.12598602E-03  1.53573887E-02
  2.56730431E-07 -5.84981520E-07 -1.49235291E-06  1.96128694E-01  2.38714427E-01
 -6.09087586E-07 -6.67255430E-07  9.57593535E-02  1.16551583E-01 -1.77981891E-07
  9.13545789E-03 -9.13528862E-03  5.03365364E-03  6.12639465E-03 -1.53576914E-02
 -1.10183074E-01 -8.18909552E-02  1.78258294E-01  1.32486113E-01 -6.80753657E-02
 -5.05951878E-02  6.80775110E-02  5.05967551E-02 -1.78262152E-01 -1.32488387E-01
  1.10184706E-01  8.18915752E-02 -1.66961293E-02  3.87904455E-02  4.02288421E-01
  5.76824132E-06 -1.27918787E-05  3.76107050E-02  2.04844772E-01  3.33692684E-06
 -7.47364948E-06  2.34814705E-02 -1.45224425E-02 -1.45213820E-02 -5.04587268E-07
  1.05626173E-06 -8.64599655E-07 -1.66961121E-02  3.87904058E-02 -4.02288423E-01
 -6.02048140E-06  1.06554370E-05  3.76106696E-02 -2.04844769E-01 -3.47765433E-06
  6.32089651E-06  2.34814769E-02 -1.45224364E-02 -1.45213903E-02 -4.94399484E-07
  1.14109436E-06 -1.05571167E-06 -8.20850184E-02 -7.68128018E-02 -8.20854606E-02
 -7.68133698E-02 -8.20700599E-02 -7.67995600E-02 -8.20697778E-02 -7.67995961E-02
 -8.20857771E-02 -7.68133418E-02 -8.20849841E-02 -7.68128100E-02 -6.84069149E-07
  1.56871218E-06  1.13612053E-05 -3.00784783E-01  6.02808053E-02  1.91840609E-06
  6.08747382E-06 -1.79595744E-01  3.59928373E-02  8.28968733E-07  2.00595227E-02
 -2.00605019E-02  2.42374268E-02 -4.85760007E-03  2.60281211E-03 -6.97668589E-07
  1.62020441E-06 -1.12423679E-05  3.00786022E-01 -6.02857596E-02  1.82897248E-06
 -5.99708896E-06  1.79596532E-01 -3.59957197E-02  8.51461122E-07  2.00597358E-02
 -2.00607409E-02  2.42373818E-02 -4.85742680E-03  2.60298329E-03  2.07126363E-01
  1.95607242E-01 -7.29300387E-02 -6.88744263E-02 -1.34203593E-01 -1.26739800E-01
 -1.34205181E-01 -1.26742090E-01 -7.29295093E-02 -6.88732493E-02  2.07127335E-01
  1.95608318E-01 -7.40213305E-07  1.45309783E-06  1.54224656E-05  6.02855488E-02
  3.00786133E-01  3.23105858E-06  8.30671454E-06  3.59963237E-02  1.79596445E-01
  9.82775825E-07 -2.25494283E-03  2.25381853E-03 -4.85765920E-03 -2.42373020E-02
  2.31636576E-02 -9.21236610E-07  2.27147075E-06 -1.39308198E-05 -6.02803106E-02
 -3.00784777E-01  1.64114081E-06 -7.23738264E-06 -3.59929737E-02 -1.79595636E-01
  1.24790217E-06 -2.25417696E-03  2.25270679E-03 -4.85782163E-03 -2.42373331E-02
  2.31634910E-02 -3.53819014E-02 -3.34145644E-02  1.97066078E-01  1.86107093E-01
 -1.61692882E-01 -1.52701206E-01 -1.61694991E-01 -1.52703061E-01  1.97062955E-01
  1.86103885E-01 -3.53780601E-02 -3.34102975E-02 -9.51896904E-02  7.02213014E-02
 -9.97739653E-02  6.36130281E-07  1.36573894E-06  1.69704254E+00 -5.29622026E-01
  4.88540815E-06  3.80367930E-06 -1.23005181E-04 -1.07373313E-02 -1.07373602E-02
  2.45773982E-08 -1.50649241E-08 -7.22117360E-09 -9.51896761E-02  7.02212790E-02
  9.97739690E-02 -7.93447427E-08  2.75866211E-06  1.69704255E+00  5.29621847E-01
 -2.44560145E-06  1.49576453E-05 -1.23003226E-04 -1.07373372E-02 -1.07373559E-02
  1.44893368E-08 -6.69446599E-08  7.55609420E-08  3.49652785E-03 -8.19081929E-01
  3.49621085E-03 -8.19088466E-01  3.49625805E-03 -8.19081866E-01  3.49571933E-03
 -8.19092952E-01  3.49682294E-03 -8.19075874E-01  3.49644410E-03 -8.19083267E-01
 -1.25810288E-01  5.16576212E-02 -3.84072405E-02 -4.50238887E-06  1.02696947E-05
  2.45437846E+00  2.18641284E-01 -1.44842573E-05  3.34368682E-05 -1.20881548E-02
 -6.79285635E-03 -6.79260925E-03 -3.71998536E-07  1.01225700E-06 -2.29623241E-07
  1.25810300E-01 -5.16576325E-02 -3.84072158E-02 -4.29057521E-06  1.24839291E-05
 -2.45437875E+00  2.18641349E-01 -1.35706466E-05  4.31795396E-05  1.20881541E-02
  6.79285624E-03  6.79261332E-03  3.95549135E-07 -7.89704018E-07  3.57754149E-07
  2.28682657E-03 -8.47087539E-01  2.28650837E-03 -8.47091104E-01  2.29178898E-03
 -8.47004963E-01 -2.29217479E-03  8.46989743E-01 -2.28609935E-03  8.47108166E-01
 -2.28687270E-03  8.47086085E-01 -1.51936956E-06  1.00427044E-06 -1.29015180E-06
 -2.05536109E-01 -1.24565453E-01  3.13603573E-05 -2.12588451E-06 -7.32896210E-01
 -4.44159007E-01 -5.18262811E-08 -2.98001360E-03  2.97983146E-03 -1.52401148E-02
 -9.23666675E-03  2.51267841E-03  6.69262440E-07 -1.68819527E-08  7.40286237E-07
 -2.05528592E-01 -1.24566135E-01 -1.29781318E-05  6.90951530E-06 -7.32849003E-01
 -4.44175242E-01  7.87379601E-08  2.97932147E-03 -2.97922159E-03  1.52405475E-02
  9.23660951E-03 -2.51259708E-03 -4.76288123E-02 -1.08236258E+00  5.04568090E-02
  1.14658812E+00 -2.82829236E-03 -6.42603267E-02  2.82860169E-03  6.42960901E-02
 -5.04557086E-02 -1.14658541E+00  4.76267475E-02  1.08230070E+00 -6.77581880E-06
  1.94149519E-06 -4.29371919E-06  1.24559492E-01 -2.05533156E-01  1.47316746E-04
  9.22366723E-06  4.44129279E-01 -7.32881183E-01 -3.70131506E-07  2.17484623E-03
 -2.17588163E-03  9.23688206E-03 -1.52401490E-02  3.44056998E-03  5.72469918E-06
 -7.04802450E-07 -1.71368599E-06  1.24572485E-01 -2.05532171E-01 -1.24773954E-04
  2.05430331E-05  4.44210564E-01 -7.32868544E-01  4.03689499E-07 -2.17603037E-03
  2.17697237E-03 -9.23613785E-03  1.52402175E-02 -3.44042219E-03  3.07616294E-02
  6.98998225E-01  2.58657952E-02  5.87752803E-01 -5.66269263E-02 -1.28690979E+00
  5.66282773E-02  1.28693037E+00 -2.58644739E-02 -5.87700985E-01 -3.07651648E-02
 -6.99099347E-01 -1.12307127E-06 -3.08547856E-07 -2.12845906E-06 -6.98605366E-02
  1.95665563E-01  2.94156701E-05  2.21290677E-06 -4.68474594E-01  1.31206879E+00
 -9.89024155E-08 -4.33463619E-03  4.33461057E-03  3.66784621E-03 -1.02717848E-02
 -1.09470015E-02  6.33570132E-07  8.77942986E-07  2.29350452E-06  6.98626109E-02
 -1.95659483E-01 -1.70880093E-05  2.00422529E-05  4.68475134E-01 -1.31204696E+00
  9.43713719E-09 -4.33458631E-03  4.33475592E-03  3.66743596E-03 -1.02722204E-02
 -1.09469112E-02 -9.45891584E-03 -5.18540689E-01 -1.62948440E-02 -8.93155548E-01
  2.57549219E-02  1.41167009E+00  2.57547490E-02  1.41165511E+00 -1.62935419E-02
 -8.93106380E-01 -9.46149792E-03 -5.18541469E-01 -4.05570690E-07 -3.43278096E-07
  2.56484271E-07  1.95663976E-01  6.98530665E-02  1.03608104E-05  6.15028849E-06
  1.31206392E+00  4.68440428E-01 -1.80279530E-08  9.48030214E-03 -9.48034307E-03
 -1.02719872E-02 -3.66831944E-03 -5.00513111E-03  4.52385959E-07  2.49507958E-07
 -1.61503865E-07 -1.95662811E-01 -6.98716882E-02 -1.22302869E-05  5.00065823E-06
 -1.31206209E+00 -4.68508413E-01  3.35023883E-08  9.48030877E-03 -9.48025648E-03
 -1.02721602E-02 -3.66703169E-03 -5.00536322E-03  2.42765670E-02  1.33068135E+00
 -2.03294299E-02 -1.11436301E+00 -3.94653868E-03 -2.16325806E-01 -3.94443851E-03
 -2.16217885E-01 -2.03311844E-02 -1.11444992E+00  2.42754866E-02  1.33067636E+00
 -4.60440412E-02  1.54489298E-02  2.63259344E-01 -1.15122034E-07 -1.72411168E-06
  1.06846044E+00  1.93635473E+00  4.14582610E-07 -5.14257960E-06 -1.64674799E-02
  1.15047936E-02  1.15048378E-02  3.10914387E-08  1.99322902E-08 -2.49355093E-07
  4.60440383E-02 -1.54489035E-02  2.63259314E-01  2.78446190E-07  1.29300550E-06
 -1.06846050E+00  1.93635469E+00  1.70578304E-06  5.20289461E-06  1.64674897E-02
 -1.15047853E-02 -1.15048522E-02 -9.82867663E-09  1.64735753E-07  3.31407473E-08
  4.90412252E-02  4.44476673E-01  4.90411571E-02  4.44477763E-01  4.90426549E-02
  4.44461734E-01 -4.90430041E-02 -4.44463772E-01 -4.90408546E-02 -4.44475308E-01
 -4.90412848E-02 -4.44476872E-01 -1.16878258E-02 -6.75775429E-02 -5.98748045E-01
  2.55454243E-06 -6.36510788E-06 -2.79918391E-01  9.07350800E-01 -3.36312726E-06
  1.01136335E-05 -1.14026237E-01  3.27597050E-02  3.27597016E-02  5.40524629E-08
  8.58878560E-08 -5.95087137E-07 -1.16878113E-02 -6.75774712E-02  5.98748138E-01
 -2.76905573E-06  6.90109854E-06 -2.79918745E-01 -9.07350413E-01  4.04172501E-06
 -8.31258986E-06 -1.14026220E-01  3.27596493E-02  3.27597623E-02 -4.48325434E-08
 -4.76285906E-07  1.07085925E-07  1.34504090E-01 -6.11382699E-03  1.34502188E-01
 -6.11468689E-03  1.34508419E-01 -6.12143651E-03  1.34506866E-01 -6.12430608E-03
  1.34504289E-01 -6.11182857E-03  1.34503639E-01 -6.11422634E-03  2.49816477E-07
  3.56089085E-06  1.37280595E-06 -3.49633546E-01 -2.47673115E-01 -9.56896045E-06
 -2.63219492E-06  5.92235831E-01  4.19525823E-01  6.07034028E-07  4.39548283E-02
 -4.39545827E-02  4.97415852E-02  3.52354795E-02 -4.29432610E-02  8.55993567E-08
  2.83004195E-06 -1.21853378E-06 -3.49626237E-01 -2.47666541E-01 -2.87188226E-06
 -4.02769634E-06  5.92229780E-01  4.19520895E-01  7.68959998E-07 -4.39529200E-02
  4.39530610E-02 -4.97415994E-02 -3.52355818E-02  4.29429170E-02  3.45203059E-01
 -1.20174466E-03 -3.97497793E-01  1.38707790E-03  5.22969144E-02 -1.83937549E-04
 -5.22958466E-02  1.81259774E-04  3.97494819E-01 -1.37530567E-03 -3.45196508E-01
  1.19671209E-03  1.28328642E-07  3.88151882E-06  6.40569354E-06  2.47663758E-01
 -3.49627282E-01 -2.19254823E-05 -2.07976888E-05 -4.19522815E-01  5.92234776E-01
 -5.40347874E-07 -3.71885651E-02  3.71890493E-02 -3.52353899E-02  4.97406623E-02
 -5.07544293E-02  2.20938910E-07  2.96784426E-06  4.19019925E-06  2.47674974E-01
 -3.49631654E-01  8.30300497E-06 -2.32079401E-05 -4.19532400E-01  5.92238913E-01
  1.92831173E-06  3.71914054E-02 -3.71913871E-02  3.52353553E-02 -4.97405771E-02
  5.07542413E-02 -2.59685105E-01  8.92606324E-04 -1.69110294E-01  5.86246752E-04
  4.28792771E-01 -1.47793649E-03 -4.28795737E-01  1.48818589E-03  1.69109259E-01
 -5.83627700E-04  2.59694580E-01 -9.01290107E-04  7.85541637E-07  3.30864216E-07
  2.48182413E-07  2.74720310E-01 -5.81837667E-01  1.09611451E-05 -4.09216708E-07
 -7.14787879E-01  1.51386368E+00  2.63022427E-06 -3.78551739E-02  3.78537038E-02
 -3.30539198E-03  6.99912372E-03 -7.51139434E-02 -2.76861474E-07  2.63094643E-06
 -1.68579031E-05 -2.74714505E-01  5.81835894E-01  8.74185033E-08  3.34530593E-05
  7.14769799E-01 -1.51385450E+00  6.51294245E-08 -3.78550145E-02  3.78548740E-02
 -3.30289936E-03  6.99736643E-03 -7.51126156E-02 -1.29971770E-01 -1.64817877E-01
 -1.56733167E-01 -1.98747031E-01  2.86708853E-01  3.63563597E-01  2.86698724E-01
  3.63552452E-01 -1.56733363E-01 -1.98749215E-01 -1.29971016E-01 -1.64812626E-01
 -4.47884399E-07 -7.07172724E-07  4.45281878E-06  5.81837832E-01  2.74716408E-01
 -4.51429812E-07 -9.70642535E-06 -1.51387413E+00 -7.14772673E-01 -1.07848146E-06
 -6.50507813E-02  6.50510400E-02 -6.99823213E-03 -3.30264063E-03  4.37099320E-02
  2.56973474E-07 -2.11578988E-06  6.29880376E-06 -5.81840282E-01 -2.74720230E-01
  5.92342316E-06 -1.12944807E-05  1.51388161E+00  7.14793819E-01  5.78110750E-07
 -6.50506743E-02  6.50500731E-02 -6.99921531E-03 -3.30655435E-03  4.37126163E-02
 -2.56018499E-01 -3.24664080E-01  2.40559252E-01  3.05061660E-01  1.54546340E-02
  1.95990585E-02  1.54459978E-02  1.95911595E-02  2.40573010E-01  3.05075874E-01
 -2.56017339E-01 -3.24665100E-01  5.19263850E-02 -3.26161801E-01 -8.08073053E-01
  5.53705169E-06  3.07473032E-06  7.88772139E-01  1.57676854E+00 -1.10365063E-05
 -1.38553957E-05  1.03418916E-01 -4.55553728E-02 -4.55550108E-02  2.46862465E-08
 -2.02677601E-07  3.08215774E-07 -5.19263774E-02  3.26161745E-01 -8.08073037E-01
  2.70866513E-06 -1.84742284E-05 -7.88772155E-01  1.57676838E+00 -3.80478866E-06
  4.07181423E-05 -1.03418937E-01  4.55553196E-02  4.55550757E-02 -1.85967661E-08
  2.75005894E-07  8.23064905E-07  1.22960885E-01  2.39964383E-01  1.22962617E-01
  2.39974350E-01  1.22961235E-01  2.39969203E-01 -1.22962606E-01 -2.39985278E-01
 -1.22960832E-01 -2.39956361E-01 -1.22961081E-01 -2.39966341E-01 -4.00341605E-07
  9.75415237E-06 -7.27097572E-06  4.87623935E-01  5.09467055E-01 -1.65492382E-05
  7.11979703E-06 -7.22370163E-01 -7.54734971E-01  2.07945448E-06  4.79862848E-02
 -4.79866755E-02  9.84433966E-02  1.02852333E-01 -6.88575368E-02 -4.35664620E-07
  4.16345942E-06 -6.31348239E-07  4.87611338E-01  5.09453434E-01 -6.19173922E-06
  5.08965607E-06 -7.22369763E-01 -7.54722229E-01  1.49709579E-06 -4.79808513E-02
  4.79798341E-02 -9.84427526E-02 -1.02851863E-01  6.88532474E-02  3.25085865E-01
 -8.07545789E-01 -4.74084930E-01  1.17766255E+00  1.48979450E-01 -3.70091773E-01