082_4-Methylimidazole Gaussian SP Calculation on node142.bme.utexas.edu 
Freq      RMP2-FC                                                     6-31G(d)            
Number of atoms                            I               12
Info1-9                                    I   N=           9
          23          22        1002           0           0         100
           6           2           1
Charge                                     I                0
Multiplicity                               I                1
Number of electrons                        I               44
Number of alpha electrons                  I               22
Number of beta electrons                   I               22
Number of basis functions                  I              102
Number of independent functions            I              102
Number of point charges in /Mol/           I                0
Number of translation vectors              I                0
Atomic numbers                             I   N=          12
           7           7           6           6           6           6
           1           1           1           1           1           1
Nuclear charges                            R   N=          12
  7.00000000E+00  7.00000000E+00  6.00000000E+00  6.00000000E+00  6.00000000E+00
  6.00000000E+00  1.00000000E+00  1.00000000E+00  1.00000000E+00  1.00000000E+00
  1.00000000E+00  1.00000000E+00
Current cartesian coordinates              R   N=          36
  3.23398051E-01 -1.96653775E+00  2.13521950E-04  2.90951954E+00  1.34910754E+00
 -6.75116144E-05 -1.22567046E+00  1.30225547E-01 -5.58708564E-05 -4.03844268E+00
 -3.12669942E-02 -8.10309810E-05  4.31665071E-01  2.14476327E+00 -2.14757441E-04
  2.77453222E+00 -1.14988855E+00  1.84615880E-04 -2.61010894E-01 -3.78911337E+00
  3.23205455E-04 -4.75756102E+00 -1.01237749E+00  1.67458158E+00 -4.82929927E+00
  1.87558347E+00 -3.65654910E-04 -4.75750556E+00 -1.01285150E+00 -1.67448995E+00
 -4.05242394E-02  4.13559181E+00 -4.32206810E-04  4.36297294E+00 -2.43782104E+00
  3.63212076E-04
Force Field                                I                0
Int Atom Types                             I   N=          12
           0           0           0           0           0           0
           0           0           0           0           0           0
MM charges                                 R   N=          12
  0.00000000E+00  0.00000000E+00  0.00000000E+00  0.00000000E+00  0.00000000E+00
  0.00000000E+00  0.00000000E+00  0.00000000E+00  0.00000000E+00  0.00000000E+00
  0.00000000E+00  0.00000000E+00
Integer atomic weights                     I   N=          12
          14          14          12          12          12          12
           1           1           1           1           1           1
Real atomic weights                        R   N=          12
  1.40030740E+01  1.40030740E+01  1.20000000E+01  1.20000000E+01  1.20000000E+01
  1.20000000E+01  1.00782504E+00  1.00782504E+00  1.00782504E+00  1.00782504E+00
  1.00782504E+00  1.00782504E+00
Atom fragment info                         I   N=          12
           0           0           0           0           0           0
           0           0           0           0           0           0
Atom residue num                           I   N=          12
           0           0           0           0           0           0
           0           0           0           0           0           0
Nuclear spins                              I   N=          12
           2           2           0           0           0           0
           1           1           1           1           1           1
Nuclear ZEff                               R   N=          12
 -4.55000000E+00 -4.55000000E+00 -3.60000000E+00 -3.60000000E+00 -3.60000000E+00
 -3.60000000E+00 -1.00000000E+00 -1.00000000E+00 -1.00000000E+00 -1.00000000E+00
 -1.00000000E+00 -1.00000000E+00
Nuclear QMom                               R   N=          12
  2.04400000E+00  2.04400000E+00  0.00000000E+00  0.00000000E+00  0.00000000E+00
  0.00000000E+00  0.00000000E+00  0.00000000E+00  0.00000000E+00  0.00000000E+00
  0.00000000E+00  0.00000000E+00
Nuclear GFac                               R   N=          12
  4.03761000E-01  4.03761000E-01  0.00000000E+00  0.00000000E+00  0.00000000E+00
  0.00000000E+00  2.79284600E+00  2.79284600E+00  2.79284600E+00  2.79284600E+00
  2.79284600E+00  2.79284600E+00
MicOpt                                     I   N=          12
          -1          -1          -1          -1          -1          -1
          -1          -1          -1          -1          -1          -1
Number of contracted shells                I               36
Number of primitive shells                 I               90
Pure/Cartesian d shells                    I                1
Pure/Cartesian f shells                    I                0
Highest angular momentum                   I                2
Largest degree of contraction              I                6
Shell types                                I   N=          36
           0          -1          -1           2           0          -1
          -1           2           0          -1          -1           2
           0          -1          -1           2           0          -1
          -1           2           0          -1          -1           2
           0           0           0           0           0           0
           0           0           0           0           0           0
Number of primitives per shell             I   N=          36
           6           3           1           1           6           3
           1           1           6           3           1           1
           6           3           1           1           6           3
           1           1           6           3           1           1
           3           1           3           1           3           1
           3           1           3           1           3           1
Shell to atom map                          I   N=          36
           1           1           1           1           2           2
           2           2           3           3           3           3
           4           4           4           4           5           5
           5           5           6           6           6           6
           7           7           8           8           9           9
          10          10          11          11          12          12
Primitive exponents                        R   N=          90
  4.17351146E+03  6.27457911E+02  1.42902093E+02  4.02343293E+01  1.28202129E+01
  4.39043701E+00  1.16263619E+01  2.71627981E+00  7.72218397E-01  2.12031498E-01
  8.00000000E-01  4.17351146E+03  6.27457911E+02  1.42902093E+02  4.02343293E+01
  1.28202129E+01  4.39043701E+00  1.16263619E+01  2.71627981E+00  7.72218397E-01
  2.12031498E-01  8.00000000E-01  3.04752488E+03  4.57369518E+02  1.03948685E+02
  2.92101553E+01  9.28666296E+00  3.16392696E+00  7.86827235E+00  1.88128854E+00
  5.44249258E-01  1.68714478E-01  8.00000000E-01  3.04752488E+03  4.57369518E+02
  1.03948685E+02  2.92101553E+01  9.28666296E+00  3.16392696E+00  7.86827235E+00
  1.88128854E+00  5.44249258E-01  1.68714478E-01  8.00000000E-01  3.04752488E+03
  4.57369518E+02  1.03948685E+02  2.92101553E+01  9.28666296E+00  3.16392696E+00
  7.86827235E+00  1.88128854E+00  5.44249258E-01  1.68714478E-01  8.00000000E-01
  3.04752488E+03  4.57369518E+02  1.03948685E+02  2.92101553E+01  9.28666296E+00
  3.16392696E+00  7.86827235E+00  1.88128854E+00  5.44249258E-01  1.68714478E-01
  8.00000000E-01  1.87311370E+01  2.82539436E+00  6.40121692E-01  1.61277759E-01
  1.87311370E+01  2.82539436E+00  6.40121692E-01  1.61277759E-01  1.87311370E+01
  2.82539436E+00  6.40121692E-01  1.61277759E-01  1.87311370E+01  2.82539436E+00
  6.40121692E-01  1.61277759E-01  1.87311370E+01  2.82539436E+00  6.40121692E-01
  1.61277759E-01  1.87311370E+01  2.82539436E+00  6.40121692E-01  1.61277759E-01
Contraction coefficients                   R   N=          90
  1.83477216E-03  1.39946270E-02  6.85865518E-02  2.32240873E-01  4.69069948E-01
  3.60455199E-01 -1.14961182E-01 -1.69117479E-01  1.14585195E+00  1.00000000E+00
  1.00000000E+00  1.83477216E-03  1.39946270E-02  6.85865518E-02  2.32240873E-01
  4.69069948E-01  3.60455199E-01 -1.14961182E-01 -1.69117479E-01  1.14585195E+00
  1.00000000E+00  1.00000000E+00  1.83473713E-03  1.40373228E-02  6.88426223E-02
  2.32184443E-01  4.67941348E-01  3.62311985E-01 -1.19332420E-01 -1.60854152E-01
  1.14345644E+00  1.00000000E+00  1.00000000E+00  1.83473713E-03  1.40373228E-02
  6.88426223E-02  2.32184443E-01  4.67941348E-01  3.62311985E-01 -1.19332420E-01
 -1.60854152E-01  1.14345644E+00  1.00000000E+00  1.00000000E+00  1.83473713E-03
  1.40373228E-02  6.88426223E-02  2.32184443E-01  4.67941348E-01  3.62311985E-01
 -1.19332420E-01 -1.60854152E-01  1.14345644E+00  1.00000000E+00  1.00000000E+00
  1.83473713E-03  1.40373228E-02  6.88426223E-02  2.32184443E-01  4.67941348E-01
  3.62311985E-01 -1.19332420E-01 -1.60854152E-01  1.14345644E+00  1.00000000E+00
  1.00000000E+00  3.34946043E-02  2.34726953E-01  8.13757326E-01  1.00000000E+00
  3.34946043E-02  2.34726953E-01  8.13757326E-01  1.00000000E+00  3.34946043E-02
  2.34726953E-01  8.13757326E-01  1.00000000E+00  3.34946043E-02  2.34726953E-01
  8.13757326E-01  1.00000000E+00  3.34946043E-02  2.34726953E-01  8.13757326E-01
  1.00000000E+00  3.34946043E-02  2.34726953E-01  8.13757326E-01  1.00000000E+00
P(S=P) Contraction coefficients            R   N=          90
  0.00000000E+00  0.00000000E+00  0.00000000E+00  0.00000000E+00  0.00000000E+00
  0.00000000E+00  6.75797439E-02  3.23907296E-01  7.40895140E-01  1.00000000E+00
  0.00000000E+00  0.00000000E+00  0.00000000E+00  0.00000000E+00  0.00000000E+00
  0.00000000E+00  0.00000000E+00  6.75797439E-02  3.23907296E-01  7.40895140E-01
  1.00000000E+00  0.00000000E+00  0.00000000E+00  0.00000000E+00  0.00000000E+00
  0.00000000E+00  0.00000000E+00  0.00000000E+00  6.89990666E-02  3.16423961E-01
  7.44308291E-01  1.00000000E+00  0.00000000E+00  0.00000000E+00  0.00000000E+00
  0.00000000E+00  0.00000000E+00  0.00000000E+00  0.00000000E+00  6.89990666E-02
  3.16423961E-01  7.44308291E-01  1.00000000E+00  0.00000000E+00  0.00000000E+00
  0.00000000E+00  0.00000000E+00  0.00000000E+00  0.00000000E+00  0.00000000E+00
  6.89990666E-02  3.16423961E-01  7.44308291E-01  1.00000000E+00  0.00000000E+00
  0.00000000E+00  0.00000000E+00  0.00000000E+00  0.00000000E+00  0.00000000E+00
  0.00000000E+00  6.89990666E-02  3.16423961E-01  7.44308291E-01  1.00000000E+00
  0.00000000E+00  0.00000000E+00  0.00000000E+00  0.00000000E+00  0.00000000E+00
  0.00000000E+00  0.00000000E+00  0.00000000E+00  0.00000000E+00  0.00000000E+00
  0.00000000E+00  0.00000000E+00  0.00000000E+00  0.00000000E+00  0.00000000E+00
  0.00000000E+00  0.00000000E+00  0.00000000E+00  0.00000000E+00  0.00000000E+00
  0.00000000E+00  0.00000000E+00  0.00000000E+00  0.00000000E+00  0.00000000E+00
Coordinates of each shell                  R   N=         108
  3.23398051E-01 -1.96653775E+00  2.13521950E-04  3.23398051E-01 -1.96653775E+00
  2.13521950E-04  3.23398051E-01 -1.96653775E+00  2.13521950E-04  3.23398051E-01
 -1.96653775E+00  2.13521950E-04  2.90951954E+00  1.34910754E+00 -6.75116144E-05
  2.90951954E+00  1.34910754E+00 -6.75116144E-05  2.90951954E+00  1.34910754E+00
 -6.75116144E-05  2.90951954E+00  1.34910754E+00 -6.75116144E-05 -1.22567046E+00
  1.30225547E-01 -5.58708564E-05 -1.22567046E+00  1.30225547E-01 -5.58708564E-05
 -1.22567046E+00  1.30225547E-01 -5.58708564E-05 -1.22567046E+00  1.30225547E-01
 -5.58708564E-05 -4.03844268E+00 -3.12669942E-02 -8.10309810E-05 -4.03844268E+00
 -3.12669942E-02 -8.10309810E-05 -4.03844268E+00 -3.12669942E-02 -8.10309810E-05
 -4.03844268E+00 -3.12669942E-02 -8.10309810E-05  4.31665071E-01  2.14476327E+00
 -2.14757441E-04  4.31665071E-01  2.14476327E+00 -2.14757441E-04  4.31665071E-01
  2.14476327E+00 -2.14757441E-04  4.31665071E-01  2.14476327E+00 -2.14757441E-04
  2.77453222E+00 -1.14988855E+00  1.84615880E-04  2.77453222E+00 -1.14988855E+00
  1.84615880E-04  2.77453222E+00 -1.14988855E+00  1.84615880E-04  2.77453222E+00
 -1.14988855E+00  1.84615880E-04 -2.61010894E-01 -3.78911337E+00  3.23205455E-04
 -2.61010894E-01 -3.78911337E+00  3.23205455E-04 -4.75756102E+00 -1.01237749E+00
  1.67458158E+00 -4.75756102E+00 -1.01237749E+00  1.67458158E+00 -4.82929927E+00
  1.87558347E+00 -3.65654910E-04 -4.82929927E+00  1.87558347E+00 -3.65654910E-04
 -4.75750556E+00 -1.01285150E+00 -1.67448995E+00 -4.75750556E+00 -1.01285150E+00
 -1.67448995E+00 -4.05242394E-02  4.13559181E+00 -4.32206810E-04 -4.05242394E-02
  4.13559181E+00 -4.32206810E-04  4.36297294E+00 -2.43782104E+00  3.63212076E-04
  4.36297294E+00 -2.43782104E+00  3.63212076E-04
Constraint Structure                       R   N=          36
  3.23398051E-01 -1.96653775E+00  2.13521950E-04  2.90951954E+00  1.34910754E+00
 -6.75116144E-05 -1.22567046E+00  1.30225547E-01 -5.58708564E-05 -4.03844268E+00
 -3.12669942E-02 -8.10309810E-05  4.31665071E-01  2.14476327E+00 -2.14757441E-04
  2.77453222E+00 -1.14988855E+00  1.84615880E-04 -2.61010894E-01 -3.78911337E+00
  3.23205455E-04 -4.75756102E+00 -1.01237749E+00  1.67458158E+00 -4.82929927E+00
  1.87558347E+00 -3.65654910E-04 -4.75750556E+00 -1.01285150E+00 -1.67448995E+00
 -4.05242394E-02  4.13559181E+00 -4.32206810E-04  4.36297294E+00 -2.43782104E+00
  3.63212076E-04
Num ILSW                                   I              100
ILSW                                       I   N=         100
           0           1           0           1           2           0
           0           0           0           0           0          -1
           0           0           0           0           0           0
           0           0           0           0           1           0
           1           0           0           0           0           0
           0           0      100000           0          -1           0
           0           0           0           0           0           0
           0           0           0           1           1           0
           0           0           1           0           0           0
           0           0           4          40           0           0
           0           0           0           0           0           0
           0           0           0           0           0           0
           0           0           0           0           0           0
           0           0           0           0           0           0
           0           0           0           0           0           0
           0           0           0           0           0           0
           0           0           0           0
Num RLSW                                   I               40
RLSW                                       R   N=          40
  1.00000000E+00  1.00000000E+00  1.00000000E+00  1.00000000E+00  1.00000000E+00
  0.00000000E+00  0.00000000E+00  1.00000000E+00  0.00000000E+00  0.00000000E+00
  0.00000000E+00  0.00000000E+00  1.00000000E+00  0.00000000E+00  0.00000000E+00
  0.00000000E+00  0.00000000E+00  1.00000000E+00  0.00000000E+00  0.00000000E+00
  0.00000000E+00  0.00000000E+00  1.00000000E+00  0.00000000E+00  0.00000000E+00
  0.00000000E+00  0.00000000E+00  1.00000000E+00  0.00000000E+00  0.00000000E+00
  0.00000000E+00  0.00000000E+00  0.00000000E+00  0.00000000E+00  0.00000000E+00
  0.00000000E+00  0.00000000E+00  0.00000000E+00  1.00000000E+00  1.00000000E+00
MxBond                                     I                4
NBond                                      I   N=          12
           3           2           3           4           3           3
           1           1           1           1           1           1
IBond                                      I   N=          48
           3           6           7           0           5           6
           0           0           1           4           5           0
           3           8           9          10           2           3
          11           0           1           2          12           0
           1           0           0           0           4           0
           0           0           4           0           0           0
           4           0           0           0           5           0
           0           0           6           0           0           0
RBond                                      R   N=          48
  1.50000000E+00  1.50000000E+00  1.00000000E+00  0.00000000E+00  1.00000000E+00
  1.50000000E+00  0.00000000E+00  0.00000000E+00  1.50000000E+00  1.00000000E+00
  1.50000000E+00  0.00000000E+00  1.00000000E+00  1.00000000E+00  1.00000000E+00
  1.00000000E+00  1.00000000E+00  1.50000000E+00  1.00000000E+00  0.00000000E+00
  1.50000000E+00  1.50000000E+00  1.00000000E+00  0.00000000E+00  1.00000000E+00
  0.00000000E+00  0.00000000E+00  0.00000000E+00  1.00000000E+00  0.00000000E+00
  0.00000000E+00  0.00000000E+00  1.00000000E+00  0.00000000E+00  0.00000000E+00
  0.00000000E+00  1.00000000E+00  0.00000000E+00  0.00000000E+00  0.00000000E+00
  1.00000000E+00  0.00000000E+00  0.00000000E+00  0.00000000E+00  1.00000000E+00
  0.00000000E+00  0.00000000E+00  0.00000000E+00
Virial Ratio                               R      2.002634407635105E+00
SCF Energy                                 R     -2.638517498847771E+02
MP2 Energy                                 R     -2.646917164043405E+02
Total Energy                               R     -2.646917164043405E+02
Post-SCF wavefunction norm                 R      1.604205559881843E+00
RMS Force                                  R      4.828885475128649E-07
RMS Density                                R      3.838782922951323E-09
External E-field                           R   N=          35
  0.00000000E+00  0.00000000E+00  0.00000000E+00  0.00000000E+00  0.00000000E+00
  0.00000000E+00  0.00000000E+00  0.00000000E+00  0.00000000E+00  0.00000000E+00
  0.00000000E+00  0.00000000E+00  0.00000000E+00  0.00000000E+00  0.00000000E+00
  0.00000000E+00  0.00000000E+00  0.00000000E+00  0.00000000E+00  0.00000000E+00
  0.00000000E+00  0.00000000E+00  0.00000000E+00  0.00000000E+00  0.00000000E+00
  0.00000000E+00  0.00000000E+00  0.00000000E+00  0.00000000E+00  0.00000000E+00
  0.00000000E+00  0.00000000E+00  0.00000000E+00  0.00000000E+00  0.00000000E+00
IOpCl                                      I                0
IROHF                                      I                0
Alpha Orbital Energies                     R   N=         102
 -1.56201848E+01 -1.55407621E+01 -1.12908479E+01 -1.12624438E+01 -1.12403076E+01
 -1.12325536E+01 -1.32950923E+00 -1.15645512E+00 -1.04050643E+00 -9.34211840E-01
 -8.17187892E-01 -7.84717381E-01 -7.16650293E-01 -6.13950702E-01 -6.09914279E-01
 -5.66679504E-01 -5.56964279E-01 -5.53571306E-01 -5.47616655E-01 -4.24204880E-01
 -3.87029314E-01 -3.00780034E-01  1.86118357E-01  2.14695170E-01  2.45919589E-01
  2.58149365E-01  2.87920578E-01  2.95310709E-01  3.28477466E-01  3.32510328E-01
  3.97751450E-01  4.14719987E-01  4.46320963E-01  4.96771512E-01  5.67028017E-01
  6.37742970E-01  7.21547955E-01  7.46116453E-01  7.51673299E-01  7.88266546E-01
  8.21575226E-01  8.64511134E-01  8.75434750E-01  8.87676530E-01  9.00349959E-01
  9.28723375E-01  9.41958763E-01  1.03093087E+00  1.04645192E+00  1.05953420E+00
  1.07723356E+00  1.11105167E+00  1.12210682E+00  1.14465401E+00  1.15068909E+00
  1.17063909E+00  1.18114741E+00  1.21293093E+00  1.26282769E+00  1.31883646E+00
  1.43217211E+00  1.49515872E+00  1.57820596E+00  1.58590377E+00  1.63098207E+00
  1.64597235E+00  1.66671673E+00  1.73178571E+00  1.78994962E+00  1.85812978E+00
  1.88070723E+00  2.04668317E+00  2.13125754E+00  2.17944235E+00  2.18687161E+00
  2.21732914E+00  2.38242691E+00  2.42834122E+00  2.44866543E+00  2.47546331E+00
  2.53870091E+00  2.55743390E+00  2.59424979E+00  2.62231093E+00  2.68870807E+00
  2.72195772E+00  2.74313721E+00  2.82854311E+00  2.92578431E+00  2.94253117E+00
  2.99303544E+00  3.07635509E+00  3.18179844E+00  3.35525298E+00  3.39368133E+00
  3.49891479E+00  4.34466088E+00  4.43867989E+00  4.54062201E+00  4.64322880E+00
  4.69390013E+00  4.94081418E+00
Alpha MO coefficients                      R   N=       10404
  9.94981246E-01  2.52817214E-02  4.28221719E-05  6.88933442E-05 -5.59457341E-08
 -3.98002303E-03 -1.24164113E-04 -1.37505960E-03  1.75025368E-07 -3.42673018E-03
 -3.38552375E-03 -3.37563049E-03  5.93604823E-05 -7.01961497E-09  7.23758317E-09
 -2.20265856E-04 -2.19407486E-05 -8.13071969E-07  3.96654052E-05 -4.10493500E-09
 -1.15039422E-04 -7.00523032E-05  3.14293431E-04 -3.12202968E-08  4.60323867E-05
 -4.65783742E-06 -1.44705088E-05 -1.93849688E-05  3.41167011E-09 -2.35404170E-09
  2.25867183E-05  1.69377445E-04  1.09851866E-04 -2.04967560E-04  2.43032831E-08
  2.16317601E-03  1.80063605E-03 -8.81423746E-04  1.36067953E-07 -6.12397295E-05
 -3.77565350E-05 -6.50380559E-05  1.69861012E-06 -2.32691061E-10 -3.20056091E-09
 -6.81717366E-06 -2.74677806E-05  1.95264408E-06  2.12742973E-05 -2.57043522E-09
  6.95150129E-04  2.23910875E-04  2.58632732E-04 -2.75725694E-08 -1.97356330E-05
  1.13418227E-05 -3.55735264E-05  5.46796988E-05 -6.35004345E-09 -6.25567845E-09
  1.48631976E-05  1.07381563E-05  6.12279089E-05  1.00066996E-05  1.46268324E-09
 -1.11237574E-03 -4.74596056E-04  9.58102513E-04 -1.10016684E-07  1.98170662E-05
  4.94839295E-05  1.68102726E-05 -9.82565269E-06  9.69875766E-10 -4.99125009E-09
  2.79359066E-05  1.97526766E-04 -2.41951397E-04 -1.10241038E-04  4.50084731E-09
  1.73973242E-03 -1.00542437E-03  4.58240234E-04 -7.80886870E-08 -9.37155983E-05
 -4.49797820E-05 -5.36822596E-05 -1.09532838E-05  1.21883973E-09 -1.21996981E-09
  1.28911745E-04  1.20568055E-04  1.61371690E-06 -8.74565602E-06 -3.50049435E-05
 -5.67802137E-05  1.61289609E-06 -8.74058187E-06 -7.04600596E-05 -3.10709482E-04
 -1.16028227E-06  2.43412444E-04  2.30866507E-04 -7.70970631E-05 -6.60244948E-05
 -2.64014995E-05  8.63596171E-10 -1.05834368E-04 -2.41648831E-04  1.47811886E-04
 -2.14972365E-08 -5.76765279E-07  8.60504201E-05 -5.37037675E-05 -7.23069293E-06
  2.06585985E-09 -1.69135299E-08  9.95217165E-01  2.46963679E-02 -1.62457652E-03
 -1.28071608E-03  8.78535966E-08 -4.99783470E-03  2.10895601E-03  1.30764421E-03
 -7.78980755E-08 -2.85220131E-03 -2.66976917E-03 -3.16193997E-03  2.69971566E-05
  7.43540948E-09 -5.64450596E-08  1.65741690E-05  1.85346560E-05 -1.42159824E-05
 -5.94783398E-05  5.27399496E-09 -1.71408634E-03 -1.47105587E-03 -2.40186623E-04
 -1.40156060E-08  3.78006058E-05  8.48468982E-06  1.44662476E-05 -1.66391592E-05
  1.55142981E-09  6.44168747E-10  8.47948591E-07  2.08823804E-05 -2.87530024E-05
 -9.61163873E-06  5.42108487E-10 -5.73786875E-04 -2.05153349E-04  5.49394165E-05
 -3.28941074E-09 -1.41316707E-05 -6.65155362E-07 -6.51334757E-06  2.48301911E-06
  4.52344238E-10 -1.65433201E-09  7.51027325E-06  3.43883746E-04  1.25131568E-04
 -2.86362263E-05  6.13591149E-09  3.39174370E-03  7.25276424E-04 -1.71471677E-03
  1.92951000E-07 -4.26708300E-04 -1.10556156E-04 -9.29899704E-05  1.61110321E-04
 -2.66239837E-08  6.85148219E-09  3.31816142E-05  4.12148771E-04  4.13494773E-05
  2.32365989E-05 -6.66340579E-10  2.34121302E-03 -7.98631779E-04  1.02629744E-03
 -1.25941451E-07 -7.87442887E-05 -6.23121061E-04 -4.10757687E-05  3.18710235E-06
 -1.90192158E-09  6.88200244E-08 -9.40407617E-06  6.92597507E-05  1.58889273E-05
  1.33055457E-05 -5.23286337E-06  1.14060270E-05  1.58908691E-05  1.33081839E-05
  2.07119130E-05  3.61086187E-04  3.26066698E-05  2.10158199E-04 -2.16197531E-04
  5.77475107E-04  8.27517556E-06  8.79108248E-05 -5.57556428E-09 -2.04658762E-03
 -8.32483342E-04 -2.86786700E-03  2.60429287E-07 -5.47826008E-04 -2.27845489E-04
  2.71648563E-04 -1.57932292E-04 -3.81355027E-09  6.67770250E-08 -3.19071226E-04
  2.66197696E-04 -6.21594099E-06 -2.70782861E-05  1.82796917E-09 -5.20966574E-04
  8.38172890E-04  4.33284213E-04 -2.00370440E-08 -2.65979209E-04 -1.80840429E-04
  1.83129186E-04 -7.50899711E-05 -6.91995556E-09  4.03547256E-08 -6.20331920E-04
 -1.98413370E-04  3.93260657E-06 -2.13639814E-04  2.39662041E-08  1.47346977E-03
  3.29156448E-03 -2.20675266E-04  1.12981788E-07  2.51607167E-04  1.68182915E-04
 -9.54488696E-06 -1.44574760E-04  2.63017365E-08 -2.69579876E-08  1.59114394E-05
 -7.43807515E-05  7.57105058E-05 -4.06138849E-05  7.49438629E-09  1.86795596E-03
  7.62683538E-04  3.48367162E-04 -4.56850839E-08 -1.48770769E-05  1.85134572E-05
 -2.06856020E-05  9.60613258E-06 -2.39239336E-09 -5.84435505E-09 -2.14381769E-04
 -1.06608770E-04  2.43419113E-04  3.15126153E-05  2.99391492E-09 -7.00250118E-04
  2.18645518E-04  5.93023379E-05  3.24888649E-09  1.54892850E-04  2.85050745E-05
 -2.21713660E-05 -1.33863206E-04  1.95332300E-08 -1.12770284E-08  9.95641926E-01
  2.68246518E-02 -1.00161773E-03 -7.99482420E-05 -9.41992058E-09 -6.01233904E-03
 -1.17295155E-03  1.07110090E-03 -1.39073141E-07 -1.45419267E-03 -1.54548893E-03
 -2.48953119E-03 -5.15550633E-05  3.30992511E-08 -1.12265879E-07 -3.26949674E-04
 -8.52379745E-04 -2.03977909E-05  4.00765460E-05 -9.18317972E-05 -9.84150342E-05
 -2.04003624E-05  4.00744091E-05  1.79202131E-05  1.30629388E-04 -2.31765013E-04
  2.40779149E-03 -1.92378542E-04  6.46510331E-04  2.10628418E-05  6.07987128E-05
 -2.57583456E-09 -2.47500355E-03 -7.20361991E-04 -3.15012471E-03  3.02624572E-07
 -3.07764032E-04 -5.54341427E-04  2.86760865E-04  3.05269723E-04 -4.94822626E-08
  1.24710647E-07  7.48439644E-05  2.19577664E-04 -6.69912909E-05  2.45697274E-06
 -3.05216967E-09 -2.63679597E-03  3.80228229E-04  1.34208390E-03 -1.26603007E-07
  2.97595004E-04  4.27224151E-05  1.74650041E-04 -1.98989565E-05  5.23173941E-09
  1.40684488E-08  9.95330452E-01  2.71840443E-02  3.99028143E-04 -9.50735078E-04
  1.33816926E-07 -9.68882060E-03  2.79717888E-03 -1.45260055E-03  1.85638039E-07
 -1.14850129E-03 -1.50003892E-03 -2.26392827E-03 -9.86843407E-05  4.43636903E-08
 -9.67806998E-08  1.50737568E-02  4.86355007E-04 -1.90706930E-04 -4.42093997E-05
  7.39867240E-09  3.76728070E-03  2.04451926E-03  7.75791971E-04 -7.48529621E-08
 -7.01923609E-04 -1.58146879E-04 -1.43642421E-04  5.11040554E-05 -1.36894641E-08
 -1.87405444E-10  2.14637154E-02  4.35681086E-04  1.71031379E-04  1.69599723E-04
 -1.13083168E-08  2.70621288E-03 -1.74306456E-03 -1.44409536E-04 -2.05431513E-08
 -2.33038987E-04 -4.58741158E-04 -1.32321813E-04 -5.01989792E-06 -3.30638491E-09
  3.36751530E-08  6.43971250E-04 -1.77021073E-04 -1.70327266E-04 -1.48198659E-05
 -2.10516994E-09  3.21852568E-03 -2.08133608E-03  2.32305082E-03 -2.88444718E-07
  3.12840317E-04  1.40268231E-04 -4.81760941E-05 -8.15444394E-06  9.35650176E-09
 -2.16590854E-08 -3.17776308E-04 -9.52628955E-04 -1.67955570E-04  4.59761079E-04
 -1.42728130E-04 -1.82043872E-04 -1.67951433E-04  4.59742422E-04 -1.42504472E-04
 -4.74176423E-04  1.08373103E-04  1.08925829E-03 -1.82555588E-05 -1.71665357E-04
  9.56339646E-05 -7.99546829E-06  1.13978794E-09  8.20864964E-04 -5.10296903E-04
  5.90815427E-04 -7.28108084E-08 -5.55600665E-05  1.00262469E-04 -1.26299297E-04
 -6.70712870E-05  8.09913152E-09 -3.06645940E-08 -1.24472706E-05 -4.02935505E-05
 -7.01689217E-06  6.31573334E-06  4.32126445E-10  1.15241291E-04 -2.14336998E-05
 -9.63911552E-05  4.98371270E-09 -1.62231348E-07 -2.14043730E-05 -4.23701084E-05
 -1.79665757E-06  2.32000573E-09 -2.37078705E-09 -1.53629699E-02 -2.42885461E-04
  8.51199868E-05  2.96991535E-05 -3.28917460E-09  3.50540055E-03 -3.48335370E-03
  3.85481740E-04 -1.10328599E-07 -6.18622913E-04 -2.02696459E-04 -1.01692213E-04
  7.47610489E-06 -1.24807983E-08  1.39961919E-08  9.95630054E-01  2.85808343E-02
  2.44140880E-04 -1.73249536E-05  7.74899337E-10 -1.63703047E-02 -1.30924070E-03
 -2.42989933E-04  1.77973464E-08 -1.80462483E-03 -1.82866066E-03 -1.82222799E-03
 -2.25833967E-05  3.34056143E-09  1.27454274E-10 -2.26345383E-03 -1.13657472E-04
  4.69705484E-05 -5.50852184E-05  3.99992705E-09  4.66252849E-04  2.25702119E-04
 -4.48162902E-04  5.61898752E-08 -5.84015406E-05  1.19134284E-04 -3.65013751E-05
  3.38556950E-05 -5.00357538E-09 -1.56018776E-08 -5.04074481E-05 -5.35435226E-05
 -2.92755562E-05 -1.23783780E-05  1.42458275E-09  2.97630099E-04 -2.03088530E-04
 -1.72595340E-04  9.52631389E-09  2.46375254E-05  2.13313857E-06 -1.83345221E-05
  1.63873122E-05  5.82709405E-10 -2.44993076E-09 -7.42636253E-05  1.67175889E-04
  1.74744487E-04  2.53247925E-03  2.04820720E-04  2.58702877E-03  1.74745472E-04
  2.53248074E-03  2.23125063E-05  6.97179929E-05 -1.51464602E-05 -9.85202537E-06
  1.01596844E-04  2.82172778E-04  3.32628368E-06  1.46069645E-04 -1.46289842E-08
 -3.23974239E-03 -9.06540543E-04 -1.43544956E-03  1.23251426E-07  1.12156882E-04
  3.04831866E-04  2.08617482E-04 -7.42396491E-05  6.93984271E-09 -8.95299563E-09
 -2.22283983E-04  3.94164643E-04 -1.61559507E-05  7.98553168E-05 -8.69649706E-09
 -8.75010555E-04  7.43390690E-04  6.35598985E-04 -4.67990833E-08 -4.69641538E-04
 -2.16758508E-04  2.13841641E-04  7.50042372E-05 -2.88244997E-08  5.27382532E-08
 -2.20184594E-02 -7.30692742E-04 -9.67029792E-05 -1.93588161E-04  1.62094724E-08
  5.57684705E-03  1.56363607E-03  1.53341020E-03 -1.08895450E-07 -3.41610085E-04
 -2.96424871E-04 -3.66031469E-05 -8.64486450E-05  2.43723192E-10  2.83617126E-08
  1.93887426E-03  2.38255154E-05 -4.09968490E-05 -3.71179312E-05 -7.77511034E-10
 -2.54028348E-04 -2.37909313E-05 -1.27848411E-04  2.70227844E-08  5.67431512E-05
  2.19960070E-05 -4.45181330E-05 -9.39815666E-06  1.40468242E-09 -9.00693581E-09
  9.95409264E-01  2.73942797E-02  4.87961015E-04 -4.38604406E-04  5.55918299E-08
 -1.10673742E-02  1.04785541E-03  1.53266903E-03 -1.23308593E-07 -1.61918606E-03
 -1.59003952E-03 -2.38497533E-03 -5.43519135E-05  2.94594466E-08 -9.63595508E-08