
    -----------------------------------------------------------------------
          Psi4: An Open-Source Ab Initio Electronic Structure Package
                               Psi4 1.4a3.dev225 

                         Git: Rev {master} 7105e37 


    D. G. A. Smith, L. A. Burns, A. C. Simmonett, R. M. Parrish,
    M. C. Schieber, R. Galvelis, P. Kraus, H. Kruse, R. Di Remigio,
    A. Alenaizan, A. M. James, S. Lehtola, J. P. Misiewicz, M. Scheurer,
    R. A. Shaw, J. B. Schriber, Y. Xie, Z. L. Glick, D. A. Sirianni,
    J. S. O'Brien, J. M. Waldrop, A. Kumar, E. G. Hohenstein,
    B. P. Pritchard, B. R. Brooks, H. F. Schaefer III, A. Yu. Sokolov,
    K. Patkowski, A. E. DePrince III, U. Bozkaya, R. A. King,
    F. A. Evangelista, J. M. Turney, T. D. Crawford, C. D. Sherrill,
    J. Chem. Phys. 152(18) 184108 (2020). https://doi.org/10.1063/5.0006002

                            Additional Code Authors
    E. T. Seidl, C. L. Janssen, E. F. Valeev, M. L. Leininger,
    J. F. Gonthier, R. M. Richard, H. R. McAlexander, M. Saitow, X. Wang,
    P. Verma, and M. H. Lechner

             Previous Authors, Complete List of Code Contributors,
                       and Citations for Specific Modules
    https://github.com/psi4/psi4/blob/master/codemeta.json
    https://github.com/psi4/psi4/graphs/contributors
    http://psicode.org/psi4manual/master/introduction.html#citing-psifour

    -----------------------------------------------------------------------


    Psi4 started on: Sunday, 28 February 2021 03:31PM

    Process ID: 4109
    Host:       c420-003.stampede2.tacc.utexas.edu
    PSIDATADIR: /home1/07844/xy3866/miniconda3/envs/p4env/share/psi4
    Memory:     500.0 MiB
    Threads:    32
    
  ==> Input File <==

--------------------------------------------------------------------------
#psi4
#
memory 32 gb

molecule  {
1 1
  N       -3.4197460    -0.1817000     0.1602720
  N       -0.6214370    -0.0078370    -0.1287630
  C       -2.7377630    -0.6049400    -1.1216890
  C       -2.6265040     0.8533270     0.9259500
  C       -1.3397990    -1.0900720    -0.7822260
  C       -1.2267490     0.3141230     1.1574790
  C        0.8091060    -0.1845140    -0.0397240
  C        1.6179690     0.9496740    -0.2359790
  C        1.3698700    -1.4337860     0.2499420
  C        3.0044760     0.7849240    -0.1342920
  C        1.0196790     2.2951990    -0.5492200
  C        2.7558540    -1.5738690     0.3292430
  C        3.5736970    -0.4590730     0.1432710
  H       -2.7010110     0.2771110    -1.7633110
  H       -3.3565410    -1.3799850    -1.5813290
  H       -3.1641810     1.0582560     1.8552750
  H       -2.5989570     1.7488760     0.3025170
  H       -1.4126900    -2.0099640    -0.1705650
  H       -0.8261290    -1.3544960    -1.7108330
  H       -0.6365290     1.0912410     1.6504410
  H       -1.2635171    -0.7129997     1.9657381
  H       -4.3648950     0.1725180    -0.0402120
  H       -3.5438220    -1.0118610     0.7575640
  H        0.7360800    -2.3037000     0.4086560
  H        3.6499200     1.6470780    -0.2894290
  H        0.2227830     2.2055990    -1.2916560
  H        0.5919240     2.7705950     0.3416580
  H        1.7859030     2.9697170    -0.9386560
  H        3.1912420    -2.5456860     0.5460090
  H        4.6540550    -0.5586080     0.2046590
units angstrom
no_reorient  #important for SAPT in psi4, default
symmetry c1  #important for SAPT in psi4, default
}

set PROPERTIES_ORIGIN ["COM"]
properties('MP2/aug-cc-pvtz', properties = ['dipole'])
--------------------------------------------------------------------------

  Memory set to  29.802 GiB by Python driver.
    SCF Algorithm Type (re)set to DF.

*** tstart() called on c420-003.stampede2.tacc.utexas.edu
*** at Sun Feb 28 15:31:13 2021

   => Loading Basis Set <=

    Name: AUG-CC-PVTZ
    Role: ORBITAL
    Keyword: BASIS
    atoms 1-2   entry N          line   285 file /home1/07844/xy3866/miniconda3/envs/p4env/share/psi4/basis/aug-cc-pvtz.gbs 
    atoms 3-13  entry C          line   239 file /home1/07844/xy3866/miniconda3/envs/p4env/share/psi4/basis/aug-cc-pvtz.gbs 
    atoms 14-30 entry H          line    40 file /home1/07844/xy3866/miniconda3/envs/p4env/share/psi4/basis/aug-cc-pvtz.gbs 


         ---------------------------------------------------------
                                   SCF
               by Justin Turney, Rob Parrish, Andy Simmonett
                          and Daniel G. A. Smith
                              RHF Reference
                       32 Threads,  30517 MiB Core
         ---------------------------------------------------------

  ==> Geometry <==

    Molecular point group: c1
    Full point group: C1

    Geometry (in Angstrom), charge = 1, multiplicity = 1:

       Center              X                  Y                   Z               Mass       
    ------------   -----------------  -----------------  -----------------  -----------------
         N           -3.470225926364    -0.168363904775     0.160256543038    14.003074004430
         N           -0.671916926364     0.005499095225    -0.128778456962    14.003074004430
         C           -2.788242926364    -0.591603904775    -1.121704456962    12.000000000000
         C           -2.676983926364     0.866663095225     0.925934543038    12.000000000000
         C           -1.390278926364    -1.076735904775    -0.782241456962    12.000000000000
         C           -1.277228926364     0.327459095225     1.157463543038    12.000000000000
         C            0.758626073636    -0.171177904775    -0.039739456962    12.000000000000
         C            1.567489073636     0.963010095225    -0.235994456962    12.000000000000
         C            1.319390073636    -1.420449904775     0.249926543038    12.000000000000
         C            2.953996073636     0.798260095225    -0.134307456962    12.000000000000
         C            0.969199073636     2.308535095225    -0.549235456962    12.000000000000
         C            2.705374073636    -1.560532904775     0.329227543038    12.000000000000
         C            3.523217073636    -0.445736904775     0.143255543038    12.000000000000
         H           -2.751490926364     0.290447095225    -1.763326456962     1.007825032230
         H           -3.407020926364    -1.366648904775    -1.581344456962     1.007825032230
         H           -3.214660926364     1.071592095225     1.855259543038     1.007825032230
         H           -2.649436926364     1.762212095225     0.302501543038     1.007825032230
         H           -1.463169926364    -1.996627904775    -0.170580456962     1.007825032230
         H           -0.876608926364    -1.341159904775    -1.710848456962     1.007825032230
         H           -0.687008926364     1.104577095225     1.650425543038     1.007825032230
         H           -1.313997026364    -0.699663604775     1.965722643038     1.007825032230
         H           -4.415374926364     0.185854095225    -0.040227456962     1.007825032230
         H           -3.594301926364    -0.998524904775     0.757548543038     1.007825032230
         H            0.685600073636    -2.290363904775     0.408640543038     1.007825032230
         H            3.599440073636     1.660414095225    -0.289444456962     1.007825032230
         H            0.172303073636     2.218935095225    -1.291671456962     1.007825032230
         H            0.541444073636     2.783931095225     0.341642543038     1.007825032230
         H            1.735423073636     2.983053095225    -0.938671456962     1.007825032230
         H            3.140762073636    -2.532349904775     0.545993543038     1.007825032230
         H            4.603575073636    -0.545271904775     0.204643543038     1.007825032230

  Running in c1 symmetry.

  Rotational constants: A =      0.05656  B =      0.01671  C =      0.01467 [cm^-1]
  Rotational constants: A =   1695.77484  B =    500.96190  C =    439.83752 [MHz]
  Nuclear repulsion =  819.314574961987887

  Charge       = 1
  Multiplicity = 1
  Electrons    = 96
  Nalpha       = 48
  Nbeta        = 48

  ==> Algorithm <==

  SCF Algorithm Type is DF.
  DIIS enabled.
  MOM disabled.
  Fractional occupation disabled.
  Guess Type is SAD.
  Energy threshold   = 1.00e-10
  Density threshold  = 1.00e-10
  Integral threshold = 1.00e-12

  ==> Primary Basis <==

  Basis Set: AUG-CC-PVTZ
    Blend: AUG-CC-PVTZ
    Number of shells: 335
    Number of basis functions: 989
    Number of Cartesian functions: 1140
    Spherical Harmonics?: true
    Max angular momentum: 3

   => Loading Basis Set <=

    Name: (AUG-CC-PVTZ AUX)
    Role: JKFIT
    Keyword: DF_BASIS_SCF
    atoms 1-2   entry N          line   224 file /home1/07844/xy3866/miniconda3/envs/p4env/share/psi4/basis/aug-cc-pvtz-jkfit.gbs 
    atoms 3-13  entry C          line   162 file /home1/07844/xy3866/miniconda3/envs/p4env/share/psi4/basis/aug-cc-pvtz-jkfit.gbs 
    atoms 14-30 entry H          line    70 file /home1/07844/xy3866/miniconda3/envs/p4env/share/psi4/basis/aug-cc-pvtz-jkfit.gbs 

  ==> Integral Setup <==

  DFHelper Memory: AOs need 13.839 GiB; user supplied 22.352 GiB. Using in-core AOs.

  ==> MemDFJK: Density-Fitted J/K Matrices <==

    J tasked:                   Yes
    K tasked:                   Yes
    wK tasked:                   No
    OpenMP threads:              32
    Memory [MiB]:             22888
    Algorithm:                 Core
    Schwarz Cutoff:           1E-12
    Mask sparsity (%):      13.9966
    Fitting Condition:        1E-10

   => Auxiliary Basis Set <=

  Basis Set: (AUG-CC-PVTZ AUX)
    Blend: AUG-CC-PVTZ-JKFIT
    Number of shells: 628
    Number of basis functions: 2134
    Number of Cartesian functions: 2638
    Spherical Harmonics?: true
    Max angular momentum: 4

  Minimum eigenvalue in the overlap matrix is 3.4618246328E-07.
  Reciprocal condition number of the overlap matrix is 1.3528685297E-08.
    Using symmetric orthogonalization.

  ==> Pre-Iterations <==

  SCF Guess: Superposition of Atomic Densities via on-the-fly atomic UHF (no occupation information).

   -------------------------
    Irrep   Nso     Nmo    
   -------------------------
     A        989     989 
   -------------------------
    Total     989     989
   -------------------------

  ==> Iterations <==

                           Total Energy        Delta E     RMS |[F,P]|

   @DF-RHF iter SAD:  -535.73907116860312   -5.35739e+02   0.00000e+00 
   @DF-RHF iter   1:  -534.88759463946155    8.51477e-01   7.77880e-04 DIIS
   @DF-RHF iter   2:  -535.22693056012827   -3.39336e-01   3.29869e-04 DIIS
   @DF-RHF iter   3:  -535.28356576328633   -5.66352e-02   8.59247e-05 DIIS
   @DF-RHF iter   4:  -535.28901594851845   -5.45019e-03   2.78062e-05 DIIS
   @DF-RHF iter   5:  -535.28946856696803   -4.52618e-04   8.91674e-06 DIIS
   @DF-RHF iter   6:  -535.28952153830323   -5.29713e-05   2.27959e-06 DIIS
   @DF-RHF iter   7:  -535.28952708075474   -5.54245e-06   9.19844e-07 DIIS
   @DF-RHF iter   8:  -535.28952806444363   -9.83689e-07   3.64520e-07 DIIS
   @DF-RHF iter   9:  -535.28952831604113   -2.51597e-07   1.79899e-07 DIIS
   @DF-RHF iter  10:  -535.28952839110161   -7.50605e-08   8.21172e-08 DIIS
   @DF-RHF iter  11:  -535.28952841042371   -1.93221e-08   3.35647e-08 DIIS
   @DF-RHF iter  12:  -535.28952841288469   -2.46098e-09   1.37020e-08 DIIS
   @DF-RHF iter  13:  -535.28952841311832   -2.33626e-10   3.81901e-09 DIIS
   @DF-RHF iter  14:  -535.28952841314253   -2.42153e-11   1.05816e-09 DIIS
   @DF-RHF iter  15:  -535.28952841314231    2.27374e-13   3.87152e-10 DIIS
   @DF-RHF iter  16:  -535.28952841314333   -1.02318e-12   1.11708e-10 DIIS
   @DF-RHF iter  17:  -535.28952841314242    9.09495e-13   4.76779e-11 DIIS
  Energy and wave function converged.


  ==> Post-Iterations <==

    Orbital Energies [Eh]
    ---------------------

    Doubly Occupied:                                                      

       1A    -15.866619     2A    -15.708201     3A    -11.459077  
       4A    -11.457345     5A    -11.438379     6A    -11.418279  
       7A    -11.376095     8A    -11.345436     9A    -11.340938  
      10A    -11.332282    11A    -11.330500    12A    -11.329287  
      13A    -11.324703    14A     -1.497599    15A     -1.391709  
      16A     -1.250493    17A     -1.220634    18A     -1.155804  
      19A     -1.143339    20A     -1.089033    21A     -1.050492  
      22A     -1.032793    23A     -0.990721    24A     -0.934590  
      25A     -0.923717    26A     -0.904181    27A     -0.865422  
      28A     -0.820059    29A     -0.806915    30A     -0.792943  
      31A     -0.786404    32A     -0.755963    33A     -0.745350  
      34A     -0.735921    35A     -0.714910    36A     -0.702413  
      37A     -0.676675    38A     -0.673926    39A     -0.669847  
      40A     -0.658974    41A     -0.651211    42A     -0.641455  
      43A     -0.598995    44A     -0.592620    45A     -0.588725  
      46A     -0.520192    47A     -0.434290    48A     -0.424421  

    Virtual:                                                              

      49A     -0.096890    50A     -0.074509    51A     -0.066066  
      52A     -0.058511    53A     -0.043060    54A     -0.040025  
      55A     -0.039208    56A     -0.037321    57A     -0.034525  
      58A     -0.019986    59A     -0.019671    60A     -0.017492  
      61A     -0.011625    62A     -0.010967    63A     -0.008124  
      64A     -0.000283    65A      0.001493    66A      0.003692  
      67A      0.006866    68A      0.010146    69A      0.012377  
      70A      0.014556    71A      0.017517    72A      0.020467  
      73A      0.021621    74A      0.029478    75A      0.032671  
      76A      0.033963    77A      0.035115    78A      0.039213  
      79A      0.039740    80A      0.043392    81A      0.047683  
      82A      0.049919    83A      0.051034    84A      0.054920  
      85A      0.059722    86A      0.063209    87A      0.065608  
      88A      0.066851    89A      0.070875    90A      0.077080  
      91A      0.077674    92A      0.080027    93A      0.081531  
      94A      0.085521    95A      0.090580    96A      0.094745  
      97A      0.096213    98A      0.101932    99A      0.103867  
     100A      0.107615   101A      0.114559   102A      0.116571  
     103A      0.119432   104A      0.122490   105A      0.123679  
     106A      0.125020   107A      0.132344   108A      0.133531  
     109A      0.140365   110A      0.141428   111A      0.150220  
     112A      0.153008   113A      0.159966   114A      0.161896  
     115A      0.163940   116A      0.170711   117A      0.172207  
     118A      0.173664   119A      0.176435   120A      0.179843  
     121A      0.185679   122A      0.191711   123A      0.193361  
     124A      0.196388   125A      0.199377   126A      0.204707  
     127A      0.208118   128A      0.212091   129A      0.214405  
     130A      0.218782   131A      0.221569   132A      0.223860  
     133A      0.227270   134A      0.229068   135A      0.231234  
     136A      0.233535   137A      0.235302   138A      0.244095  
     139A      0.246169   140A      0.256043   141A      0.257354  
     142A      0.260714   143A      0.263305   144A      0.265345  
     145A      0.267514   146A      0.268683   147A      0.271365  
     148A      0.273565   149A      0.277039   150A      0.283367  
     151A      0.284683   152A      0.286806   153A      0.293108  
     154A      0.296131   155A      0.298405   156A      0.303865  
     157A      0.307935   158A      0.310994   159A      0.312993  
     160A      0.316676   161A      0.319073   162A      0.324216  
     163A      0.326655   164A      0.330819   165A      0.336272  
     166A      0.339364   167A      0.341963   168A      0.343446  
     169A      0.348344   170A      0.351343   171A      0.359090  
     172A      0.360040   173A      0.361714   174A      0.363918  
     175A      0.367213   176A      0.370073   177A      0.372835  
     178A      0.375109   179A      0.380337   180A      0.385772  
     181A      0.387592   182A      0.390470   183A      0.395796  
     184A      0.399295   185A      0.401961   186A      0.408526  
     187A      0.410300   188A      0.413645   189A      0.414175  
     190A      0.419942   191A      0.422008   192A      0.423902  
     193A      0.427049   194A      0.429629   195A      0.432048  
     196A      0.433188   197A      0.436887   198A      0.439984  
     199A      0.447798   200A      0.451418   201A      0.454729  
     202A      0.455381   203A      0.462053   204A      0.462227  
     205A      0.462813   206A      0.465539   207A      0.471365  
     208A      0.474671   209A      0.476184   210A      0.479786  
     211A      0.484266   212A      0.485649   213A      0.487668  
     214A      0.492339   215A      0.496594   216A      0.504278  
     217A      0.505169   218A      0.509770   219A      0.517473  
     220A      0.519927   221A      0.526085   222A      0.527254  
     223A      0.529524   224A      0.536597   225A      0.538993  
     226A      0.542234   227A      0.548589   228A      0.552308  
     229A      0.562604   230A      0.568231   231A      0.570083  
     232A      0.574425   233A      0.577063   234A      0.581480  
     235A      0.582337   236A      0.585901   237A      0.592585  
     238A      0.597133   239A      0.602070   240A      0.610783  
     241A      0.615224   242A      0.615925   243A      0.622613  
     244A      0.626489   245A      0.633639   246A      0.635669  
     247A      0.645068   248A      0.649322   249A      0.653487  
     250A      0.654514   251A      0.660664   252A      0.664409  
     253A      0.672591   254A      0.672913   255A      0.682823  
     256A      0.689196   257A      0.695695   258A      0.701022  
     259A      0.704203   260A      0.708283   261A      0.714815  
     262A      0.720448   263A      0.725911   264A      0.727819  
     265A      0.731053   266A      0.734816   267A      0.740695  
     268A      0.744022   269A      0.744534   270A      0.748103  
     271A      0.756551   272A      0.760097   273A      0.764265  
     274A      0.774228   275A      0.775271   276A      0.778557  
     277A      0.780761   278A      0.785106   279A      0.795584  
     280A      0.796362   281A      0.800451   282A      0.804368  
     283A      0.808188   284A      0.810770   285A      0.819434  
     286A      0.822600   287A      0.824791   288A      0.826434  
     289A      0.828803   290A      0.836002   291A      0.839659  
     292A      0.844818   293A      0.847750   294A      0.851487  
     295A      0.858809   296A      0.862598   297A      0.866008  
     298A      0.871079   299A      0.875053   300A      0.880773  
     301A      0.882896   302A      0.887596   303A      0.893044  
     304A      0.897862   305A      0.902311   306A      0.906614  
     307A      0.911084   308A      0.915143   309A      0.921272  
     310A      0.923911   311A      0.925508   312A      0.931237  
     313A      0.932661   314A      0.935532   315A      0.944700  
     316A      0.948987   317A      0.952757   318A      0.960334  
     319A      0.960829   320A      0.964520   321A      0.966618  
     322A      0.971981   323A      0.972981   324A      0.977945  
     325A      0.980942   326A      0.985483   327A      0.991266  
     328A      0.996080   329A      1.002108   330A      1.003258  
     331A      1.005774   332A      1.012014   333A      1.016639  
     334A      1.017263   335A      1.025389   336A      1.028860  
     337A      1.032477   338A      1.038181   339A      1.040991  
     340A      1.045381   341A      1.048347   342A      1.055617  
     343A      1.058354   344A      1.061836   345A      1.068568  
     346A      1.070206   347A      1.072505   348A      1.078137  
     349A      1.082904   350A      1.085407   351A      1.091883  
     352A      1.096958   353A      1.102065   354A      1.103963  
     355A      1.110165   356A      1.113878   357A      1.122181  
     358A      1.125266   359A      1.131232   360A      1.133059  
     361A      1.137099   362A      1.140172   363A      1.144371  
     364A      1.147171   365A      1.151809   366A      1.162625  
     367A      1.165194   368A      1.174851   369A      1.180683  
     370A      1.184616   371A      1.186930   372A      1.192934  
     373A      1.196245   374A      1.200320   375A      1.203524  
     376A      1.209001   377A      1.213925   378A      1.217664  
     379A      1.227024   380A      1.231224   381A      1.234045  
     382A      1.236073   383A      1.243934   384A      1.249544  
     385A      1.258379   386A      1.260822   387A      1.263191  
     388A      1.273957   389A      1.277186   390A      1.285816  
     391A      1.292756   392A      1.295459   393A      1.301473  
     394A      1.307474   395A      1.311802   396A      1.317721  
     397A      1.321732   398A      1.326893   399A      1.337122  
     400A      1.344831   401A      1.349774   402A      1.352060  
     403A      1.353970   404A      1.356825   405A      1.361237  
     406A      1.364494   407A      1.377955   408A      1.382925  
     409A      1.390410   410A      1.391609   411A      1.397204  
     412A      1.405018   413A      1.416630   414A      1.418622  
     415A      1.421478   416A      1.428923   417A      1.434753  
     418A      1.437020   419A      1.439970   420A      1.443935  
     421A      1.458335   422A      1.460916   423A      1.465923  
     424A      1.471747   425A      1.474821   426A      1.480620  
     427A      1.483105   428A      1.490071   429A      1.491020  
     430A      1.496893   431A      1.503052   432A      1.514561  
     433A      1.520255   434A      1.530044   435A      1.532532  
     436A      1.534442   437A      1.540995   438A      1.542957  
     439A      1.544447   440A      1.553413   441A      1.559178  
     442A      1.564222   443A      1.568129   444A      1.573143  
     445A      1.576691   446A      1.584448   447A      1.588873  
     448A      1.606429   449A      1.607992   450A      1.612590  
     451A      1.618597   452A      1.620252   453A      1.625388  
     454A      1.628965   455A      1.634545   456A      1.642173  
     457A      1.645885   458A      1.650924   459A      1.658338  
     460A      1.664559   461A      1.667758   462A      1.678490  
     463A      1.683875   464A      1.694430   465A      1.699809  
     466A      1.704176   467A      1.710684   468A      1.715905  
     469A      1.717447   470A      1.728545   471A      1.733398  
     472A      1.734754   473A      1.736580   474A      1.745296  
     475A      1.748516   476A      1.763336   477A      1.768802  
     478A      1.771872   479A      1.776734   480A      1.778271  
     481A      1.785207   482A      1.794682   483A      1.798597  
     484A      1.804810   485A      1.805695   486A      1.809841  
     487A      1.817850   488A      1.827620   489A      1.834879  
     490A      1.835396   491A      1.844547   492A      1.848288  
     493A      1.852812   494A      1.859055   495A      1.865819  
     496A      1.875539   497A      1.880569   498A      1.882098  
     499A      1.890958   500A      1.891418   501A      1.898659  
     502A      1.901849   503A      1.912009   504A      1.915993  
     505A      1.918812   506A      1.922369   507A      1.933656  
     508A      1.939790   509A      1.944363   510A      1.946885  
     511A      1.955759   512A      1.960121   513A      1.971414  
     514A      1.978637   515A      1.982344   516A      1.987451  
     517A      1.994405   518A      2.002050   519A      2.005911  
     520A      2.011759   521A      2.018870   522A      2.024582  
     523A      2.031274   524A      2.039753   525A      2.042572  
     526A      2.047801   527A      2.054227   528A      2.059825  
     529A      2.072090   530A      2.082685   531A      2.084267  
     532A      2.095607   533A      2.097834   534A      2.101170  
     535A      2.106774   536A      2.111781   537A      2.120538  
     538A      2.128189   539A      2.136683   540A      2.141378  
     541A      2.147986   542A      2.161645   543A      2.163018  
     544A      2.172415   545A      2.180843   546A      2.190184  
     547A      2.193865   548A      2.200798   549A      2.213292  
     550A      2.219313   551A      2.228448   552A      2.232995  
     553A      2.233876   554A      2.247082   555A      2.257899  
     556A      2.265470   557A      2.270334   558A      2.277248  
     559A      2.282613   560A      2.291628   561A      2.299868  
     562A      2.307402   563A      2.321073   564A      2.323184  
     565A      2.341126   566A      2.344676   567A      2.347983  
     568A      2.361586   569A      2.369711   570A      2.377002  
     571A      2.383918   572A      2.387853   573A      2.400791  
     574A      2.410267   575A      2.413919   576A      2.425089  
     577A      2.436373   578A      2.445576   579A      2.450627  
     580A      2.460588   581A      2.463242   582A      2.478992  
     583A      2.488579   584A      2.498895   585A      2.508204  
     586A      2.527937   587A      2.541471   588A      2.544437  
     589A      2.554684   590A      2.558952   591A      2.569292  
     592A      2.578680   593A      2.594821   594A      2.602293  
     595A      2.609862   596A      2.619996   597A      2.633818  
     598A      2.643461   599A      2.654371   600A      2.659511  
     601A      2.676087   602A      2.690963   603A      2.701610  
     604A      2.716799   605A      2.722445   606A      2.737476  
     607A      2.748455   608A      2.776767   609A      2.783229  
     610A      2.814439   611A      2.819058   612A      2.837046  
     613A      2.857327   614A      2.870678   615A      2.906495  
     616A      2.927472   617A      2.960438   618A      2.965959  
     619A      3.006713   620A      3.029470   621A      3.037103  
     622A      3.058462   623A      3.070455   624A      3.103793  
     625A      3.122934   626A      3.161086   627A      3.181646  
     628A      3.213590   629A      3.227739   630A      3.252306  
     631A      3.273747   632A      3.282320   633A      3.301902  
     634A      3.313939   635A      3.321924   636A      3.328661  
     637A      3.332754   638A      3.346188   639A      3.357648  
     640A      3.375804   641A      3.377199   642A      3.390529  
     643A      3.396080   644A      3.403335   645A      3.420333  
     646A      3.430360   647A      3.438291   648A      3.443904  
     649A      3.445467   650A      3.459236   651A      3.467620  
     652A      3.473008   653A      3.485760   654A      3.489010  
     655A      3.494696   656A      3.508776   657A      3.512973  
     658A      3.516967   659A      3.523482   660A      3.528735  
     661A      3.538023   662A      3.552708   663A      3.562821  
     664A      3.572551   665A      3.579162   666A      3.580952  
     667A      3.584871   668A      3.595864   669A      3.600447  
     670A      3.610433   671A      3.619748   672A      3.626155  
     673A      3.631310   674A      3.646952   675A      3.658156  
     676A      3.662582   677A      3.671125   678A      3.677167  
     679A      3.683954   680A      3.694785   681A      3.698416  
     682A      3.702144   683A      3.710434   684A      3.712401  
     685A      3.724792   686A      3.737249   687A      3.740681  
     688A      3.755621   689A      3.766819   690A      3.770698  
     691A      3.773640   692A      3.787721   693A      3.796612  
     694A      3.805906   695A      3.812685   696A      3.817710  
     697A      3.820555   698A      3.821886   699A      3.835517  
     700A      3.846247   701A      3.852389   702A      3.862555  
     703A      3.863158   704A      3.871688   705A      3.882216  
     706A      3.886787   707A      3.888606   708A      3.894954  
     709A      3.904818   710A      3.907634   711A      3.913138  
     712A      3.919678   713A      3.928660   714A      3.934403  
     715A      3.935883   716A      3.948260   717A      3.952393  
     718A      3.959945   719A      3.961083   720A      3.966432  
     721A      3.975211   722A      3.990358   723A      3.996225  
     724A      3.998707   725A      4.006418   726A      4.019521  
     727A      4.022687   728A      4.030367   729A      4.031461  
     730A      4.041138   731A      4.048111   732A      4.059830  
     733A      4.066813   734A      4.073280   735A      4.086162  
     736A      4.088547   737A      4.110038   738A      4.112305  
     739A      4.120989   740A      4.123837   741A      4.126106  
     742A      4.133985   743A      4.144335   744A      4.150288  
     745A      4.155747   746A      4.159790   747A      4.173925  
     748A      4.179489   749A      4.191403   750A      4.193599  
     751A      4.199823   752A      4.210082   753A      4.219165  
     754A      4.226063   755A      4.230453   756A      4.237289  
     757A      4.239837   758A      4.254551   759A      4.258206  
     760A      4.261331   761A      4.263075   762A      4.273021  
     763A      4.278707   764A      4.280652   765A      4.296903  
     766A      4.304297   767A      4.320736   768A      4.325669  
     769A      4.330340   770A      4.336090   771A      4.348982  
     772A      4.357212   773A      4.359646   774A      4.363611  
     775A      4.373723   776A      4.379556   777A      4.387324  
     778A      4.392399   779A      4.401319   780A      4.406598  
     781A      4.426213   782A      4.434977   783A      4.449147  
     784A      4.452047   785A      4.464426   786A      4.474684  
     787A      4.479245   788A      4.490662   789A      4.506572  
     790A      4.515612   791A      4.523270   792A      4.528848  
     793A      4.533990   794A      4.544356   795A      4.550267  
     796A      4.561491   797A      4.567305   798A      4.571993  
     799A      4.584653   800A      4.591404   801A      4.605555  
     802A      4.614344   803A      4.628145   804A      4.638887  
     805A      4.644904   806A      4.649951   807A      4.665741  
     808A      4.670853   809A      4.675570   810A      4.682120  
     811A      4.700191   812A      4.702453   813A      4.706994  
     814A      4.714639   815A      4.726799   816A      4.735511  
     817A      4.744610   818A      4.754142   819A      4.759213  
     820A      4.778017   821A      4.782621   822A      4.798763  
     823A      4.808826   824A      4.810439   825A      4.818478  
     826A      4.822121   827A      4.833541   828A      4.845858  
     829A      4.853449   830A      4.861758   831A      4.868936  
     832A      4.873246   833A      4.881665   834A      4.893153  
     835A      4.895829   836A      4.913753   837A      4.919468  
     838A      4.936589   839A      4.949568   840A      4.954360  
     841A      4.964417   842A      4.974996   843A      4.986049  
     844A      4.989306   845A      5.006469   846A      5.018203  
     847A      5.038084   848A      5.044353   849A      5.049428  
     850A      5.056332   851A      5.069371   852A      5.077048  
     853A      5.095851   854A      5.097474   855A      5.100053  
     856A      5.118131   857A      5.121119   858A      5.125985  
     859A      5.131471   860A      5.138550   861A      5.143154  
     862A      5.157179   863A      5.164188   864A      5.177691  
     865A      5.185927   866A      5.195360   867A      5.206249  
     868A      5.215888   869A      5.223649   870A      5.236175  
     871A      5.247275   872A      5.258828   873A      5.261989  
     874A      5.278802   875A      5.285702   876A      5.289476  
     877A      5.296241   878A      5.327381   879A      5.338199  
     880A      5.343163   881A      5.355411   882A      5.358207  
     883A      5.384346   884A      5.388040   885A      5.393749  
     886A      5.399107   887A      5.418650   888A      5.429764  
     889A      5.433347   890A      5.441772   891A      5.454458  
     892A      5.473883   893A      5.489090   894A      5.498826  
     895A      5.507715   896A      5.520273   897A      5.526636  
     898A      5.553841   899A      5.558789   900A      5.565383  
     901A      5.587809   902A      5.594627   903A      5.600543  
     904A      5.619676   905A      5.639395   906A      5.648910  
     907A      5.657904   908A      5.671760   909A      5.678668  
     910A      5.687897   911A      5.712134   912A      5.723204  
     913A      5.740437   914A      5.748117   915A      5.774558  
     916A      5.781400   917A      5.807252   918A      5.819634  
     919A      5.823416   920A      5.843116   921A      5.886300  
     922A      5.893150   923A      5.916185   924A      5.936337  
     925A      5.959127   926A      5.989094   927A      6.013566  
     928A      6.039056   929A      6.045344   930A      6.062526  
     931A      6.081897   932A      6.105805   933A      6.130886  
     934A      6.134725   935A      6.157827   936A      6.160737  
     937A      6.179822   938A      6.209195   939A      6.220296  
     940A      6.235107   941A      6.254533   942A      6.281947  
     943A      6.288943   944A      6.312902   945A      6.338474  
     946A      6.354612   947A      6.367287   948A      6.385878  
     949A      6.406638   950A      6.429879   951A      6.469361  
     952A      6.512250   953A      6.513442   954A      6.561310  
     955A      6.588450   956A      6.624898   957A      6.652788  
     958A      6.697701   959A      6.720861   960A      6.731511  
     961A      6.765862   962A      6.782122   963A      6.800363  
     964A      6.810994   965A      6.864405   966A      6.899772  
     967A      6.912201   968A      6.928314   969A      6.950669  
     970A      7.000591   971A      7.011814   972A      7.046324  
     973A      7.213917   974A      7.225962   975A      7.421342  
     976A      7.765327   977A     16.249264   978A     16.480903  
     979A     17.763757   980A     18.395872   981A     18.569026  
     982A     18.818353   983A     19.047534   984A     19.244865  
     985A     19.470182   986A     19.955334   987A     20.401322  
     988A     21.214223   989A     22.021483  

    Final Occupation by Irrep:
              A 
    DOCC [    48 ]

  @DF-RHF Final Energy:  -535.28952841314242

   => Energetics <=

    Nuclear Repulsion Energy =            819.3145749619878870
    One-Electron Energy =               -2336.8684567252489614
    Two-Electron Energy =                 982.2643533501185402
    Total Energy =                       -535.2895284131424205

Computation Completed

*** tstop() called on c420-003.stampede2.tacc.utexas.edu at Sun Feb 28 15:32:43 2021
Module time:
	user time   =    1862.85 seconds =      31.05 minutes
	system time =     119.97 seconds =       2.00 minutes
	total time  =         90 seconds =       1.50 minutes
Total time:
	user time   =    1862.85 seconds =      31.05 minutes
	system time =     119.97 seconds =       2.00 minutes
	total time  =         90 seconds =       1.50 minutes
   => Loading Basis Set <=

    Name: (AUG-CC-PVTZ AUX)
    Role: RIFIT
    Keyword: DF_BASIS_MP2
    atoms 1-2   entry N          line   206 file /home1/07844/xy3866/miniconda3/envs/p4env/share/psi4/basis/aug-cc-pvtz-ri.gbs 
    atoms 3-13  entry C          line   148 file /home1/07844/xy3866/miniconda3/envs/p4env/share/psi4/basis/aug-cc-pvtz-ri.gbs 
    atoms 14-30 entry H          line    30 file /home1/07844/xy3866/miniconda3/envs/p4env/share/psi4/basis/aug-cc-pvtz-ri.gbs 


*** tstart() called on c420-003.stampede2.tacc.utexas.edu
*** at Sun Feb 28 15:32:45 2021


  //>>>>>>>>>>>>>>>>>>>>>>>>>>>>>>>>>>>//
  //               DFMP2               //
  //<<<<<<<<<<<<<<<<<<<<<<<<<<<<<<<<<<<//

	 --------------------------------------------------------
	                          DF-MP2                         
	      2nd-Order Density-Fitted Moller-Plesset Theory     
	              RMP2 Wavefunction,  32 Threads             
	                                                         
	        Rob Parrish, Justin Turney, Andy Simmonett,      
	           Ed Hohenstein, and C. David Sherrill          
	 --------------------------------------------------------

   => Auxiliary Basis Set <=

  Basis Set: (AUG-CC-PVTZ AUX)
    Blend: AUG-CC-PVTZ-RI
    Number of shells: 602
    Number of basis functions: 2160
    Number of Cartesian functions: 2703
    Spherical Harmonics?: true
    Max angular momentum: 4

	 --------------------------------------------------------
	                 NBF =   989, NAUX =  2160
	 --------------------------------------------------------
	   CLASS    FOCC     OCC    AOCC    AVIR     VIR    FVIR
	   PAIRS       0      48      48     941     941       0
	 --------------------------------------------------------

  DFHelper Memory: AOs need 14.642 GiB; user supplied 22.352 GiB. Using in-core AOs.


         ------------------------------------------------------------
                                     CPHF                           
                                  Rob Parrish                       
         ------------------------------------------------------------

  ==> Geometry <==

    Molecular point group: c1
    Full point group: C1

    Geometry (in Angstrom), charge = 1, multiplicity = 1:

       Center              X                  Y                   Z               Mass       
    ------------   -----------------  -----------------  -----------------  -----------------
         N           -3.470225926364    -0.168363904775     0.160256543038    14.003074004430
         N           -0.671916926364     0.005499095225    -0.128778456962    14.003074004430
         C           -2.788242926364    -0.591603904775    -1.121704456962    12.000000000000
         C           -2.676983926364     0.866663095225     0.925934543038    12.000000000000
         C           -1.390278926364    -1.076735904775    -0.782241456962    12.000000000000
         C           -1.277228926364     0.327459095225     1.157463543038    12.000000000000
         C            0.758626073636    -0.171177904775    -0.039739456962    12.000000000000
         C            1.567489073636     0.963010095225    -0.235994456962    12.000000000000
         C            1.319390073636    -1.420449904775     0.249926543038    12.000000000000
         C            2.953996073636     0.798260095225    -0.134307456962    12.000000000000
         C            0.969199073636     2.308535095225    -0.549235456962    12.000000000000
         C            2.705374073636    -1.560532904775     0.329227543038    12.000000000000
         C            3.523217073636    -0.445736904775     0.143255543038    12.000000000000
         H           -2.751490926364     0.290447095225    -1.763326456962     1.007825032230
         H           -3.407020926364    -1.366648904775    -1.581344456962     1.007825032230
         H           -3.214660926364     1.071592095225     1.855259543038     1.007825032230
         H           -2.649436926364     1.762212095225     0.302501543038     1.007825032230
         H           -1.463169926364    -1.996627904775    -0.170580456962     1.007825032230
         H           -0.876608926364    -1.341159904775    -1.710848456962     1.007825032230
         H           -0.687008926364     1.104577095225     1.650425543038     1.007825032230
         H           -1.313997026364    -0.699663604775     1.965722643038     1.007825032230
         H           -4.415374926364     0.185854095225    -0.040227456962     1.007825032230
         H           -3.594301926364    -0.998524904775     0.757548543038     1.007825032230
         H            0.685600073636    -2.290363904775     0.408640543038     1.007825032230
         H            3.599440073636     1.660414095225    -0.289444456962     1.007825032230
         H            0.172303073636     2.218935095225    -1.291671456962     1.007825032230
         H            0.541444073636     2.783931095225     0.341642543038     1.007825032230
         H            1.735423073636     2.983053095225    -0.938671456962     1.007825032230
         H            3.140762073636    -2.532349904775     0.545993543038     1.007825032230
         H            4.603575073636    -0.545271904775     0.204643543038     1.007825032230

  Nuclear repulsion =  819.314574961987887
  Reference energy  = -535.289528413142421

  ==> Basis Set <==

  Basis Set: AUG-CC-PVTZ
    Blend: AUG-CC-PVTZ
    Number of shells: 335
    Number of basis functions: 989
    Number of Cartesian functions: 1140
    Spherical Harmonics?: true
    Max angular momentum: 3

  ==> CGRSolver (by Rob Parrish) <==

   Number of roots    =         1
   Preconditioning    =    JACOBI
   Convergence cutoff =     1E-06
   Maximum iterations =       100

  ==> CPHFRHamiltonian (by Rob Parrish) <== 

  ==> MemDFJK: Density-Fitted J/K Matrices <==

    J tasked:                   Yes
    K tasked:                   Yes
    wK tasked:                   No
    OpenMP threads:              32
    Memory [MiB]:             22888
    Algorithm:                 Core
    Schwarz Cutoff:           1E-12
    Mask sparsity (%):       8.8298
    Fitting Condition:        1E-10

   => Auxiliary Basis Set <=

  Basis Set: (AUG-CC-PVTZ AUX)
    Blend: AUG-CC-PVTZ-JKFIT
    Number of shells: 628
    Number of basis functions: 2134
    Number of Cartesian functions: 2638
    Spherical Harmonics?: true
    Max angular momentum: 4

  ==> CPHF Iterations <==

  => Iterations <=

             Iter  Converged  Remaining    Residual
  CGR           1          0          1   7.734E-02
  CGR           2          0          1   1.608E-02
  CGR           3          0          1   6.078E-03
  CGR           4          0          1   2.302E-03
  CGR           5          0          1   9.195E-04
  CGR           6          0          1   4.674E-04
  CGR           7          0          1   2.305E-04
  CGR           8          0          1   8.340E-05
  CGR           9          0          1   2.852E-05
  CGR          10          0          1   7.956E-06
  CGR          11          0          1   2.958E-06
  CGR          12          1          0   8.921E-07

    CGRSolver converged.

	-----------------------------------------------------------
	 ==================> DF-MP2 Energies <==================== 
	-----------------------------------------------------------
	 Reference Energy          =    -535.2895284131424205 [Eh]
	 Singles Energy            =      -0.0000000000000000 [Eh]
	 Same-Spin Energy          =      -0.5859065365743584 [Eh]
	 Opposite-Spin Energy      =      -1.9193164862253449 [Eh]
	 Correlation Energy        =      -2.5052230227997034 [Eh]
	 Total Energy              =    -537.7947514359420893 [Eh]
	-----------------------------------------------------------
	 ================> DF-SCS-MP2 Energies <================== 
	-----------------------------------------------------------
	 SCS Same-Spin Scale       =       0.3333333333333333 [-]
	 SCS Opposite-Spin Scale   =       1.2000000000000000 [-]
	 SCS Same-Spin Energy      =      -0.1953021788581195 [Eh]
	 SCS Opposite-Spin Energy  =      -2.3031797834704140 [Eh]
	 SCS Correlation Energy    =      -2.4984819623285333 [Eh]
	 SCS Total Energy          =    -537.7880103754710035 [Eh]
	-----------------------------------------------------------



Properties will be evaluated at   0.000000,   0.000000,  -0.000000 [a0]

Properties computed using the MP2 density matrix

  Nuclear Dipole Moment: [e a0]
     X:    -9.2638      Y:     2.1477      Z:     0.2308

  Electronic Dipole Moment: [e a0]
     X:     4.5377      Y:    -2.3800      Z:    -0.0099

  Dipole Moment: [e a0]
     X:    -4.7261      Y:    -0.2323      Z:     0.2209     Total:     4.7369

  Dipole Moment: [D]
     X:   -12.0124      Y:    -0.5904      Z:     0.5614     Total:    12.0400


*** tstop() called on c420-003.stampede2.tacc.utexas.edu at Sun Feb 28 15:41:44 2021
Module time:
	user time   =    6307.03 seconds =     105.12 minutes
	system time =     182.96 seconds =       3.05 minutes
	total time  =        539 seconds =       8.98 minutes
Total time:
	user time   =    8171.37 seconds =     136.19 minutes
	system time =     302.95 seconds =       5.05 minutes
	total time  =        631 seconds =      10.52 minutes

    Psi4 stopped on: Sunday, 28 February 2021 03:41PM
    Psi4 wall time for execution: 0:10:33.85

*** Psi4 exiting successfully. Buy a developer a beer!
