
    -----------------------------------------------------------------------
          Psi4: An Open-Source Ab Initio Electronic Structure Package
                               Psi4 1.4a3.dev225 

                         Git: Rev {master} 7105e37 


    D. G. A. Smith, L. A. Burns, A. C. Simmonett, R. M. Parrish,
    M. C. Schieber, R. Galvelis, P. Kraus, H. Kruse, R. Di Remigio,
    A. Alenaizan, A. M. James, S. Lehtola, J. P. Misiewicz, M. Scheurer,
    R. A. Shaw, J. B. Schriber, Y. Xie, Z. L. Glick, D. A. Sirianni,
    J. S. O'Brien, J. M. Waldrop, A. Kumar, E. G. Hohenstein,
    B. P. Pritchard, B. R. Brooks, H. F. Schaefer III, A. Yu. Sokolov,
    K. Patkowski, A. E. DePrince III, U. Bozkaya, R. A. King,
    F. A. Evangelista, J. M. Turney, T. D. Crawford, C. D. Sherrill,
    J. Chem. Phys. 152(18) 184108 (2020). https://doi.org/10.1063/5.0006002

                            Additional Code Authors
    E. T. Seidl, C. L. Janssen, E. F. Valeev, M. L. Leininger,
    J. F. Gonthier, R. M. Richard, H. R. McAlexander, M. Saitow, X. Wang,
    P. Verma, and M. H. Lechner

             Previous Authors, Complete List of Code Contributors,
                       and Citations for Specific Modules
    https://github.com/psi4/psi4/blob/master/codemeta.json
    https://github.com/psi4/psi4/graphs/contributors
    http://psicode.org/psi4manual/master/introduction.html#citing-psifour

    -----------------------------------------------------------------------


    Psi4 started on: Friday, 02 April 2021 12:31AM

    Process ID: 259144
    Host:       c435-033.stampede2.tacc.utexas.edu
    PSIDATADIR: /home1/07844/xy3866/miniconda3/envs/p4env/share/psi4
    Memory:     500.0 MiB
    Threads:    8
    
  ==> Input File <==

--------------------------------------------------------------------------
#psi4
#
memory 32 gb

molecule  {
1 1
  N       -3.4197460    -0.1817000     0.1602720
  N       -0.6214370    -0.0078370    -0.1287630
  C       -2.7377630    -0.6049400    -1.1216890
  C       -2.6265040     0.8533270     0.9259500
  C       -1.3397990    -1.0900720    -0.7822260
  C       -1.2267490     0.3141230     1.1574790
  C        0.8091060    -0.1845140    -0.0397240
  C        1.6179690     0.9496740    -0.2359790
  C        1.3698700    -1.4337860     0.2499420
  C        3.0044760     0.7849240    -0.1342920
  C        1.0117309     2.3130739    -0.5533813
  C        2.7558540    -1.5738690     0.3292430
  C        3.5736970    -0.4590730     0.1432710
  H       -2.7010110     0.2771110    -1.7633110
  H       -3.3565410    -1.3799850    -1.5813290
  H       -3.1641810     1.0582560     1.8552750
  H       -2.5989570     1.7488760     0.3025170
  H       -1.4126900    -2.0099640    -0.1705650
  H       -0.8261290    -1.3544960    -1.7108330
  H       -0.6365290     1.0912410     1.6504410
  H       -1.2578930    -0.5558900     1.8421060
  H       -4.3648950     0.1725180    -0.0402120
  H       -3.5438220    -1.0118610     0.7575640
  H        0.7360800    -2.3037000     0.4086560
  H        3.6499200     1.6470780    -0.2894290
  H        0.2227830     2.2055990    -1.2916560
  H        0.5919240     2.7705950     0.3416580
  H        1.7859030     2.9697170    -0.9386560
  H        3.1912420    -2.5456860     0.5460090
  H        4.6540550    -0.5586080     0.2046590
units angstrom
no_reorient  #important for SAPT in psi4, default
symmetry c1  #important for SAPT in psi4, default
}

set PROPERTIES_ORIGIN ["COM"]
properties('MP2/aug-cc-pvtz', properties = ['dipole'])
--------------------------------------------------------------------------

  Memory set to  29.802 GiB by Python driver.
    SCF Algorithm Type (re)set to DF.

*** tstart() called on c435-033.stampede2.tacc.utexas.edu
*** at Fri Apr  2 00:31:52 2021

   => Loading Basis Set <=

    Name: AUG-CC-PVTZ
    Role: ORBITAL
    Keyword: BASIS
    atoms 1-2   entry N          line   285 file /home1/07844/xy3866/miniconda3/envs/p4env/share/psi4/basis/aug-cc-pvtz.gbs 
    atoms 3-13  entry C          line   239 file /home1/07844/xy3866/miniconda3/envs/p4env/share/psi4/basis/aug-cc-pvtz.gbs 
    atoms 14-30 entry H          line    40 file /home1/07844/xy3866/miniconda3/envs/p4env/share/psi4/basis/aug-cc-pvtz.gbs 


         ---------------------------------------------------------
                                   SCF
               by Justin Turney, Rob Parrish, Andy Simmonett
                          and Daniel G. A. Smith
                              RHF Reference
                        8 Threads,  30517 MiB Core
         ---------------------------------------------------------

  ==> Geometry <==

    Molecular point group: c1
    Full point group: C1

    Geometry (in Angstrom), charge = 1, multiplicity = 1:

       Center              X                  Y                   Z               Mass       
    ------------   -----------------  -----------------  -----------------  -----------------
         N           -3.469719493544    -0.170468678558     0.161241842459    14.003074004430
         N           -0.671410493544     0.003394321442    -0.127793157541    14.003074004430
         C           -2.787736493544    -0.593708678558    -1.120719157541    12.000000000000
         C           -2.676477493544     0.864558321442     0.926919842459    12.000000000000
         C           -1.389772493544    -1.078840678558    -0.781256157541    12.000000000000
         C           -1.276722493544     0.325354321442     1.158448842459    12.000000000000
         C            0.759132506456    -0.173282678558    -0.038754157541    12.000000000000
         C            1.567995506456     0.960905321442    -0.235009157541    12.000000000000
         C            1.319896506456    -1.422554678558     0.250911842459    12.000000000000
         C            2.954502506456     0.796155321442    -0.133322157541    12.000000000000
         C            0.961757406456     2.324305221442    -0.552411457541    12.000000000000
         C            2.705880506456    -1.562637678558     0.330212842459    12.000000000000
         C            3.523723506456    -0.447841678558     0.144240842459    12.000000000000
         H           -2.750984493544     0.288342321442    -1.762341157541     1.007825032230
         H           -3.406514493544    -1.368753678558    -1.580359157541     1.007825032230
         H           -3.214154493544     1.069487321442     1.856244842459     1.007825032230
         H           -2.648930493544     1.760107321442     0.303486842459     1.007825032230
         H           -1.462663493544    -1.998732678558    -0.169595157541     1.007825032230
         H           -0.876102493544    -1.343264678558    -1.709863157541     1.007825032230
         H           -0.686502493544     1.102472321442     1.651410842459     1.007825032230
         H           -1.307866493544    -0.544658678558     1.843075842459     1.007825032230
         H           -4.414868493544     0.183749321442    -0.039242157541     1.007825032230
         H           -3.593795493544    -1.000629678558     0.758533842459     1.007825032230
         H            0.686106506456    -2.292468678558     0.409625842459     1.007825032230
         H            3.599946506456     1.658309321442    -0.288459157541     1.007825032230
         H            0.172809506456     2.216830321442    -1.290686157541     1.007825032230
         H            0.541950506456     2.781826321442     0.342627842459     1.007825032230
         H            1.735929506456     2.980948321442    -0.937686157541     1.007825032230
         H            3.141268506456    -2.534454678558     0.546978842459     1.007825032230
         H            4.604081506456    -0.547376678558     0.205628842459     1.007825032230

  Running in c1 symmetry.

  Rotational constants: A =      0.05649  B =      0.01672  C =      0.01466 [cm^-1]
  Rotational constants: A =   1693.64580  B =    501.26859  C =    439.60841 [MHz]
  Nuclear repulsion =  819.931917829025110

  Charge       = 1
  Multiplicity = 1
  Electrons    = 96
  Nalpha       = 48
  Nbeta        = 48

  ==> Algorithm <==

  SCF Algorithm Type is DF.
  DIIS enabled.
  MOM disabled.
  Fractional occupation disabled.
  Guess Type is SAD.
  Energy threshold   = 1.00e-10
  Density threshold  = 1.00e-10
  Integral threshold = 1.00e-12

  ==> Primary Basis <==

  Basis Set: AUG-CC-PVTZ
    Blend: AUG-CC-PVTZ
    Number of shells: 335
    Number of basis functions: 989
    Number of Cartesian functions: 1140
    Spherical Harmonics?: true
    Max angular momentum: 3

   => Loading Basis Set <=

    Name: (AUG-CC-PVTZ AUX)
    Role: JKFIT
    Keyword: DF_BASIS_SCF
    atoms 1-2   entry N          line   224 file /home1/07844/xy3866/miniconda3/envs/p4env/share/psi4/basis/aug-cc-pvtz-jkfit.gbs 
    atoms 3-13  entry C          line   162 file /home1/07844/xy3866/miniconda3/envs/p4env/share/psi4/basis/aug-cc-pvtz-jkfit.gbs 
    atoms 14-30 entry H          line    70 file /home1/07844/xy3866/miniconda3/envs/p4env/share/psi4/basis/aug-cc-pvtz-jkfit.gbs 

  ==> Integral Setup <==

  DFHelper Memory: AOs need 13.667 GiB; user supplied 22.352 GiB. Using in-core AOs.

  ==> MemDFJK: Density-Fitted J/K Matrices <==

    J tasked:                   Yes
    K tasked:                   Yes
    wK tasked:                   No
    OpenMP threads:               8
    Memory [MiB]:             22888
    Algorithm:                 Core
    Schwarz Cutoff:           1E-12
    Mask sparsity (%):      13.9790
    Fitting Condition:        1E-10

   => Auxiliary Basis Set <=

  Basis Set: (AUG-CC-PVTZ AUX)
    Blend: AUG-CC-PVTZ-JKFIT
    Number of shells: 628
    Number of basis functions: 2134
    Number of Cartesian functions: 2638
    Spherical Harmonics?: true
    Max angular momentum: 4

  Minimum eigenvalue in the overlap matrix is 3.4437335696E-07.
  Reciprocal condition number of the overlap matrix is 1.3401082197E-08.
    Using symmetric orthogonalization.

  ==> Pre-Iterations <==

  SCF Guess: Superposition of Atomic Densities via on-the-fly atomic UHF (no occupation information).

   -------------------------
    Irrep   Nso     Nmo    
   -------------------------
     A        989     989 
   -------------------------
    Total     989     989
   -------------------------

  ==> Iterations <==

                           Total Energy        Delta E     RMS |[F,P]|

   @DF-RHF iter SAD:  -535.82378390090605   -5.35824e+02   0.00000e+00 
   @DF-RHF iter   1:  -534.91204998672936    9.11734e-01   7.76219e-04 DIIS
   @DF-RHF iter   2:  -535.24933290330443   -3.37283e-01   3.21342e-04 DIIS
   @DF-RHF iter   3:  -535.30318367752511   -5.38508e-02   8.33643e-05 DIIS
   @DF-RHF iter   4:  -535.30839577534505   -5.21210e-03   2.44606e-05 DIIS
   @DF-RHF iter   5:  -535.30875294206533   -3.57167e-04   8.60254e-06 DIIS
   @DF-RHF iter   6:  -535.30880040805391   -4.74660e-05   2.18266e-06 DIIS
   @DF-RHF iter   7:  -535.30880526131011   -4.85326e-06   8.52909e-07 DIIS
   @DF-RHF iter   8:  -535.30880607525569   -8.13946e-07   3.27029e-07 DIIS
   @DF-RHF iter   9:  -535.30880627448300   -1.99227e-07   1.63808e-07 DIIS
   @DF-RHF iter  10:  -535.30880633476943   -6.02864e-08   7.62876e-08 DIIS
   @DF-RHF iter  11:  -535.30880635121855   -1.64491e-08   3.07938e-08 DIIS
   @DF-RHF iter  12:  -535.30880635340202   -2.18347e-09   1.26502e-08 DIIS
   @DF-RHF iter  13:  -535.30880635359438   -1.92358e-10   3.55003e-09 DIIS
   @DF-RHF iter  14:  -535.30880635361086   -1.64846e-11   9.63129e-10 DIIS
   @DF-RHF iter  15:  -535.30880635361279   -1.93268e-12   3.51740e-10 DIIS
   @DF-RHF iter  16:  -535.30880635361279    0.00000e+00   1.00434e-10 DIIS
   @DF-RHF iter  17:  -535.30880635361427   -1.47793e-12   4.07918e-11 DIIS
  Energy and wave function converged.


  ==> Post-Iterations <==

    Orbital Energies [Eh]
    ---------------------

    Doubly Occupied:                                                      

       1A    -15.866661     2A    -15.703047     3A    -11.456832  
       4A    -11.456813     5A    -11.417539     6A    -11.417299  
       7A    -11.375116     8A    -11.345165     9A    -11.340107  
      10A    -11.331722    11A    -11.329836    12A    -11.328559  
      13A    -11.323125    14A     -1.497565    15A     -1.390187  
      16A     -1.249254    17A     -1.221886    18A     -1.155165  
      19A     -1.141001    20A     -1.087935    21A     -1.053511  
      22A     -1.032679    23A     -0.996142    24A     -0.935370  
      25A     -0.924148    26A     -0.903558    27A     -0.867436  
      28A     -0.823764    29A     -0.810012    30A     -0.793551  
      31A     -0.788470    32A     -0.754143    33A     -0.744523  
      34A     -0.734561    35A     -0.714475    36A     -0.704203  
      37A     -0.687674    38A     -0.677111    39A     -0.667907  
      40A     -0.659734    41A     -0.655453    42A     -0.643468  
      43A     -0.597687    44A     -0.592432    45A     -0.588308  
      46A     -0.521579    47A     -0.433539    48A     -0.423785  

    Virtual:                                                              

      49A     -0.097519    50A     -0.074561    51A     -0.066154  
      52A     -0.058637    53A     -0.043274    54A     -0.040056  
      55A     -0.039166    56A     -0.037362    57A     -0.034343  
      58A     -0.020204    59A     -0.019550    60A     -0.017333  
      61A     -0.011536    62A     -0.010917    63A     -0.008060  
      64A      0.000286    65A      0.001651    66A      0.003928  
      67A      0.006906    68A      0.010489    69A      0.012674  
      70A      0.014756    71A      0.017688    72A      0.021299  
      73A      0.021965    74A      0.029504    75A      0.032827  
      76A      0.033818    77A      0.035178    78A      0.039537  
      79A      0.039977    80A      0.043741    81A      0.047848  
      82A      0.050144    83A      0.051164    84A      0.055498  
      85A      0.060048    86A      0.063473    87A      0.065758  
      88A      0.067012    89A      0.072968    90A      0.077272  
      91A      0.078467    92A      0.080221    93A      0.082192  
      94A      0.085867    95A      0.091121    96A      0.095033  
      97A      0.097226    98A      0.102123    99A      0.104361  
     100A      0.108214   101A      0.115176   102A      0.117300  
     103A      0.119935   104A      0.122762   105A      0.124059  
     106A      0.125278   107A      0.132788   108A      0.134282  
     109A      0.141481   110A      0.142622   111A      0.151281  
     112A      0.153810   113A      0.159743   114A      0.161839  
     115A      0.165054   116A      0.170584   117A      0.172909  
     118A      0.174339   119A      0.177045   120A      0.179672  
     121A      0.186164   122A      0.193402   123A      0.194415  
     124A      0.196349   125A      0.199470   126A      0.205332  
     127A      0.210334   128A      0.212881   129A      0.216247  
     130A      0.218921   131A      0.221434   132A      0.226113  
     133A      0.227275   134A      0.229577   135A      0.231912  
     136A      0.234441   137A      0.238509   138A      0.244052  
     139A      0.246604   140A      0.255866   141A      0.258861  
     142A      0.261595   143A      0.263959   144A      0.267088  
     145A      0.267995   146A      0.269633   147A      0.272230  
     148A      0.273904   149A      0.276817   150A      0.283736  
     151A      0.285151   152A      0.290551   153A      0.294197  
     154A      0.296569   155A      0.299361   156A      0.305064  
     157A      0.309067   158A      0.311514   159A      0.314466  
     160A      0.318081   161A      0.318894   162A      0.324831  
     163A      0.327496   164A      0.331687   165A      0.337127  
     166A      0.340090   167A      0.342113   168A      0.343310  
     169A      0.348525   170A      0.351062   171A      0.360258  
     172A      0.360965   173A      0.362728   174A      0.364607  
     175A      0.369504   176A      0.370766   177A      0.373162  
     178A      0.376060   179A      0.380382   180A      0.386213  
     181A      0.388467   182A      0.391495   183A      0.396226  
     184A      0.401640   185A      0.403768   186A      0.409014  
     187A      0.410831   188A      0.414342   189A      0.414929  
     190A      0.420231   191A      0.423599   192A      0.424754  
     193A      0.428229   194A      0.430105   195A      0.432959  
     196A      0.434524   197A      0.439617   198A      0.440143  
     199A      0.450368   200A      0.451864   201A      0.455037  
     202A      0.455420   203A      0.463129   204A      0.463763  
     205A      0.464663   206A      0.465436   207A      0.471785  
     208A      0.475345   209A      0.477365   210A      0.480818  
     211A      0.484986   212A      0.486661   213A      0.488012  
     214A      0.494358   215A      0.499417   216A      0.505568  
     217A      0.506042   218A      0.510027   219A      0.518391  
     220A      0.520542   221A      0.525136   222A      0.527955  
     223A      0.529858   224A      0.537117   225A      0.540140  
     226A      0.542344   227A      0.549101   228A      0.551919  
     229A      0.563958   230A      0.568823   231A      0.570492  
     232A      0.574577   233A      0.579559   234A      0.581500  
     235A      0.583103   236A      0.586749   237A      0.592397  
     238A      0.598630   239A      0.604180   240A      0.613654  
     241A      0.614364   242A      0.616597   243A      0.624035  
     244A      0.627032   245A      0.633860   246A      0.635783  
     247A      0.646967   248A      0.651486   249A      0.653214  
     250A      0.656704   251A      0.660948   252A      0.666015  
     253A      0.671783   254A      0.676981   255A      0.683202  
     256A      0.690138   257A      0.695423   258A      0.701139  
     259A      0.702993   260A      0.708714   261A      0.717414  
     262A      0.722637   263A      0.726656   264A      0.728156  
     265A      0.731770   266A      0.736830   267A      0.741353  
     268A      0.744157   269A      0.746444   270A      0.750641  
     271A      0.756676   272A      0.764333   273A      0.766807  
     274A      0.773099   275A      0.776625   276A      0.780228  
     277A      0.781455   278A      0.786237   279A      0.796210  
     280A      0.798098   281A      0.801275   282A      0.804962  
     283A      0.810355   284A      0.812710   285A      0.821128  
     286A      0.822444   287A      0.825645   288A      0.826018  
     289A      0.830195   290A      0.836424   291A      0.841292  
     292A      0.846606   293A      0.848718   294A      0.853248  
     295A      0.857885   296A      0.864783   297A      0.867319  
     298A      0.871095   299A      0.876541   300A      0.883644  
     301A      0.885692   302A      0.887454   303A      0.894476  
     304A      0.898103   305A      0.902377   306A      0.907530  
     307A      0.913337   308A      0.915541   309A      0.920378  
     310A      0.924961   311A      0.926694   312A      0.930939  
     313A      0.936723   314A      0.938996   315A      0.944660  
     316A      0.949544   317A      0.955094   318A      0.961074  
     319A      0.963792   320A      0.964703   321A      0.967483  
     322A      0.971675   323A      0.974138   324A      0.978968  
     325A      0.983756   326A      0.986491   327A      0.993324  
     328A      0.998318   329A      1.002505   330A      1.002995  
     331A      1.005540   332A      1.012161   333A      1.016746  
     334A      1.019638   335A      1.027817   336A      1.029068  
     337A      1.034461   338A      1.039161   339A      1.042395  
     340A      1.046066   341A      1.050188   342A      1.054654  
     343A      1.059346   344A      1.063724   345A      1.068766  
     346A      1.072122   347A      1.072721   348A      1.078136  
     349A      1.083270   350A      1.086250   351A      1.094610  
     352A      1.096834   353A      1.102374   354A      1.105618  
     355A      1.111565   356A      1.115013   357A      1.123093  
     358A      1.126104   359A      1.131733   360A      1.132988  
     361A      1.136312   362A      1.144257   363A      1.145401  
     364A      1.147970   365A      1.153558   366A      1.162785  
     367A      1.164353   368A      1.175224   369A      1.181391  
     370A      1.183975   371A      1.188636   372A      1.190935  
     373A      1.194958   374A      1.201682   375A      1.205447  
     376A      1.210281   377A      1.214667   378A      1.216857  
     379A      1.227634   380A      1.232849   381A      1.236688  
     382A      1.237942   383A      1.244430   384A      1.250565  
     385A      1.259549   386A      1.262463   387A      1.263668  
     388A      1.274950   389A      1.279856   390A      1.289128  
     391A      1.292383   392A      1.296266   393A      1.300637  
     394A      1.309363   395A      1.311152   396A      1.318556  
     397A      1.326461   398A      1.329443   399A      1.340971  
     400A      1.349469   401A      1.351161   402A      1.353160  
     403A      1.355142   404A      1.361127   405A      1.362280  
     406A      1.370256   407A      1.380912   408A      1.384086  
     409A      1.387252   410A      1.392784   411A      1.399177  
     412A      1.409083   413A      1.414345   414A      1.418811  
     415A      1.426497   416A      1.431892   417A      1.435268  
     418A      1.439392   419A      1.444003   420A      1.448143  
     421A      1.462015   422A      1.464030   423A      1.473285  
     424A      1.473633   425A      1.475268   426A      1.483484  
     427A      1.484335   428A      1.492270   429A      1.494817  
     430A      1.501071   431A      1.507942   432A      1.518607  
     433A      1.523418   434A      1.529644   435A      1.532841  
     436A      1.537097   437A      1.541937   438A      1.543342  
     439A      1.549779   440A      1.555280   441A      1.560050  
     442A      1.566604   443A      1.573248   444A      1.577245  
     445A      1.580898   446A      1.586271   447A      1.595003  
     448A      1.607617   449A      1.610597   450A      1.613534  
     451A      1.619445   452A      1.624226   453A      1.628106  
     454A      1.630226   455A      1.636423   456A      1.645395  
     457A      1.647522   458A      1.655214   459A      1.660416  
     460A      1.669019   461A      1.673466   462A      1.681185  
     463A      1.689201   464A      1.697790   465A      1.703721  
     466A      1.706600   467A      1.714967   468A      1.720328  
     469A      1.727287   470A      1.732505   471A      1.735714  
     472A      1.740429   473A      1.742338   474A      1.748930  
     475A      1.753699   476A      1.767611   477A      1.770579  
     478A      1.772084   479A      1.776659   480A      1.786990  
     481A      1.801361   482A      1.802229   483A      1.802751  
     484A      1.806297   485A      1.813819   486A      1.818522  
     487A      1.822924   488A      1.829663   489A      1.835142  
     490A      1.845383   491A      1.850480   492A      1.850565  
     493A      1.855557   494A      1.860505   495A      1.868918  
     496A      1.875366   497A      1.878651   498A      1.888801  
     499A      1.895593   500A      1.900011   501A      1.901355  
     502A      1.909334   503A      1.912403   504A      1.918422  
     505A      1.924235   506A      1.928781   507A      1.936121  
     508A      1.947407   509A      1.952728   510A      1.956067  
     511A      1.960793   512A      1.966456   513A      1.972297  
     514A      1.983077   515A      1.984856   516A      1.991135  
     517A      1.994084   518A      2.005484   519A      2.010545  
     520A      2.013249   521A      2.021285   522A      2.026286  
     523A      2.038194   524A      2.042187   525A      2.044611  
     526A      2.053147   527A      2.057076   528A      2.065553  
     529A      2.076899   530A      2.088252   531A      2.092567  
     532A      2.097736   533A      2.100563   534A      2.105862  
     535A      2.108571   536A      2.112222   537A      2.121201  
     538A      2.136163   539A      2.143261   540A      2.145255  
     541A      2.154503   542A      2.163311   543A      2.165286  
     544A      2.177204   545A      2.184420   546A      2.189044  
     547A      2.200030   548A      2.204776   549A      2.214810  
     550A      2.225957   551A      2.228651   552A      2.232452  
     553A      2.240987   554A      2.255547   555A      2.261557  
     556A      2.273035   557A      2.281226   558A      2.281413  
     559A      2.288141   560A      2.293651   561A      2.310595  
     562A      2.312816   563A      2.325770   564A      2.326933  
     565A      2.341459   566A      2.347520   567A      2.356288  
     568A      2.369256   569A      2.377204   570A      2.383348  
     571A      2.387286   572A      2.393273   573A      2.403768  
     574A      2.412286   575A      2.416061   576A      2.427991  
     577A      2.439890   578A      2.443316   579A      2.450935  
     580A      2.466337   581A      2.475701   582A      2.481041  
     583A      2.498070   584A      2.506590   585A      2.507050  
     586A      2.532210   587A      2.540902   588A      2.548136  
     589A      2.555601   590A      2.567636   591A      2.577652  
     592A      2.580769   593A      2.594669   594A      2.600785  
     595A      2.611281   596A      2.618217   597A      2.636737  
     598A      2.650203   599A      2.655039   600A      2.666399  
     601A      2.681955   602A      2.699152   603A      2.705376  
     604A      2.719973   605A      2.724437   606A      2.741812  
     607A      2.758274   608A      2.784573   609A      2.788412  
     610A      2.814975   611A      2.822283   612A      2.836410  
     613A      2.860664   614A      2.871994   615A      2.907319  
     616A      2.924602   617A      2.961232   618A      2.966202  
     619A      3.004600   620A      3.028238   621A      3.038508  
     622A      3.060168   623A      3.068301   624A      3.102992  
     625A      3.118868   626A      3.160430   627A      3.181805  
     628A      3.209743   629A      3.228293   630A      3.248481  
     631A      3.274705   632A      3.286009   633A      3.302119  
     634A      3.315074   635A      3.320994   636A      3.329117  
     637A      3.344690   638A      3.351812   639A      3.357945  
     640A      3.375240   641A      3.383624   642A      3.393645  
     643A      3.399562   644A      3.406791   645A      3.418730  
     646A      3.431980   647A      3.438992   648A      3.444482  
     649A      3.447860   650A      3.455838   651A      3.465307  
     652A      3.480599   653A      3.486684   654A      3.492257  
     655A      3.504227   656A      3.510235   657A      3.512457  
     658A      3.519451   659A      3.532276   660A      3.537743  
     661A      3.549285   662A      3.555949   663A      3.571594  
     664A      3.576537   665A      3.582429   666A      3.582449  
     667A      3.595185   668A      3.597050   669A      3.607247  
     670A      3.618491   671A      3.623370   672A      3.628283  
     673A      3.642926   674A      3.645422   675A      3.656789  
     676A      3.659460   677A      3.669802   678A      3.674853  
     679A      3.683242   680A      3.694008   681A      3.698735  
     682A      3.702971   683A      3.709079   684A      3.712914  
     685A      3.730979   686A      3.741651   687A      3.754674  
     688A      3.766870   689A      3.767951   690A      3.771110  
     691A      3.790193   692A      3.794656   693A      3.799706  
     694A      3.810870   695A      3.816187   696A      3.818013  
     697A      3.824969   698A      3.830273   699A      3.839538  
     700A      3.848140   701A      3.855968   702A      3.866243  
     703A      3.868998   704A      3.873475   705A      3.886669  
     706A      3.889655   707A      3.892473   708A      3.894343  
     709A      3.903977   710A      3.911168   711A      3.914668  
     712A      3.923517   713A      3.937283   714A      3.942399  
     715A      3.948864   716A      3.951498   717A      3.957454  
     718A      3.960885   719A      3.965411   720A      3.970361  
     721A      3.976239   722A      3.990744   723A      3.998999  
     724A      4.002078   725A      4.007320   726A      4.022685  
     727A      4.024976   728A      4.027762   729A      4.039480  
     730A      4.044298   731A      4.054786   732A      4.061993  
     733A      4.068438   734A      4.071492   735A      4.085331  
     736A      4.092459   737A      4.109324   738A      4.115244  
     739A      4.122961   740A      4.128404   741A      4.133163  
     742A      4.134043   743A      4.143354   744A      4.150562  
     745A      4.160395   746A      4.172507   747A      4.176069  
     748A      4.187735   749A      4.192070   750A      4.199116  
     751A      4.204452   752A      4.213840   753A      4.222837  
     754A      4.232420   755A      4.235324   756A      4.241704  
     757A      4.246783   758A      4.258630   759A      4.266071  
     760A      4.269368   761A      4.271496   762A      4.277219  
     763A      4.285428   764A      4.301128   765A      4.305953  
     766A      4.319921   767A      4.324193   768A      4.329413  
     769A      4.335750   770A      4.342359   771A      4.352687  
     772A      4.361385   773A      4.367251   774A      4.373501  
     775A      4.381441   776A      4.391997   777A      4.394493  
     778A      4.407579   779A      4.419844   780A      4.430866  
     781A      4.442813   782A      4.449253   783A      4.459162  
     784A      4.462500   785A      4.473573   786A      4.487217  
     787A      4.492017   788A      4.505634   789A      4.518534  
     790A      4.528270   791A      4.531419   792A      4.537792  
     793A      4.545243   794A      4.552430   795A      4.558468  
     796A      4.577583   797A      4.581954   798A      4.589220  
     799A      4.596943   800A      4.603961   801A      4.620716  
     802A      4.627740   803A      4.636817   804A      4.644818  
     805A      4.652836   806A      4.669895   807A      4.674767  
     808A      4.684319   809A      4.687584   810A      4.693819  
     811A      4.705280   812A      4.712191   813A      4.716103  
     814A      4.723029   815A      4.731232   816A      4.743750  
     817A      4.756373   818A      4.768876   819A      4.788326  
     820A      4.789234   821A      4.793410   822A      4.815631  
     823A      4.820027   824A      4.822966   825A      4.825163  
     826A      4.840358   827A      4.845120   828A      4.856150  
     829A      4.870473   830A      4.871801   831A      4.872487  
     832A      4.885255   833A      4.897076   834A      4.904275  
     835A      4.920103   836A      4.924709   837A      4.938165  
     838A      4.951747   839A      4.956001   840A      4.972175  
     841A      4.983271   842A      4.986249   843A      4.995579  
     844A      5.013551   845A      5.020506   846A      5.037006  
     847A      5.052444   848A      5.058844   849A      5.066180  
     850A      5.068633   851A      5.081173   852A      5.095987  
     853A      5.107622   854A      5.112310   855A      5.117281  
     856A      5.119520   857A      5.136958   858A      5.139552  
     859A      5.142923   860A      5.147906   861A      5.166091  
     862A      5.172085   863A      5.181568   864A      5.200078  
     865A      5.203030   866A      5.215768   867A      5.222997  
     868A      5.232181   869A      5.239830   870A      5.246080  
     871A      5.259576   872A      5.271330   873A      5.278640  
     874A      5.297978   875A      5.303168   876A      5.310419  
     877A      5.340729   878A      5.347273   879A      5.357390  
     880A      5.363125   881A      5.378544   882A      5.380620  
     883A      5.389777   884A      5.411996   885A      5.416079  
     886A      5.422191   887A      5.426019   888A      5.439023  
     889A      5.445735   890A      5.465076   891A      5.486861  
     892A      5.498299   893A      5.499541   894A      5.517707  
     895A      5.521777   896A      5.534924   897A      5.556537  
     898A      5.573184   899A      5.580965   900A      5.592815  
     901A      5.603528   902A      5.617132   903A      5.624167  
     904A      5.633807   905A      5.652027   906A      5.663714  
     907A      5.678093   908A      5.691396   909A      5.693188  
     910A      5.714975   911A      5.718707   912A      5.726205  
     913A      5.753126   914A      5.771291   915A      5.785599  
     916A      5.809189   917A      5.817025   918A      5.827577  
     919A      5.850346   920A      5.893255   921A      5.907835  
     922A      5.923409   923A      5.939882   924A      5.962291  
     925A      5.999638   926A      6.001659   927A      6.027243  
     928A      6.054605   929A      6.072005   930A      6.088490  
     931A      6.100547   932A      6.117441   933A      6.139173  
     934A      6.144277   935A      6.160880   936A      6.169662  
     937A      6.188987   938A      6.208710   939A      6.234598  
     940A      6.236424   941A      6.261516   942A      6.280772  
     943A      6.294504   944A      6.325211   945A      6.338650  
     946A      6.364973   947A      6.373640   948A      6.405102  
     949A      6.409323   950A      6.450007   951A      6.474256  
     952A      6.506926   953A      6.529328   954A      6.558959  
     955A      6.591428   956A      6.628773   957A      6.686664  
     958A      6.721209   959A      6.731835   960A      6.769237  
     961A      6.775497   962A      6.800772   963A      6.806062  
     964A      6.866156   965A      6.894934   966A      6.909871  
     967A      6.928868   968A      6.948230   969A      6.971785  
     970A      7.004496   971A      7.029311   972A      7.050233  
     973A      7.215878   974A      7.225297   975A      7.422435  
     976A      7.766626   977A     16.241285   978A     16.475340  
     979A     17.953628   980A     18.482149   981A     18.763841  
     982A     18.854626   983A     19.177571   984A     19.359694  
     985A     19.488012   986A     20.018801   987A     20.418739  
     988A     21.199492   989A     22.094225  

    Final Occupation by Irrep:
              A 
    DOCC [    48 ]

  @DF-RHF Final Energy:  -535.30880635361427

   => Energetics <=

    Nuclear Repulsion Energy =            819.9319178290251102
    One-Electron Energy =               -2338.1533794293736719
    Two-Electron Energy =                 982.9126552467341753
    Total Energy =                       -535.3088063536142727

Computation Completed

*** tstop() called on c435-033.stampede2.tacc.utexas.edu at Fri Apr  2 00:34:58 2021
Module time:
	user time   =    1242.77 seconds =      20.71 minutes
	system time =      30.83 seconds =       0.51 minutes
	total time  =        186 seconds =       3.10 minutes
Total time:
	user time   =    1242.77 seconds =      20.71 minutes
	system time =      30.83 seconds =       0.51 minutes
	total time  =        186 seconds =       3.10 minutes
   => Loading Basis Set <=

    Name: (AUG-CC-PVTZ AUX)
    Role: RIFIT
    Keyword: DF_BASIS_MP2
    atoms 1-2   entry N          line   206 file /home1/07844/xy3866/miniconda3/envs/p4env/share/psi4/basis/aug-cc-pvtz-ri.gbs 
    atoms 3-13  entry C          line   148 file /home1/07844/xy3866/miniconda3/envs/p4env/share/psi4/basis/aug-cc-pvtz-ri.gbs 
    atoms 14-30 entry H          line    30 file /home1/07844/xy3866/miniconda3/envs/p4env/share/psi4/basis/aug-cc-pvtz-ri.gbs 


*** tstart() called on c435-033.stampede2.tacc.utexas.edu
*** at Fri Apr  2 00:35:00 2021


  //>>>>>>>>>>>>>>>>>>>>>>>>>>>>>>>>>>>//
  //               DFMP2               //
  //<<<<<<<<<<<<<<<<<<<<<<<<<<<<<<<<<<<//

	 --------------------------------------------------------
	                          DF-MP2                         
	      2nd-Order Density-Fitted Moller-Plesset Theory     
	              RMP2 Wavefunction,   8 Threads             
	                                                         
	        Rob Parrish, Justin Turney, Andy Simmonett,      
	           Ed Hohenstein, and C. David Sherrill          
	 --------------------------------------------------------

   => Auxiliary Basis Set <=

  Basis Set: (AUG-CC-PVTZ AUX)
    Blend: AUG-CC-PVTZ-RI
    Number of shells: 602
    Number of basis functions: 2160
    Number of Cartesian functions: 2703
    Spherical Harmonics?: true
    Max angular momentum: 4

	 --------------------------------------------------------
	                 NBF =   989, NAUX =  2160
	 --------------------------------------------------------
	   CLASS    FOCC     OCC    AOCC    AVIR     VIR    FVIR
	   PAIRS       0      48      48     941     941       0
	 --------------------------------------------------------

  DFHelper Memory: AOs need 14.471 GiB; user supplied 22.352 GiB. Using in-core AOs.


         ------------------------------------------------------------
                                     CPHF                           
                                  Rob Parrish                       
         ------------------------------------------------------------

  ==> Geometry <==

    Molecular point group: c1
    Full point group: C1

    Geometry (in Angstrom), charge = 1, multiplicity = 1:

       Center              X                  Y                   Z               Mass       
    ------------   -----------------  -----------------  -----------------  -----------------
         N           -3.469719493544    -0.170468678558     0.161241842459    14.003074004430
         N           -0.671410493544     0.003394321442    -0.127793157541    14.003074004430
         C           -2.787736493544    -0.593708678558    -1.120719157541    12.000000000000
         C           -2.676477493544     0.864558321442     0.926919842459    12.000000000000
         C           -1.389772493544    -1.078840678558    -0.781256157541    12.000000000000
         C           -1.276722493544     0.325354321442     1.158448842459    12.000000000000
         C            0.759132506456    -0.173282678558    -0.038754157541    12.000000000000
         C            1.567995506456     0.960905321442    -0.235009157541    12.000000000000
         C            1.319896506456    -1.422554678558     0.250911842459    12.000000000000
         C            2.954502506456     0.796155321442    -0.133322157541    12.000000000000
         C            0.961757406456     2.324305221442    -0.552411457541    12.000000000000
         C            2.705880506456    -1.562637678558     0.330212842459    12.000000000000
         C            3.523723506456    -0.447841678558     0.144240842459    12.000000000000
         H           -2.750984493544     0.288342321442    -1.762341157541     1.007825032230
         H           -3.406514493544    -1.368753678558    -1.580359157541     1.007825032230
         H           -3.214154493544     1.069487321442     1.856244842459     1.007825032230
         H           -2.648930493544     1.760107321442     0.303486842459     1.007825032230
         H           -1.462663493544    -1.998732678558    -0.169595157541     1.007825032230
         H           -0.876102493544    -1.343264678558    -1.709863157541     1.007825032230
         H           -0.686502493544     1.102472321442     1.651410842459     1.007825032230
         H           -1.307866493544    -0.544658678558     1.843075842459     1.007825032230
         H           -4.414868493544     0.183749321442    -0.039242157541     1.007825032230
         H           -3.593795493544    -1.000629678558     0.758533842459     1.007825032230
         H            0.686106506456    -2.292468678558     0.409625842459     1.007825032230
         H            3.599946506456     1.658309321442    -0.288459157541     1.007825032230
         H            0.172809506456     2.216830321442    -1.290686157541     1.007825032230
         H            0.541950506456     2.781826321442     0.342627842459     1.007825032230
         H            1.735929506456     2.980948321442    -0.937686157541     1.007825032230
         H            3.141268506456    -2.534454678558     0.546978842459     1.007825032230
         H            4.604081506456    -0.547376678558     0.205628842459     1.007825032230

  Nuclear repulsion =  819.931917829025110
  Reference energy  = -535.308806353614273

  ==> Basis Set <==

  Basis Set: AUG-CC-PVTZ
    Blend: AUG-CC-PVTZ
    Number of shells: 335
    Number of basis functions: 989
    Number of Cartesian functions: 1140
    Spherical Harmonics?: true
    Max angular momentum: 3

  ==> CGRSolver (by Rob Parrish) <==

   Number of roots    =         1
   Preconditioning    =    JACOBI
   Convergence cutoff =     1E-06
   Maximum iterations =       100

  ==> CPHFRHamiltonian (by Rob Parrish) <== 

  ==> MemDFJK: Density-Fitted J/K Matrices <==

    J tasked:                   Yes
    K tasked:                   Yes
    wK tasked:                   No
    OpenMP threads:               8
    Memory [MiB]:             22888
    Algorithm:                 Core
    Schwarz Cutoff:           1E-12
    Mask sparsity (%):       8.8089
    Fitting Condition:        1E-10

   => Auxiliary Basis Set <=

  Basis Set: (AUG-CC-PVTZ AUX)
    Blend: AUG-CC-PVTZ-JKFIT
    Number of shells: 628
    Number of basis functions: 2134
    Number of Cartesian functions: 2638
    Spherical Harmonics?: true
    Max angular momentum: 4

  ==> CPHF Iterations <==

  => Iterations <=

             Iter  Converged  Remaining    Residual
  CGR           1          0          1   7.494E-02
  CGR           2          0          1   1.531E-02
  CGR           3          0          1   5.548E-03
  CGR           4          0          1   2.013E-03
  CGR           5          0          1   7.847E-04
  CGR           6          0          1   3.950E-04
  CGR           7          0          1   2.020E-04
  CGR           8          0          1   7.565E-05
  CGR           9          0          1   2.547E-05
  CGR          10          0          1   7.261E-06
  CGR          11          0          1   2.939E-06
  CGR          12          1          0   9.755E-07

    CGRSolver converged.

	-----------------------------------------------------------
	 ==================> DF-MP2 Energies <==================== 
	-----------------------------------------------------------
	 Reference Energy          =    -535.3088063536142727 [Eh]
	 Singles Energy            =      -0.0000000000000000 [Eh]
	 Same-Spin Energy          =      -0.5851198773460965 [Eh]
	 Opposite-Spin Energy      =      -1.9170242878893817 [Eh]
	 Correlation Energy        =      -2.5021441652354781 [Eh]
	 Total Energy              =    -537.8109505188497224 [Eh]
	-----------------------------------------------------------
	 ================> DF-SCS-MP2 Energies <================== 
	-----------------------------------------------------------
	 SCS Same-Spin Scale       =       0.3333333333333333 [-]
	 SCS Opposite-Spin Scale   =       1.2000000000000000 [-]
	 SCS Same-Spin Energy      =      -0.1950399591153655 [Eh]
	 SCS Opposite-Spin Energy  =      -2.3004291454672581 [Eh]
	 SCS Correlation Energy    =      -2.4954691045826234 [Eh]
	 SCS Total Energy          =    -537.8042754581969120 [Eh]
	-----------------------------------------------------------



Properties will be evaluated at  -0.000000,   0.000000,  -0.000000 [a0]

Properties computed using the MP2 density matrix

  Nuclear Dipole Moment: [e a0]
     X:    -9.2504      Y:     2.2614      Z:     0.1306

  Electronic Dipole Moment: [e a0]
     X:     4.4886      Y:    -2.5337      Z:     0.1586

  Dipole Moment: [e a0]
     X:    -4.7618      Y:    -0.2723      Z:     0.2892     Total:     4.7783

  Dipole Moment: [D]
     X:   -12.1033      Y:    -0.6920      Z:     0.7350     Total:    12.1453


*** tstop() called on c435-033.stampede2.tacc.utexas.edu at Fri Apr  2 00:48:30 2021
Module time:
	user time   =    5295.24 seconds =      88.25 minutes
	system time =      72.11 seconds =       1.20 minutes
	total time  =        810 seconds =      13.50 minutes
Total time:
	user time   =    6539.47 seconds =     108.99 minutes
	system time =     102.97 seconds =       1.72 minutes
	total time  =        998 seconds =      16.63 minutes

    Psi4 stopped on: Friday, 02 April 2021 12:48AM
    Psi4 wall time for execution: 0:16:39.94

*** Psi4 exiting successfully. Buy a developer a beer!
