
    -----------------------------------------------------------------------
          Psi4: An Open-Source Ab Initio Electronic Structure Package
                               Psi4 1.4a3.dev225 

                         Git: Rev {master} 7105e37 


    D. G. A. Smith, L. A. Burns, A. C. Simmonett, R. M. Parrish,
    M. C. Schieber, R. Galvelis, P. Kraus, H. Kruse, R. Di Remigio,
    A. Alenaizan, A. M. James, S. Lehtola, J. P. Misiewicz, M. Scheurer,
    R. A. Shaw, J. B. Schriber, Y. Xie, Z. L. Glick, D. A. Sirianni,
    J. S. O'Brien, J. M. Waldrop, A. Kumar, E. G. Hohenstein,
    B. P. Pritchard, B. R. Brooks, H. F. Schaefer III, A. Yu. Sokolov,
    K. Patkowski, A. E. DePrince III, U. Bozkaya, R. A. King,
    F. A. Evangelista, J. M. Turney, T. D. Crawford, C. D. Sherrill,
    J. Chem. Phys. 152(18) 184108 (2020). https://doi.org/10.1063/5.0006002

                            Additional Code Authors
    E. T. Seidl, C. L. Janssen, E. F. Valeev, M. L. Leininger,
    J. F. Gonthier, R. M. Richard, H. R. McAlexander, M. Saitow, X. Wang,
    P. Verma, and M. H. Lechner

             Previous Authors, Complete List of Code Contributors,
                       and Citations for Specific Modules
    https://github.com/psi4/psi4/blob/master/codemeta.json
    https://github.com/psi4/psi4/graphs/contributors
    http://psicode.org/psi4manual/master/introduction.html#citing-psifour

    -----------------------------------------------------------------------


    Psi4 started on: Thursday, 01 April 2021 07:43PM

    Process ID: 235239
    Host:       c435-033.stampede2.tacc.utexas.edu
    PSIDATADIR: /home1/07844/xy3866/miniconda3/envs/p4env/share/psi4
    Memory:     500.0 MiB
    Threads:    8
    
  ==> Input File <==

--------------------------------------------------------------------------
#psi4
#
memory 32 gb

molecule  {
1 1
  N       -3.4197460    -0.1817000     0.1602720
  N       -0.6214370    -0.0078370    -0.1287630
  C       -2.7377630    -0.6049400    -1.1216890
  C       -2.6265040     0.8533270     0.9259500
  C       -1.3397990    -1.0900720    -0.7822260
  C       -1.2267490     0.3141230     1.1574790
  C        0.8091060    -0.1845140    -0.0397240
  C        1.6179690     0.9496740    -0.2359790
  C        1.3698700    -1.4337860     0.2499420
  C        3.0044760     0.7849240    -0.1342920
  C        1.0196790     2.2951990    -0.5492200
  C        2.7558540    -1.5738690     0.3292430
  C        3.5736970    -0.4590730     0.1432710
  H       -2.7010110     0.2771110    -1.7633110
  H       -3.3565410    -1.3799850    -1.5813290
  H       -3.1641810     1.0582560     1.8552750
  H       -2.5989570     1.7488760     0.3025170
  H       -1.4126900    -2.0099640    -0.1705650
  H       -0.8167354    -1.3593316    -1.7278147
  H       -0.6365290     1.0912410     1.6504410
  H       -1.2578930    -0.5558900     1.8421060
  H       -4.3648950     0.1725180    -0.0402120
  H       -3.5438220    -1.0118610     0.7575640
  H        0.7360800    -2.3037000     0.4086560
  H        3.6499200     1.6470780    -0.2894290
  H        0.2227830     2.2055990    -1.2916560
  H        0.5919240     2.7705950     0.3416580
  H        1.7859030     2.9697170    -0.9386560
  H        3.1912420    -2.5456860     0.5460090
  H        4.6540550    -0.5586080     0.2046590
units angstrom
no_reorient  #important for SAPT in psi4, default
symmetry c1  #important for SAPT in psi4, default
}

set PROPERTIES_ORIGIN ["COM"]
properties('MP2/aug-cc-pvtz', properties = ['dipole'])
--------------------------------------------------------------------------

  Memory set to  29.802 GiB by Python driver.
    SCF Algorithm Type (re)set to DF.

*** tstart() called on c435-033.stampede2.tacc.utexas.edu
*** at Thu Apr  1 19:43:16 2021

   => Loading Basis Set <=

    Name: AUG-CC-PVTZ
    Role: ORBITAL
    Keyword: BASIS
    atoms 1-2   entry N          line   285 file /home1/07844/xy3866/miniconda3/envs/p4env/share/psi4/basis/aug-cc-pvtz.gbs 
    atoms 3-13  entry C          line   239 file /home1/07844/xy3866/miniconda3/envs/p4env/share/psi4/basis/aug-cc-pvtz.gbs 
    atoms 14-30 entry H          line    40 file /home1/07844/xy3866/miniconda3/envs/p4env/share/psi4/basis/aug-cc-pvtz.gbs 


         ---------------------------------------------------------
                                   SCF
               by Justin Turney, Rob Parrish, Andy Simmonett
                          and Daniel G. A. Smith
                              RHF Reference
                        8 Threads,  30517 MiB Core
         ---------------------------------------------------------

  ==> Geometry <==

    Molecular point group: c1
    Full point group: C1

    Geometry (in Angstrom), charge = 1, multiplicity = 1:

       Center              X                  Y                   Z               Mass       
    ------------   -----------------  -----------------  -----------------  -----------------
         N           -3.470311368865    -0.169230261136     0.161056558668    14.003074004430
         N           -0.672002368865     0.004632738864    -0.127978441332    14.003074004430
         C           -2.788328368865    -0.592470261136    -1.120904441332    12.000000000000
         C           -2.677069368865     0.865796738864     0.926734558668    12.000000000000
         C           -1.390364368865    -1.077602261136    -0.781441441332    12.000000000000
         C           -1.277314368865     0.326592738864     1.158263558668    12.000000000000
         C            0.758540631135    -0.172044261136    -0.038939441332    12.000000000000
         C            1.567403631135     0.962143738864    -0.235194441332    12.000000000000
         C            1.319304631135    -1.421316261136     0.250726558668    12.000000000000
         C            2.953910631135     0.797393738864    -0.133507441332    12.000000000000
         C            0.969113631135     2.307668738864    -0.548435441332    12.000000000000
         C            2.705288631135    -1.561399261136     0.330027558668    12.000000000000
         C            3.523131631135    -0.446603261136     0.144055558668    12.000000000000
         H           -2.751576368865     0.289580738864    -1.762526441332     1.007825032230
         H           -3.407106368865    -1.367515261136    -1.580544441332     1.007825032230
         H           -3.214746368865     1.070725738864     1.856059558668     1.007825032230
         H           -2.649522368865     1.761345738864     0.303301558668     1.007825032230
         H           -1.463255368865    -1.997494261136    -0.169780441332     1.007825032230
         H           -0.867300768865    -1.346861861136    -1.727030141332     1.007825032230
         H           -0.687094368865     1.103710738864     1.651225558668     1.007825032230
         H           -1.308458368865    -0.543420261136     1.842890558668     1.007825032230
         H           -4.415460368865     0.184987738864    -0.039427441332     1.007825032230
         H           -3.594387368865    -0.999391261136     0.758348558668     1.007825032230
         H            0.685514631135    -2.291230261136     0.409440558668     1.007825032230
         H            3.599354631135     1.659547738864    -0.288644441332     1.007825032230
         H            0.172217631135     2.218068738864    -1.290871441332     1.007825032230
         H            0.541358631135     2.783064738864     0.342442558668     1.007825032230
         H            1.735337631135     2.982186738864    -0.937871441332     1.007825032230
         H            3.140676631135    -2.533216261136     0.546793558668     1.007825032230
         H            4.603489631135    -0.546138261136     0.205443558668     1.007825032230

  Running in c1 symmetry.

  Rotational constants: A =      0.05668  B =      0.01672  C =      0.01467 [cm^-1]
  Rotational constants: A =   1699.20640  B =    501.18462  C =    439.91849 [MHz]
  Nuclear repulsion =  820.186834786646273

  Charge       = 1
  Multiplicity = 1
  Electrons    = 96
  Nalpha       = 48
  Nbeta        = 48

  ==> Algorithm <==

  SCF Algorithm Type is DF.
  DIIS enabled.
  MOM disabled.
  Fractional occupation disabled.
  Guess Type is SAD.
  Energy threshold   = 1.00e-10
  Density threshold  = 1.00e-10
  Integral threshold = 1.00e-12

  ==> Primary Basis <==

  Basis Set: AUG-CC-PVTZ
    Blend: AUG-CC-PVTZ
    Number of shells: 335
    Number of basis functions: 989
    Number of Cartesian functions: 1140
    Spherical Harmonics?: true
    Max angular momentum: 3

   => Loading Basis Set <=

    Name: (AUG-CC-PVTZ AUX)
    Role: JKFIT
    Keyword: DF_BASIS_SCF
    atoms 1-2   entry N          line   224 file /home1/07844/xy3866/miniconda3/envs/p4env/share/psi4/basis/aug-cc-pvtz-jkfit.gbs 
    atoms 3-13  entry C          line   162 file /home1/07844/xy3866/miniconda3/envs/p4env/share/psi4/basis/aug-cc-pvtz-jkfit.gbs 
    atoms 14-30 entry H          line    70 file /home1/07844/xy3866/miniconda3/envs/p4env/share/psi4/basis/aug-cc-pvtz-jkfit.gbs 

  ==> Integral Setup <==

  DFHelper Memory: AOs need 13.668 GiB; user supplied 22.352 GiB. Using in-core AOs.

  ==> MemDFJK: Density-Fitted J/K Matrices <==

    J tasked:                   Yes
    K tasked:                   Yes
    wK tasked:                   No
    OpenMP threads:               8
    Memory [MiB]:             22888
    Algorithm:                 Core
    Schwarz Cutoff:           1E-12
    Mask sparsity (%):      13.9696
    Fitting Condition:        1E-10

   => Auxiliary Basis Set <=

  Basis Set: (AUG-CC-PVTZ AUX)
    Blend: AUG-CC-PVTZ-JKFIT
    Number of shells: 628
    Number of basis functions: 2134
    Number of Cartesian functions: 2638
    Spherical Harmonics?: true
    Max angular momentum: 4

  Minimum eigenvalue in the overlap matrix is 3.4370157791E-07.
  Reciprocal condition number of the overlap matrix is 1.3378167451E-08.
    Using symmetric orthogonalization.

  ==> Pre-Iterations <==

  SCF Guess: Superposition of Atomic Densities via on-the-fly atomic UHF (no occupation information).

   -------------------------
    Irrep   Nso     Nmo    
   -------------------------
     A        989     989 
   -------------------------
    Total     989     989
   -------------------------

  ==> Iterations <==

                           Total Energy        Delta E     RMS |[F,P]|

   @DF-RHF iter SAD:  -535.83486396322473   -5.35835e+02   0.00000e+00 
   @DF-RHF iter   1:  -534.90930277997802    9.25561e-01   7.77957e-04 DIIS
   @DF-RHF iter   2:  -535.24766481025131   -3.38362e-01   3.24575e-04 DIIS
   @DF-RHF iter   3:  -535.30256337184642   -5.48986e-02   8.39752e-05 DIIS
   @DF-RHF iter   4:  -535.30783052190441   -5.26715e-03   2.53170e-05 DIIS
   @DF-RHF iter   5:  -535.30821068668513   -3.80165e-04   8.73211e-06 DIIS
   @DF-RHF iter   6:  -535.30825979150939   -4.91048e-05   2.16669e-06 DIIS
   @DF-RHF iter   7:  -535.30826457788817   -4.78638e-06   8.42481e-07 DIIS
   @DF-RHF iter   8:  -535.30826535188237   -7.73994e-07   3.19549e-07 DIIS
   @DF-RHF iter   9:  -535.30826553582460   -1.83942e-07   1.59296e-07 DIIS
   @DF-RHF iter  10:  -535.30826559097056   -5.51460e-08   7.41101e-08 DIIS
   @DF-RHF iter  11:  -535.30826560653657   -1.55660e-08   3.09962e-08 DIIS
   @DF-RHF iter  12:  -535.30826560876551   -2.22894e-09   1.26712e-08 DIIS
   @DF-RHF iter  13:  -535.30826560897810   -2.12594e-10   3.58103e-09 DIIS
   @DF-RHF iter  14:  -535.30826560899550   -1.73941e-11   9.78631e-10 DIIS
   @DF-RHF iter  15:  -535.30826560899732   -1.81899e-12   3.55661e-10 DIIS
   @DF-RHF iter  16:  -535.30826560899698    3.41061e-13   1.00386e-10 DIIS
   @DF-RHF iter  17:  -535.30826560899709   -1.13687e-13   4.20543e-11 DIIS
  Energy and wave function converged.


  ==> Post-Iterations <==

    Orbital Energies [Eh]
    ---------------------

    Doubly Occupied:                                                      

       1A    -15.866681     2A    -15.703195     3A    -11.456875  
       4A    -11.456840     5A    -11.419671     6A    -11.417400  
       7A    -11.375169     8A    -11.344392     9A    -11.340176  
      10A    -11.331798    11A    -11.329879    12A    -11.328609  
      13A    -11.323587    14A     -1.497601    15A     -1.390221  
      16A     -1.249892    17A     -1.221515    18A     -1.155541  
      19A     -1.142634    20A     -1.088112    21A     -1.052571  
      22A     -1.031990    23A     -0.995961    24A     -0.935367  
      25A     -0.923597    26A     -0.903340    27A     -0.867469  
      28A     -0.823758    29A     -0.810250    30A     -0.792546  
      31A     -0.788348    32A     -0.754707    33A     -0.744623  
      34A     -0.734211    35A     -0.714572    36A     -0.704468  
      37A     -0.687816    38A     -0.675176    39A     -0.669283  
      40A     -0.658371    41A     -0.655387    42A     -0.640438  
      43A     -0.599925    44A     -0.591682    45A     -0.588081  
      46A     -0.521691    47A     -0.433545    48A     -0.423497  

    Virtual:                                                              

      49A     -0.097544    50A     -0.074570    51A     -0.066135  
      52A     -0.058648    53A     -0.043273    54A     -0.040057  
      55A     -0.039211    56A     -0.037352    57A     -0.034363  
      58A     -0.020276    59A     -0.019551    60A     -0.017341  
      61A     -0.011538    62A     -0.010942    63A     -0.008046  
      64A      0.000245    65A      0.001619    66A      0.003924  
      67A      0.006883    68A      0.010475    69A      0.012688  
      70A      0.014735    71A      0.017642    72A      0.021024  
      73A      0.021858    74A      0.029470    75A      0.032824  
      76A      0.033806    77A      0.035130    78A      0.039424  
      79A      0.039986    80A      0.043744    81A      0.047814  
      82A      0.050140    83A      0.051116    84A      0.055506  
      85A      0.060010    86A      0.063320    87A      0.065868  
      88A      0.066852    89A      0.072940    90A      0.077264  
      91A      0.078494    92A      0.080126    93A      0.082189  
      94A      0.085853    95A      0.091085    96A      0.094982  
      97A      0.097332    98A      0.102181    99A      0.104376  
     100A      0.108202   101A      0.115147   102A      0.117335  
     103A      0.119891   104A      0.122463   105A      0.124030  
     106A      0.125252   107A      0.132791   108A      0.134291  
     109A      0.141372   110A      0.142552   111A      0.151153  
     112A      0.153869   113A      0.159847   114A      0.161915  
     115A      0.164927   116A      0.170962   117A      0.172839  
     118A      0.174323   119A      0.176985   120A      0.179347  
     121A      0.185996   122A      0.193335   123A      0.194276  
     124A      0.196223   125A      0.199223   126A      0.205183  
     127A      0.210051   128A      0.213020   129A      0.216039  
     130A      0.218895   131A      0.221244   132A      0.226179  
     133A      0.227433   134A      0.229396   135A      0.231947  
     136A      0.234399   137A      0.238262   138A      0.244070  
     139A      0.246722   140A      0.255808   141A      0.258704  
     142A      0.261350   143A      0.263969   144A      0.267217  
     145A      0.267877   146A      0.269528   147A      0.272041  
     148A      0.273839   149A      0.276787   150A      0.283773  
     151A      0.284922   152A      0.290444   153A      0.294024  
     154A      0.296796   155A      0.299520   156A      0.304763  
     157A      0.308934   158A      0.311781   159A      0.314363  
     160A      0.317846   161A      0.318841   162A      0.325092  
     163A      0.327238   164A      0.331795   165A      0.337029  
     166A      0.340017   167A      0.342070   168A      0.343559  
     169A      0.348709   170A      0.351595   171A      0.360434  
     172A      0.360887   173A      0.362587   174A      0.364506  
     175A      0.369373   176A      0.371108   177A      0.372972  
     178A      0.375926   179A      0.380620   180A      0.386190  
     181A      0.388387   182A      0.391358   183A      0.396411  
     184A      0.401262   185A      0.403775   186A      0.408785  
     187A      0.411046   188A      0.414296   189A      0.415160  
     190A      0.420244   191A      0.423347   192A      0.424710  
     193A      0.428562   194A      0.429551   195A      0.432913  
     196A      0.434820   197A      0.439436   198A      0.440151  
     199A      0.450085   200A      0.451974   201A      0.455114  
     202A      0.455337   203A      0.462994   204A      0.463839  
     205A      0.464345   206A      0.466007   207A      0.471825  
     208A      0.475285   209A      0.477411   210A      0.480939  
     211A      0.485117   212A      0.486516   213A      0.487906  
     214A      0.494485   215A      0.499508   216A      0.505282  
     217A      0.506307   218A      0.510118   219A      0.518445  
     220A      0.520463   221A      0.526446   222A      0.527724  
     223A      0.530233   224A      0.537210   225A      0.540152  
     226A      0.542314   227A      0.549079   228A      0.551780  
     229A      0.563806   230A      0.568890   231A      0.570612  
     232A      0.574509   233A      0.579506   234A      0.581305  
     235A      0.582955   236A      0.586668   237A      0.592937  
     238A      0.598231   239A      0.603997   240A      0.613730  
     241A      0.614379   242A      0.616799   243A      0.624142  
     244A      0.627053   245A      0.633790   246A      0.635632  
     247A      0.646750   248A      0.651927   249A      0.653262  
     250A      0.656652   251A      0.661216   252A      0.666112  
     253A      0.671822   254A      0.677055   255A      0.683406  
     256A      0.690028   257A      0.696100   258A      0.701283  
     259A      0.703161   260A      0.708720   261A      0.717523  
     262A      0.723248   263A      0.726588   264A      0.727740  
     265A      0.732197   266A      0.736724   267A      0.741012  
     268A      0.744051   269A      0.746053   270A      0.750906  
     271A      0.756511   272A      0.764400   273A      0.767406  
     274A      0.773211   275A      0.776335   276A      0.780254  
     277A      0.781356   278A      0.786213   279A      0.796078  
     280A      0.798276   281A      0.801335   282A      0.804969  
     283A      0.810532   284A      0.812046   285A      0.820953  
     286A      0.822523   287A      0.826137   288A      0.826327  
     289A      0.829801   290A      0.836171   291A      0.841417  
     292A      0.846664   293A      0.848805   294A      0.853439  
     295A      0.858280   296A      0.864355   297A      0.867489  
     298A      0.871307   299A      0.876203   300A      0.883565  
     301A      0.885722   302A      0.887402   303A      0.894846  
     304A      0.898136   305A      0.902181   306A      0.907622  
     307A      0.913263   308A      0.915477   309A      0.920979  
     310A      0.924297   311A      0.926848   312A      0.930477  
     313A      0.936843   314A      0.939207   315A      0.944536  
     316A      0.949378   317A      0.955063   318A      0.961141  
     319A      0.963516   320A      0.964594   321A      0.967270  
     322A      0.971703   323A      0.974272   324A      0.978963  
     325A      0.983631   326A      0.986362   327A      0.993662  
     328A      0.998548   329A      1.002866   330A      1.003429  
     331A      1.006111   332A      1.012273   333A      1.016679  
     334A      1.019880   335A      1.027700   336A      1.029197  
     337A      1.034631   338A      1.039478   339A      1.042557  
     340A      1.046238   341A      1.050069   342A      1.055102  
     343A      1.059326   344A      1.064184   345A      1.068591  
     346A      1.071858   347A      1.072377   348A      1.077694  
     349A      1.083184   350A      1.086319   351A      1.095324  
     352A      1.097259   353A      1.102552   354A      1.105503  
     355A      1.111454   356A      1.114834   357A      1.123225  
     358A      1.124647   359A      1.132357   360A      1.132933  
     361A      1.136867   362A      1.143838   363A      1.145804  
     364A      1.147895   365A      1.153257   366A      1.162864  
     367A      1.164109   368A      1.175609   369A      1.181362  
     370A      1.184188   371A      1.188426   372A      1.190640  
     373A      1.194311   374A      1.202133   375A      1.204937  
     376A      1.210367   377A      1.214479   378A      1.216167  
     379A      1.227217   380A      1.232963   381A      1.236605  
     382A      1.237962   383A      1.244585   384A      1.250925  
     385A      1.259615   386A      1.262469   387A      1.263707  
     388A      1.275005   389A      1.279857   390A      1.288766  
     391A      1.291800   392A      1.296651   393A      1.300634  
     394A      1.309403   395A      1.310981   396A      1.318586  
     397A      1.326586   398A      1.329865   399A      1.340756  
     400A      1.348864   401A      1.350844   402A      1.353668  
     403A      1.355257   404A      1.361256   405A      1.362685  
     406A      1.370567   407A      1.381259   408A      1.384156  
     409A      1.386664   410A      1.392971   411A      1.399940  
     412A      1.408943   413A      1.415353   414A      1.418776  
     415A      1.426109   416A      1.431754   417A      1.435609  
     418A      1.439914   419A      1.443548   420A      1.447974  
     421A      1.461823   422A      1.463561   423A      1.473095  
     424A      1.473998   425A      1.475464   426A      1.483058  
     427A      1.484282   428A      1.492039   429A      1.494873  
     430A      1.500901   431A      1.507831   432A      1.518679  
     433A      1.523148   434A      1.529884   435A      1.532157  
     436A      1.537414   437A      1.541529   438A      1.543498  
     439A      1.548804   440A      1.555034   441A      1.559746  
     442A      1.566736   443A      1.573585   444A      1.577543  
     445A      1.580620   446A      1.586021   447A      1.595204  
     448A      1.607196   449A      1.610683   450A      1.613650  
     451A      1.618680   452A      1.623722   453A      1.627801  
     454A      1.629766   455A      1.636752   456A      1.646085  
     457A      1.647216   458A      1.654729   459A      1.659953  
     460A      1.668680   461A      1.672769   462A      1.680787  
     463A      1.688716   464A      1.697465   465A      1.702960  
     466A      1.706238   467A      1.715205   468A      1.720030  
     469A      1.727262   470A      1.732311   471A      1.736098  
     472A      1.740002   473A      1.742173   474A      1.748648  
     475A      1.753237   476A      1.767182   477A      1.770834  
     478A      1.772616   479A      1.776490   480A      1.786971  
     481A      1.800617   482A      1.801962   483A      1.802481  
     484A      1.805769   485A      1.814167   486A      1.818003  
     487A      1.822897   488A      1.829538   489A      1.835021  
     490A      1.844650   491A      1.850190   492A      1.850736  
     493A      1.854896   494A      1.859754   495A      1.869350  
     496A      1.875922   497A      1.879038   498A      1.887520  
     499A      1.896204   500A      1.899635   501A      1.901219  
     502A      1.907528   503A      1.913021   504A      1.917502  
     505A      1.923141   506A      1.928307   507A      1.935873  
     508A      1.947800   509A      1.951612   510A      1.955499  
     511A      1.959534   512A      1.966617   513A      1.972809  
     514A      1.981934   515A      1.984429   516A      1.991561  
     517A      1.995104   518A      2.004981   519A      2.011829  
     520A      2.013952   521A      2.021249   522A      2.026129  
     523A      2.038775   524A      2.041322   525A      2.043349  
     526A      2.053468   527A      2.057066   528A      2.066067  
     529A      2.076088   530A      2.087539   531A      2.092886  
     532A      2.097760   533A      2.101888   534A      2.106034  
     535A      2.109863   536A      2.113016   537A      2.119893  
     538A      2.135650   539A      2.142356   540A      2.146276  
     541A      2.154556   542A      2.162754   543A      2.164055  
     544A      2.176953   545A      2.184188   546A      2.188625  
     547A      2.199786   548A      2.203825   549A      2.214643  
     550A      2.225060   551A      2.228136   552A      2.232898  
     553A      2.240956   554A      2.255334   555A      2.260183  
     556A      2.272859   557A      2.280824   558A      2.282946  
     559A      2.288241   560A      2.293715   561A      2.308243  
     562A      2.313559   563A      2.326590   564A      2.327354  
     565A      2.342034   566A      2.348647   567A      2.356878  
     568A      2.368837   569A      2.377562   570A      2.382369  
     571A      2.387294   572A      2.393466   573A      2.404364  
     574A      2.412217   575A      2.416227   576A      2.426748  
     577A      2.438803   578A      2.443752   579A      2.450820  
     580A      2.465586   581A      2.477219   582A      2.481320  
     583A      2.498778   584A      2.504129   585A      2.507476  
     586A      2.533175   587A      2.542253   588A      2.548189  
     589A      2.557755   590A      2.567546   591A      2.577135  
     592A      2.581839   593A      2.596237   594A      2.601241  
     595A      2.610520   596A      2.618181   597A      2.636867  
     598A      2.649729   599A      2.656710   600A      2.668597  
     601A      2.681819   602A      2.698697   603A      2.706970  
     604A      2.721081   605A      2.724636   606A      2.742772  
     607A      2.760120   608A      2.785200   609A      2.789370  
     610A      2.814995   611A      2.820851   612A      2.838482  
     613A      2.860683   614A      2.872902   615A      2.909550  
     616A      2.923177   617A      2.962670   618A      2.966645  
     619A      3.005873   620A      3.028989   621A      3.039396  
     622A      3.061080   623A      3.070245   624A      3.105507  
     625A      3.124430   626A      3.161496   627A      3.182870  
     628A      3.212853   629A      3.231472   630A      3.255142  
     631A      3.275062   632A      3.285511   633A      3.302398  
     634A      3.315926   635A      3.321958   636A      3.330723  
     637A      3.345792   638A      3.352141   639A      3.359704  
     640A      3.378385   641A      3.382982   642A      3.394703  
     643A      3.399477   644A      3.407367   645A      3.420340  
     646A      3.433077   647A      3.439214   648A      3.445561  
     649A      3.448459   650A      3.456601   651A      3.465544  
     652A      3.481294   653A      3.487554   654A      3.493062  
     655A      3.504301   656A      3.509484   657A      3.512628  
     658A      3.520108   659A      3.532582   660A      3.536257  
     661A      3.548011   662A      3.555764   663A      3.571585  
     664A      3.576910   665A      3.581091   666A      3.582964  
     667A      3.594933   668A      3.597389   669A      3.607579  
     670A      3.618620   671A      3.625251   672A      3.630254  
     673A      3.644716   674A      3.646470   675A      3.658558  
     676A      3.660105   677A      3.670448   678A      3.675019  
     679A      3.684205   680A      3.695336   681A      3.699423  
     682A      3.703788   683A      3.709893   684A      3.712465  
     685A      3.731846   686A      3.741867   687A      3.754912  
     688A      3.765860   689A      3.767710   690A      3.772149  
     691A      3.790590   692A      3.793331   693A      3.799074  
     694A      3.810466   695A      3.817124   696A      3.818835  
     697A      3.825579   698A      3.830367   699A      3.840073  
     700A      3.847479   701A      3.854693   702A      3.863975  
     703A      3.869557   704A      3.873708   705A      3.887219  
     706A      3.890053   707A      3.892764   708A      3.894034  
     709A      3.904335   710A      3.912314   711A      3.916460  
     712A      3.922699   713A      3.935964   714A      3.942513  
     715A      3.949123   716A      3.951086   717A      3.954901  
     718A      3.962495   719A      3.963881   720A      3.969887  
     721A      3.976818   722A      3.991031   723A      3.997302  
     724A      4.002173   725A      4.008653   726A      4.022535  
     727A      4.026458   728A      4.026960   729A      4.038123  
     730A      4.043260   731A      4.053910   732A      4.062549  
     733A      4.067410   734A      4.072461   735A      4.086035  
     736A      4.091373   737A      4.109480   738A      4.115912  
     739A      4.122682   740A      4.127369   741A      4.132877  
     742A      4.134587   743A      4.143378   744A      4.150861  
     745A      4.158813   746A      4.172121   747A      4.176462  
     748A      4.185911   749A      4.192447   750A      4.198322  
     751A      4.203297   752A      4.214489   753A      4.220925  
     754A      4.231217   755A      4.235699   756A      4.242548  
     757A      4.246748   758A      4.257253   759A      4.264954  
     760A      4.268678   761A      4.270661   762A      4.276670  
     763A      4.285441   764A      4.300718   765A      4.306276  
     766A      4.319633   767A      4.322870   768A      4.328260  
     769A      4.336434   770A      4.339909   771A      4.353265  
     772A      4.361720   773A      4.366417   774A      4.373066  
     775A      4.381325   776A      4.392070   777A      4.394041  
     778A      4.406801   779A      4.420092   780A      4.428692  
     781A      4.442505   782A      4.449070   783A      4.459357  
     784A      4.462027   785A      4.474234   786A      4.486031  
     787A      4.492242   788A      4.506592   789A      4.516647  
     790A      4.524404   791A      4.530493   792A      4.538236  
     793A      4.542912   794A      4.554148   795A      4.557362  
     796A      4.575525   797A      4.578999   798A      4.587585  
     799A      4.596136   800A      4.603044   801A      4.621175  
     802A      4.628154   803A      4.634487   804A      4.643536  
     805A      4.650776   806A      4.668460   807A      4.674450  
     808A      4.683792   809A      4.688487   810A      4.691916  
     811A      4.703173   812A      4.712717   813A      4.715903  
     814A      4.723279   815A      4.732333   816A      4.743027  
     817A      4.757222   818A      4.766545   819A      4.786065  
     820A      4.789304   821A      4.794319   822A      4.813429  
     823A      4.817861   824A      4.821323   825A      4.825947  
     826A      4.838154   827A      4.843868   828A      4.855887  
     829A      4.869694   830A      4.870706   831A      4.872080  
     832A      4.884187   833A      4.896171   834A      4.903869  
     835A      4.918179   836A      4.924639   837A      4.938048  
     838A      4.949912   839A      4.952030   840A      4.970464  
     841A      4.980814   842A      4.985273   843A      4.994177  
     844A      5.011003   845A      5.017023   846A      5.035918  
     847A      5.052084   848A      5.058204   849A      5.064709  
     850A      5.067802   851A      5.078240   852A      5.094397  
     853A      5.105456   854A      5.111516   855A      5.115263  
     856A      5.118945   857A      5.133848   858A      5.138326  
     859A      5.140629   860A      5.145217   861A      5.165075  
     862A      5.170275   863A      5.179187   864A      5.196829  
     865A      5.200122   866A      5.213681   867A      5.221274  
     868A      5.229320   869A      5.239842   870A      5.243990  
     871A      5.258011   872A      5.267934   873A      5.276036  
     874A      5.295084   875A      5.300430   876A      5.309068  
     877A      5.335930   878A      5.343981   879A      5.353247  
     880A      5.359692   881A      5.373744   882A      5.377572  
     883A      5.386353   884A      5.408703   885A      5.413761  
     886A      5.419238   887A      5.424632   888A      5.435669  
     889A      5.441873   890A      5.459672   891A      5.484231  
     892A      5.496221   893A      5.500717   894A      5.514462  
     895A      5.522355   896A      5.530419   897A      5.553307  
     898A      5.559998   899A      5.573565   900A      5.578333  
     901A      5.599941   902A      5.611755   903A      5.623197  
     904A      5.627009   905A      5.648117   906A      5.662236  
     907A      5.675282   908A      5.688440   909A      5.690407  
     910A      5.712942   911A      5.716975   912A      5.725294  
     913A      5.748116   914A      5.770732   915A      5.786637  
     916A      5.806064   917A      5.816092   918A      5.825902  
     919A      5.848831   920A      5.885434   921A      5.907830  
     922A      5.921623   923A      5.929990   924A      5.965506  
     925A      5.996631   926A      5.997280   927A      6.019415  
     928A      6.041086   929A      6.068259   930A      6.081295  
     931A      6.094913   932A      6.116649   933A      6.138169  
     934A      6.152868   935A      6.159979   936A      6.164675  
     937A      6.185468   938A      6.209947   939A      6.230078  
     940A      6.244865   941A      6.261236   942A      6.280838  
     943A      6.295925   944A      6.324707   945A      6.341424  
     946A      6.364005   947A      6.375969   948A      6.403502  
     949A      6.409085   950A      6.449018   951A      6.474862  
     952A      6.507389   953A      6.531808   954A      6.558464  
     955A      6.592793   956A      6.628173   957A      6.686592  
     958A      6.722790   959A      6.735631   960A      6.769248  
     961A      6.774971   962A      6.800892   963A      6.806184  
     964A      6.864605   965A      6.897391   966A      6.908314  
     967A      6.928861   968A      6.946545   969A      6.971493  
     970A      7.004297   971A      7.027884   972A      7.047339  
     973A      7.217843   974A      7.227974   975A      7.421282  
     976A      7.766451   977A     16.255355   978A     16.490492  
     979A     17.911350   980A     18.435629   981A     18.755688  
     982A     18.854174   983A     19.177178   984A     19.323895  
     985A     19.487920   986A     20.000915   987A     20.412681  
     988A     21.218689   989A     22.093129  

    Final Occupation by Irrep:
              A 
    DOCC [    48 ]

  @DF-RHF Final Energy:  -535.30826560899709

   => Energetics <=

    Nuclear Repulsion Energy =            820.1868347866462727
    One-Electron Energy =               -2338.6652823518070363
    Two-Electron Energy =                 983.1701819561637876
    Total Energy =                       -535.3082656089970897

Computation Completed

*** tstop() called on c435-033.stampede2.tacc.utexas.edu at Thu Apr  1 19:46:21 2021
Module time:
	user time   =    1227.88 seconds =      20.46 minutes
	system time =      31.01 seconds =       0.52 minutes
	total time  =        185 seconds =       3.08 minutes
Total time:
	user time   =    1227.88 seconds =      20.46 minutes
	system time =      31.01 seconds =       0.52 minutes
	total time  =        185 seconds =       3.08 minutes
   => Loading Basis Set <=

    Name: (AUG-CC-PVTZ AUX)
    Role: RIFIT
    Keyword: DF_BASIS_MP2
    atoms 1-2   entry N          line   206 file /home1/07844/xy3866/miniconda3/envs/p4env/share/psi4/basis/aug-cc-pvtz-ri.gbs 
    atoms 3-13  entry C          line   148 file /home1/07844/xy3866/miniconda3/envs/p4env/share/psi4/basis/aug-cc-pvtz-ri.gbs 
    atoms 14-30 entry H          line    30 file /home1/07844/xy3866/miniconda3/envs/p4env/share/psi4/basis/aug-cc-pvtz-ri.gbs 


*** tstart() called on c435-033.stampede2.tacc.utexas.edu
*** at Thu Apr  1 19:46:23 2021


  //>>>>>>>>>>>>>>>>>>>>>>>>>>>>>>>>>>>//
  //               DFMP2               //
  //<<<<<<<<<<<<<<<<<<<<<<<<<<<<<<<<<<<//

	 --------------------------------------------------------
	                          DF-MP2                         
	      2nd-Order Density-Fitted Moller-Plesset Theory     
	              RMP2 Wavefunction,   8 Threads             
	                                                         
	        Rob Parrish, Justin Turney, Andy Simmonett,      
	           Ed Hohenstein, and C. David Sherrill          
	 --------------------------------------------------------

   => Auxiliary Basis Set <=

  Basis Set: (AUG-CC-PVTZ AUX)
    Blend: AUG-CC-PVTZ-RI
    Number of shells: 602
    Number of basis functions: 2160
    Number of Cartesian functions: 2703
    Spherical Harmonics?: true
    Max angular momentum: 4

	 --------------------------------------------------------
	                 NBF =   989, NAUX =  2160
	 --------------------------------------------------------
	   CLASS    FOCC     OCC    AOCC    AVIR     VIR    FVIR
	   PAIRS       0      48      48     941     941       0
	 --------------------------------------------------------

  DFHelper Memory: AOs need 14.471 GiB; user supplied 22.352 GiB. Using in-core AOs.


         ------------------------------------------------------------
                                     CPHF                           
                                  Rob Parrish                       
         ------------------------------------------------------------

  ==> Geometry <==

    Molecular point group: c1
    Full point group: C1

    Geometry (in Angstrom), charge = 1, multiplicity = 1:

       Center              X                  Y                   Z               Mass       
    ------------   -----------------  -----------------  -----------------  -----------------
         N           -3.470311368865    -0.169230261136     0.161056558668    14.003074004430
         N           -0.672002368865     0.004632738864    -0.127978441332    14.003074004430
         C           -2.788328368865    -0.592470261136    -1.120904441332    12.000000000000
         C           -2.677069368865     0.865796738864     0.926734558668    12.000000000000
         C           -1.390364368865    -1.077602261136    -0.781441441332    12.000000000000
         C           -1.277314368865     0.326592738864     1.158263558668    12.000000000000
         C            0.758540631135    -0.172044261136    -0.038939441332    12.000000000000
         C            1.567403631135     0.962143738864    -0.235194441332    12.000000000000
         C            1.319304631135    -1.421316261136     0.250726558668    12.000000000000
         C            2.953910631135     0.797393738864    -0.133507441332    12.000000000000
         C            0.969113631135     2.307668738864    -0.548435441332    12.000000000000
         C            2.705288631135    -1.561399261136     0.330027558668    12.000000000000
         C            3.523131631135    -0.446603261136     0.144055558668    12.000000000000
         H           -2.751576368865     0.289580738864    -1.762526441332     1.007825032230
         H           -3.407106368865    -1.367515261136    -1.580544441332     1.007825032230
         H           -3.214746368865     1.070725738864     1.856059558668     1.007825032230
         H           -2.649522368865     1.761345738864     0.303301558668     1.007825032230
         H           -1.463255368865    -1.997494261136    -0.169780441332     1.007825032230
         H           -0.867300768865    -1.346861861136    -1.727030141332     1.007825032230
         H           -0.687094368865     1.103710738864     1.651225558668     1.007825032230
         H           -1.308458368865    -0.543420261136     1.842890558668     1.007825032230
         H           -4.415460368865     0.184987738864    -0.039427441332     1.007825032230
         H           -3.594387368865    -0.999391261136     0.758348558668     1.007825032230
         H            0.685514631135    -2.291230261136     0.409440558668     1.007825032230
         H            3.599354631135     1.659547738864    -0.288644441332     1.007825032230
         H            0.172217631135     2.218068738864    -1.290871441332     1.007825032230
         H            0.541358631135     2.783064738864     0.342442558668     1.007825032230
         H            1.735337631135     2.982186738864    -0.937871441332     1.007825032230
         H            3.140676631135    -2.533216261136     0.546793558668     1.007825032230
         H            4.603489631135    -0.546138261136     0.205443558668     1.007825032230

  Nuclear repulsion =  820.186834786646386
  Reference energy  = -535.308265608997090

  ==> Basis Set <==

  Basis Set: AUG-CC-PVTZ
    Blend: AUG-CC-PVTZ
    Number of shells: 335
    Number of basis functions: 989
    Number of Cartesian functions: 1140
    Spherical Harmonics?: true
    Max angular momentum: 3

  ==> CGRSolver (by Rob Parrish) <==

   Number of roots    =         1
   Preconditioning    =    JACOBI
   Convergence cutoff =     1E-06
   Maximum iterations =       100

  ==> CPHFRHamiltonian (by Rob Parrish) <== 

  ==> MemDFJK: Density-Fitted J/K Matrices <==

    J tasked:                   Yes
    K tasked:                   Yes
    wK tasked:                   No
    OpenMP threads:               8
    Memory [MiB]:             22888
    Algorithm:                 Core
    Schwarz Cutoff:           1E-12
    Mask sparsity (%):       8.8073
    Fitting Condition:        1E-10

   => Auxiliary Basis Set <=

  Basis Set: (AUG-CC-PVTZ AUX)
    Blend: AUG-CC-PVTZ-JKFIT
    Number of shells: 628
    Number of basis functions: 2134
    Number of Cartesian functions: 2638
    Spherical Harmonics?: true
    Max angular momentum: 4

  ==> CPHF Iterations <==

  => Iterations <=

             Iter  Converged  Remaining    Residual
  CGR           1          0          1   7.525E-02
  CGR           2          0          1   1.534E-02
  CGR           3          0          1   5.582E-03
  CGR           4          0          1   2.033E-03
  CGR           5          0          1   7.810E-04
  CGR           6          0          1   3.812E-04
  CGR           7          0          1   1.961E-04
  CGR           8          0          1   7.523E-05
  CGR           9          0          1   2.580E-05
  CGR          10          0          1   7.430E-06
  CGR          11          0          1   2.974E-06
  CGR          12          1          0   9.867E-07

    CGRSolver converged.

	-----------------------------------------------------------
	 ==================> DF-MP2 Energies <==================== 
	-----------------------------------------------------------
	 Reference Energy          =    -535.3082656089970897 [Eh]
	 Singles Energy            =      -0.0000000000000000 [Eh]
	 Same-Spin Energy          =      -0.5853418822647605 [Eh]
	 Opposite-Spin Energy      =      -1.9173248545649324 [Eh]
	 Correlation Energy        =      -2.5026667368296929 [Eh]
	 Total Energy              =    -537.8109323458268136 [Eh]
	-----------------------------------------------------------
	 ================> DF-SCS-MP2 Energies <================== 
	-----------------------------------------------------------
	 SCS Same-Spin Scale       =       0.3333333333333333 [-]
	 SCS Opposite-Spin Scale   =       1.2000000000000000 [-]
	 SCS Same-Spin Energy      =      -0.1951139607549202 [Eh]
	 SCS Opposite-Spin Energy  =      -2.3007898254779189 [Eh]
	 SCS Correlation Energy    =      -2.4959037862328390 [Eh]
	 SCS Total Energy          =    -537.8041693952299056 [Eh]
	-----------------------------------------------------------



Properties will be evaluated at   0.000000,   0.000000,   0.000000 [a0]

Properties computed using the MP2 density matrix

  Nuclear Dipole Moment: [e a0]
     X:    -9.2511      Y:     2.2766      Z:     0.1117

  Electronic Dipole Moment: [e a0]
     X:     4.4888      Y:    -2.5456      Z:     0.1766

  Dipole Moment: [e a0]
     X:    -4.7622      Y:    -0.2689      Z:     0.2883     Total:     4.7785

  Dipole Moment: [D]
     X:   -12.1044      Y:    -0.6836      Z:     0.7328     Total:    12.1458


*** tstop() called on c435-033.stampede2.tacc.utexas.edu at Thu Apr  1 19:59:54 2021
Module time:
	user time   =    5310.57 seconds =      88.51 minutes
	system time =      72.52 seconds =       1.21 minutes
	total time  =        811 seconds =      13.52 minutes
Total time:
	user time   =    6539.92 seconds =     109.00 minutes
	system time =     103.56 seconds =       1.73 minutes
	total time  =        998 seconds =      16.63 minutes

    Psi4 stopped on: Thursday, 01 April 2021 07:59PM
    Psi4 wall time for execution: 0:16:41.21

*** Psi4 exiting successfully. Buy a developer a beer!
