
    -----------------------------------------------------------------------
          Psi4: An Open-Source Ab Initio Electronic Structure Package
                               Psi4 1.4a3.dev225 

                         Git: Rev {master} 7105e37 


    D. G. A. Smith, L. A. Burns, A. C. Simmonett, R. M. Parrish,
    M. C. Schieber, R. Galvelis, P. Kraus, H. Kruse, R. Di Remigio,
    A. Alenaizan, A. M. James, S. Lehtola, J. P. Misiewicz, M. Scheurer,
    R. A. Shaw, J. B. Schriber, Y. Xie, Z. L. Glick, D. A. Sirianni,
    J. S. O'Brien, J. M. Waldrop, A. Kumar, E. G. Hohenstein,
    B. P. Pritchard, B. R. Brooks, H. F. Schaefer III, A. Yu. Sokolov,
    K. Patkowski, A. E. DePrince III, U. Bozkaya, R. A. King,
    F. A. Evangelista, J. M. Turney, T. D. Crawford, C. D. Sherrill,
    J. Chem. Phys. 152(18) 184108 (2020). https://doi.org/10.1063/5.0006002

                            Additional Code Authors
    E. T. Seidl, C. L. Janssen, E. F. Valeev, M. L. Leininger,
    J. F. Gonthier, R. M. Richard, H. R. McAlexander, M. Saitow, X. Wang,
    P. Verma, and M. H. Lechner

             Previous Authors, Complete List of Code Contributors,
                       and Citations for Specific Modules
    https://github.com/psi4/psi4/blob/master/codemeta.json
    https://github.com/psi4/psi4/graphs/contributors
    http://psicode.org/psi4manual/master/introduction.html#citing-psifour

    -----------------------------------------------------------------------


    Psi4 started on: Thursday, 01 April 2021 12:28PM

    Process ID: 199093
    Host:       c435-033.stampede2.tacc.utexas.edu
    PSIDATADIR: /home1/07844/xy3866/miniconda3/envs/p4env/share/psi4
    Memory:     500.0 MiB
    Threads:    8
    
  ==> Input File <==

--------------------------------------------------------------------------
#psi4
#
memory 32 gb

molecule  {
1 1
  N       -3.4197460    -0.1817000     0.1602720
  N       -0.6214370    -0.0078370    -0.1287630
  C       -2.7377630    -0.6049400    -1.1216890
  C       -2.6265040     0.8533270     0.9259500
  C       -1.3397990    -1.0900720    -0.7822260
  C       -1.2267490     0.3141230     1.1574790
  C        0.8091060    -0.1845140    -0.0397240
  C        1.6179690     0.9496740    -0.2359790
  C        1.3698700    -1.4337860     0.2499420
  C        3.0044760     0.7849240    -0.1342920
  C        1.0196790     2.2951990    -0.5492200
  C        2.7558540    -1.5738690     0.3292430
  C        3.5736970    -0.4590730     0.1432710
  H       -2.7010110     0.2771110    -1.7633110
  H       -3.3565410    -1.3799850    -1.5813290
  H       -3.1641810     1.0582560     1.8552750
  H       -2.5989570     1.7488760     0.3025170
  H       -1.4126900    -2.0099640    -0.1705650
  H       -0.8261290    -1.3544960    -1.7108330
  H       -0.6365290     1.0912410     1.6504410
  H       -1.2578930    -0.5558900     1.8421060
  H       -4.3832641     0.1794023    -0.0441084
  H       -3.5438220    -1.0118610     0.7575640
  H        0.7360800    -2.3037000     0.4086560
  H        3.6499200     1.6470780    -0.2894290
  H        0.2227830     2.2055990    -1.2916560
  H        0.5919240     2.7705950     0.3416580
  H        1.7859030     2.9697170    -0.9386560
  H        3.1912420    -2.5456860     0.5460090
  H        4.6540550    -0.5586080     0.2046590
units angstrom
no_reorient  #important for SAPT in psi4, default
symmetry c1  #important for SAPT in psi4, default
}

set PROPERTIES_ORIGIN ["COM"]
properties('MP2/aug-cc-pvtz', properties = ['dipole'])
--------------------------------------------------------------------------

  Memory set to  29.802 GiB by Python driver.
    SCF Algorithm Type (re)set to DF.

*** tstart() called on c435-033.stampede2.tacc.utexas.edu
*** at Thu Apr  1 12:28:41 2021

   => Loading Basis Set <=

    Name: AUG-CC-PVTZ
    Role: ORBITAL
    Keyword: BASIS
    atoms 1-2   entry N          line   285 file /home1/07844/xy3866/miniconda3/envs/p4env/share/psi4/basis/aug-cc-pvtz.gbs 
    atoms 3-13  entry C          line   239 file /home1/07844/xy3866/miniconda3/envs/p4env/share/psi4/basis/aug-cc-pvtz.gbs 
    atoms 14-30 entry H          line    40 file /home1/07844/xy3866/miniconda3/envs/p4env/share/psi4/basis/aug-cc-pvtz.gbs 


         ---------------------------------------------------------
                                   SCF
               by Justin Turney, Rob Parrish, Andy Simmonett
                          and Daniel G. A. Smith
                              RHF Reference
                        8 Threads,  30517 MiB Core
         ---------------------------------------------------------

  ==> Geometry <==

    Molecular point group: c1
    Full point group: C1

    Geometry (in Angstrom), charge = 1, multiplicity = 1:

       Center              X                  Y                   Z               Mass       
    ------------   -----------------  -----------------  -----------------  -----------------
         N           -3.470153414284    -0.169296940958     0.160982110466    14.003074004430
         N           -0.671844414284     0.004566059042    -0.128052889534    14.003074004430
         C           -2.788170414284    -0.592536940958    -1.120978889534    12.000000000000
         C           -2.676911414284     0.865730059042     0.926660110466    12.000000000000
         C           -1.390206414284    -1.077668940958    -0.781515889534    12.000000000000
         C           -1.277156414284     0.326526059042     1.158189110466    12.000000000000
         C            0.758698585716    -0.172110940958    -0.039013889534    12.000000000000
         C            1.567561585716     0.962077059042    -0.235268889534    12.000000000000
         C            1.319462585716    -1.421382940958     0.250652110466    12.000000000000
         C            2.954068585716     0.797327059042    -0.133581889534    12.000000000000
         C            0.969271585716     2.307602059042    -0.548509889534    12.000000000000
         C            2.705446585716    -1.561465940958     0.329953110466    12.000000000000
         C            3.523289585716    -0.446669940958     0.143981110466    12.000000000000
         H           -2.751418414284     0.289514059042    -1.762600889534     1.007825032230
         H           -3.406948414284    -1.367581940958    -1.580618889534     1.007825032230
         H           -3.214588414284     1.070659059042     1.855985110466     1.007825032230
         H           -2.649364414284     1.761279059042     0.303227110466     1.007825032230
         H           -1.463097414284    -1.997560940958    -0.169854889534     1.007825032230
         H           -0.876536414284    -1.342092940958    -1.710122889534     1.007825032230
         H           -0.686936414284     1.103644059042     1.651151110466     1.007825032230
         H           -1.308300414284    -0.543486940958     1.842816110466     1.007825032230
         H           -4.433671514284     0.191805359042    -0.043398289534     1.007825032230
         H           -3.594229414284    -0.999457940958     0.758274110466     1.007825032230
         H            0.685672585716    -2.291296940958     0.409366110466     1.007825032230
         H            3.599512585716     1.659481059042    -0.288718889534     1.007825032230
         H            0.172375585716     2.218002059042    -1.290945889534     1.007825032230
         H            0.541516585716     2.782998059042     0.342368110466     1.007825032230
         H            1.735495585716     2.982120059042    -0.937945889534     1.007825032230
         H            3.140834585716    -2.533282940958     0.546719110466     1.007825032230
         H            4.603647585716    -0.546204940958     0.205369110466     1.007825032230

  Running in c1 symmetry.

  Rotational constants: A =      0.05669  B =      0.01672  C =      0.01467 [cm^-1]
  Rotational constants: A =   1699.60231  B =    501.12377  C =    439.85358 [MHz]
  Nuclear repulsion =  820.166540418097611

  Charge       = 1
  Multiplicity = 1
  Electrons    = 96
  Nalpha       = 48
  Nbeta        = 48

  ==> Algorithm <==

  SCF Algorithm Type is DF.
  DIIS enabled.
  MOM disabled.
  Fractional occupation disabled.
  Guess Type is SAD.
  Energy threshold   = 1.00e-10
  Density threshold  = 1.00e-10
  Integral threshold = 1.00e-12

  ==> Primary Basis <==

  Basis Set: AUG-CC-PVTZ
    Blend: AUG-CC-PVTZ
    Number of shells: 335
    Number of basis functions: 989
    Number of Cartesian functions: 1140
    Spherical Harmonics?: true
    Max angular momentum: 3

   => Loading Basis Set <=

    Name: (AUG-CC-PVTZ AUX)
    Role: JKFIT
    Keyword: DF_BASIS_SCF
    atoms 1-2   entry N          line   224 file /home1/07844/xy3866/miniconda3/envs/p4env/share/psi4/basis/aug-cc-pvtz-jkfit.gbs 
    atoms 3-13  entry C          line   162 file /home1/07844/xy3866/miniconda3/envs/p4env/share/psi4/basis/aug-cc-pvtz-jkfit.gbs 
    atoms 14-30 entry H          line    70 file /home1/07844/xy3866/miniconda3/envs/p4env/share/psi4/basis/aug-cc-pvtz-jkfit.gbs 

  ==> Integral Setup <==

  DFHelper Memory: AOs need 13.667 GiB; user supplied 22.352 GiB. Using in-core AOs.

  ==> MemDFJK: Density-Fitted J/K Matrices <==

    J tasked:                   Yes
    K tasked:                   Yes
    wK tasked:                   No
    OpenMP threads:               8
    Memory [MiB]:             22888
    Algorithm:                 Core
    Schwarz Cutoff:           1E-12
    Mask sparsity (%):      13.9774
    Fitting Condition:        1E-10

   => Auxiliary Basis Set <=

  Basis Set: (AUG-CC-PVTZ AUX)
    Blend: AUG-CC-PVTZ-JKFIT
    Number of shells: 628
    Number of basis functions: 2134
    Number of Cartesian functions: 2638
    Spherical Harmonics?: true
    Max angular momentum: 4

  Minimum eigenvalue in the overlap matrix is 3.4367375901E-07.
  Reciprocal condition number of the overlap matrix is 1.3375673920E-08.
    Using symmetric orthogonalization.

  ==> Pre-Iterations <==

  SCF Guess: Superposition of Atomic Densities via on-the-fly atomic UHF (no occupation information).

   -------------------------
    Irrep   Nso     Nmo    
   -------------------------
     A        989     989 
   -------------------------
    Total     989     989
   -------------------------

  ==> Iterations <==

                           Total Energy        Delta E     RMS |[F,P]|

   @DF-RHF iter SAD:  -535.83146008958443   -5.35831e+02   0.00000e+00 
   @DF-RHF iter   1:  -534.90797245821113    9.23488e-01   7.78647e-04 DIIS
   @DF-RHF iter   2:  -535.24705541748608   -3.39083e-01   3.24949e-04 DIIS
   @DF-RHF iter   3:  -535.30209196784563   -5.50366e-02   8.39637e-05 DIIS
   @DF-RHF iter   4:  -535.30736715399553   -5.27519e-03   2.53277e-05 DIIS
   @DF-RHF iter   5:  -535.30774787879841   -3.80725e-04   8.75313e-06 DIIS
   @DF-RHF iter   6:  -535.30779726207186   -4.93833e-05   2.17437e-06 DIIS
   @DF-RHF iter   7:  -535.30780208101817   -4.81895e-06   8.43145e-07 DIIS
   @DF-RHF iter   8:  -535.30780285356263   -7.72544e-07   3.18882e-07 DIIS
   @DF-RHF iter   9:  -535.30780303586789   -1.82305e-07   1.58639e-07 DIIS
   @DF-RHF iter  10:  -535.30780309028046   -5.44126e-08   7.40251e-08 DIIS
   @DF-RHF iter  11:  -535.30780310581997   -1.55395e-08   3.09798e-08 DIIS
   @DF-RHF iter  12:  -535.30780310806017   -2.24020e-09   1.26578e-08 DIIS
   @DF-RHF iter  13:  -535.30780310827140   -2.11230e-10   3.58634e-09 DIIS
   @DF-RHF iter  14:  -535.30780310828959   -1.81899e-11   9.82902e-10 DIIS
   @DF-RHF iter  15:  -535.30780310829118   -1.59162e-12   3.57205e-10 DIIS
   @DF-RHF iter  16:  -535.30780310829255   -1.36424e-12   1.00743e-10 DIIS
   @DF-RHF iter  17:  -535.30780310829289   -3.41061e-13   4.18959e-11 DIIS
  Energy and wave function converged.


  ==> Post-Iterations <==

    Orbital Energies [Eh]
    ---------------------

    Doubly Occupied:                                                      

       1A    -15.868029     2A    -15.702958     3A    -11.456621  
       4A    -11.456587     5A    -11.417436     6A    -11.417164  
       7A    -11.375105     8A    -11.344331     9A    -11.340128  
      10A    -11.331757    11A    -11.329835    12A    -11.328563  
      13A    -11.323527    14A     -1.495061    15A     -1.389792  
      16A     -1.249764    17A     -1.221669    18A     -1.154844  
      19A     -1.142295    20A     -1.087631    21A     -1.053275  
      22A     -1.031905    23A     -0.995621    24A     -0.932439  
      25A     -0.922769    26A     -0.902942    27A     -0.867224  
      28A     -0.823487    29A     -0.809895    30A     -0.793407  
      31A     -0.788241    32A     -0.754780    33A     -0.744632  
      34A     -0.734398    35A     -0.714234    36A     -0.704395  
      37A     -0.687579    38A     -0.675123    39A     -0.669443  
      40A     -0.659831    41A     -0.655290    42A     -0.640444  
      43A     -0.599886    44A     -0.591605    45A     -0.588018  
      46A     -0.521551    47A     -0.433499    48A     -0.423433  

    Virtual:                                                              

      49A     -0.097869    50A     -0.074692    51A     -0.066140  
      52A     -0.058635    53A     -0.043277    54A     -0.040056  
      55A     -0.039233    56A     -0.037385    57A     -0.034360  
      58A     -0.020508    59A     -0.019577    60A     -0.017330  
      61A     -0.011519    62A     -0.011041    63A     -0.008048  
      64A      0.000208    65A      0.001639    66A      0.003940  
      67A      0.006774    68A      0.010443    69A      0.012676  
      70A      0.014746    71A      0.017697    72A      0.021044  
      73A      0.021899    74A      0.029525    75A      0.032857  
      76A      0.033844    77A      0.035172    78A      0.039407  
      79A      0.040033    80A      0.043595    81A      0.047891  
      82A      0.050168    83A      0.051140    84A      0.055542  
      85A      0.059958    86A      0.063385    87A      0.065909  
      88A      0.066788    89A      0.072948    90A      0.077016  
      91A      0.078454    92A      0.080139    93A      0.082109  
      94A      0.085862    95A      0.091136    96A      0.094964  
      97A      0.097294    98A      0.102216    99A      0.104493  
     100A      0.108253   101A      0.115107   102A      0.117255  
     103A      0.119904   104A      0.122718   105A      0.124043  
     106A      0.125217   107A      0.132813   108A      0.134278  
     109A      0.141412   110A      0.142675   111A      0.151451  
     112A      0.153882   113A      0.159894   114A      0.161743  
     115A      0.165118   116A      0.170956   117A      0.172930  
     118A      0.174161   119A      0.176720   120A      0.179622  
     121A      0.185894   122A      0.193494   123A      0.194233  
     124A      0.196282   125A      0.199646   126A      0.205254  
     127A      0.209980   128A      0.212982   129A      0.215800  
     130A      0.219019   131A      0.221246   132A      0.226132  
     133A      0.227509   134A      0.229227   135A      0.231809  
     136A      0.234270   137A      0.238365   138A      0.243918  
     139A      0.246766   140A      0.255927   141A      0.258638  
     142A      0.261552   143A      0.264023   144A      0.267271  
     145A      0.267962   146A      0.269583   147A      0.272078  
     148A      0.273879   149A      0.276646   150A      0.283875  
     151A      0.284942   152A      0.290516   153A      0.293655  
     154A      0.296436   155A      0.299530   156A      0.304876  
     157A      0.309138   158A      0.311689   159A      0.314418  
     160A      0.317806   161A      0.318815   162A      0.324977  
     163A      0.326542   164A      0.331696   165A      0.337205  
     166A      0.339934   167A      0.342168   168A      0.343421  
     169A      0.348666   170A      0.351574   171A      0.360206  
     172A      0.361173   173A      0.362632   174A      0.364574  
     175A      0.369431   176A      0.371093   177A      0.373191  
     178A      0.376015   179A      0.380807   180A      0.386444  
     181A      0.388554   182A      0.391613   183A      0.396294  
     184A      0.401711   185A      0.403939   186A      0.409070  
     187A      0.411117   188A      0.414417   189A      0.415227  
     190A      0.420162   191A      0.423401   192A      0.424836  
     193A      0.428558   194A      0.429700   195A      0.432971  
     196A      0.434833   197A      0.439516   198A      0.440130  
     199A      0.450127   200A      0.452116   201A      0.454799  
     202A      0.455353   203A      0.463292   204A      0.463950  
     205A      0.464383   206A      0.466134   207A      0.471732  
     208A      0.475596   209A      0.477489   210A      0.480924  
     211A      0.485207   212A      0.486622   213A      0.487916  
     214A      0.494484   215A      0.499544   216A      0.505457  
     217A      0.506018   218A      0.510182   219A      0.518521  
     220A      0.520586   221A      0.526475   222A      0.527954  
     223A      0.530301   224A      0.537130   225A      0.540590  
     226A      0.542421   227A      0.549243   228A      0.551985  
     229A      0.563946   230A      0.568932   231A      0.570514  
     232A      0.574434   233A      0.579320   234A      0.581243  
     235A      0.583002   236A      0.586843   237A      0.592628  
     238A      0.598699   239A      0.604116   240A      0.613505  
     241A      0.614736   242A      0.616927   243A      0.624192  
     244A      0.627156   245A      0.633708   246A      0.635659  
     247A      0.646906   248A      0.651173   249A      0.653374  
     250A      0.656680   251A      0.661126   252A      0.665834  
     253A      0.671421   254A      0.677182   255A      0.683523  
     256A      0.690006   257A      0.696315   258A      0.701411  
     259A      0.703336   260A      0.708606   261A      0.717546  
     262A      0.723417   263A      0.726586   264A      0.727544  
     265A      0.732240   266A      0.736625   267A      0.741014  
     268A      0.744279   269A      0.746158   270A      0.750792  
     271A      0.756523   272A      0.764373   273A      0.767536  
     274A      0.773506   275A      0.776652   276A      0.780573  
     277A      0.781301   278A      0.786186   279A      0.795963  
     280A      0.798223   281A      0.801541   282A      0.804896  
     283A      0.810698   284A      0.812371   285A      0.821070  
     286A      0.822563   287A      0.826069   288A      0.826402  
     289A      0.830341   290A      0.836233   291A      0.841385  
     292A      0.846676   293A      0.848912   294A      0.853217  
     295A      0.858181   296A      0.864769   297A      0.867126  
     298A      0.871241   299A      0.876287   300A      0.883369  
     301A      0.885415   302A      0.887584   303A      0.894828  
     304A      0.898001   305A      0.902292   306A      0.907580  
     307A      0.913332   308A      0.915360   309A      0.920875  
     310A      0.924693   311A      0.926583   312A      0.929926  
     313A      0.937183   314A      0.939327   315A      0.944587  
     316A      0.949667   317A      0.955104   318A      0.960990  
     319A      0.963404   320A      0.964608   321A      0.967559  
     322A      0.971785   323A      0.974190   324A      0.978758  
     325A      0.983616   326A      0.986593   327A      0.993748  
     328A      0.998329   329A      1.002661   330A      1.003499  
     331A      1.006169   332A      1.012026   333A      1.016859  
     334A      1.020055   335A      1.027822   336A      1.029076  
     337A      1.034593   338A      1.039592   339A      1.042546  
     340A      1.046443   341A      1.050385   342A      1.055016  
     343A      1.059306   344A      1.064314   345A      1.069062  
     346A      1.071928   347A      1.072346   348A      1.077376  
     349A      1.083427   350A      1.086586   351A      1.095252  
     352A      1.097239   353A      1.102264   354A      1.105069  
     355A      1.111464   356A      1.114961   357A      1.122307  
     358A      1.125581   359A      1.132016   360A      1.133037  
     361A      1.136800   362A      1.144147   363A      1.145886  
     364A      1.147673   365A      1.153175   366A      1.162931  
     367A      1.163927   368A      1.175571   369A      1.181346  
     370A      1.184228   371A      1.188570   372A      1.190894  
     373A      1.195209   374A      1.202063   375A      1.205400  
     376A      1.210310   377A      1.214979   378A      1.216204  
     379A      1.227663   380A      1.233096   381A      1.236646  
     382A      1.237245   383A      1.244200   384A      1.250949  
     385A      1.259841   386A      1.262213   387A      1.263334  
     388A      1.275016   389A      1.280003   390A      1.288406  
     391A      1.292322   392A      1.296886   393A      1.300295  
     394A      1.309405   395A      1.310956   396A      1.318770  
     397A      1.326858   398A      1.330132   399A      1.341084  
     400A      1.349219   401A      1.350997   402A      1.353579  
     403A      1.355213   404A      1.361398   405A      1.362307  
     406A      1.369955   407A      1.381049   408A      1.384103  
     409A      1.387088   410A      1.392836   411A      1.399584  
     412A      1.409073   413A      1.415511   414A      1.418745  
     415A      1.426201   416A      1.431792   417A      1.435248  
     418A      1.439767   419A      1.443273   420A      1.447837  
     421A      1.461823   422A      1.463199   423A      1.472799  
     424A      1.474156   425A      1.475258   426A      1.483147  
     427A      1.484588   428A      1.492199   429A      1.495127  
     430A      1.501402   431A      1.507834   432A      1.518644  
     433A      1.523559   434A      1.529237   435A      1.532854  
     436A      1.537031   437A      1.541703   438A      1.543155  
     439A      1.549149   440A      1.554578   441A      1.560135  
     442A      1.566667   443A      1.573647   444A      1.577361  
     445A      1.580805   446A      1.586058   447A      1.595207  
     448A      1.607205   449A      1.610738   450A      1.613316  
     451A      1.619368   452A      1.622717   453A      1.628852  
     454A      1.630268   455A      1.637165   456A      1.646306  
     457A      1.647174   458A      1.654587   459A      1.660240  
     460A      1.669053   461A      1.673482   462A      1.680635  
     463A      1.689583   464A      1.697774   465A      1.703121  
     466A      1.706209   467A      1.715748   468A      1.720187  
     469A      1.727379   470A      1.732750   471A      1.736108  
     472A      1.740219   473A      1.742319   474A      1.748292  
     475A      1.753933   476A      1.766774   477A      1.771036  
     478A      1.772644   479A      1.776139   480A      1.786372  
     481A      1.800568   482A      1.801872   483A      1.802629  
     484A      1.806278   485A      1.813351   486A      1.818205  
     487A      1.822398   488A      1.829073   489A      1.834837  
     490A      1.843076   491A      1.850510   492A      1.850692  
     493A      1.855450   494A      1.859525   495A      1.868780  
     496A      1.875713   497A      1.879298   498A      1.886073  
     499A      1.894809   500A      1.898874   501A      1.901954  
     502A      1.907935   503A      1.912807   504A      1.916554  
     505A      1.923513   506A      1.927983   507A      1.935262  
     508A      1.946177   509A      1.952627   510A      1.954618  
     511A      1.959147   512A      1.966733   513A      1.972935  
     514A      1.982672   515A      1.983694   516A      1.991027  
     517A      1.994850   518A      2.004970   519A      2.012715  
     520A      2.014550   521A      2.021571   522A      2.025842  
     523A      2.038535   524A      2.041850   525A      2.044464  
     526A      2.053440   527A      2.056820   528A      2.066737  
     529A      2.078219   530A      2.086800   531A      2.092962  
     532A      2.097410   533A      2.101410   534A      2.106721  
     535A      2.109616   536A      2.113159   537A      2.120499  
     538A      2.136239   539A      2.143495   540A      2.146690  
     541A      2.155011   542A      2.162865   543A      2.164656  
     544A      2.177234   545A      2.184228   546A      2.189668  
     547A      2.199446   548A      2.204063   549A      2.214415  
     550A      2.225355   551A      2.228570   552A      2.233447  
     553A      2.241050   554A      2.255348   555A      2.261185  
     556A      2.273573   557A      2.280741   558A      2.283815  
     559A      2.288628   560A      2.293266   561A      2.310202  
     562A      2.313543   563A      2.326808   564A      2.327513  
     565A      2.342144   566A      2.348437   567A      2.356737  
     568A      2.369510   569A      2.378132   570A      2.383056  
     571A      2.387080   572A      2.393262   573A      2.404590  
     574A      2.411649   575A      2.416738   576A      2.427458  
     577A      2.440234   578A      2.443756   579A      2.450994  
     580A      2.466952   581A      2.476597   582A      2.481419  
     583A      2.498312   584A      2.506746   585A      2.508059  
     586A      2.533233   587A      2.543468   588A      2.548115  
     589A      2.557182   590A      2.567004   591A      2.578244  
     592A      2.581857   593A      2.597137   594A      2.602154  
     595A      2.612255   596A      2.618434   597A      2.636387  
     598A      2.649439   599A      2.656703   600A      2.668406  
     601A      2.682770   602A      2.698980   603A      2.706767  
     604A      2.720813   605A      2.724763   606A      2.743423  
     607A      2.759306   608A      2.786384   609A      2.789224  
     610A      2.814566   611A      2.821191   612A      2.837102  
     613A      2.860975   614A      2.872437   615A      2.910125  
     616A      2.924141   617A      2.964280   618A      2.966011  
     619A      3.006695   620A      3.030682   621A      3.042967  
     622A      3.061587   623A      3.069538   624A      3.104311  
     625A      3.125548   626A      3.161193   627A      3.182686  
     628A      3.213092   629A      3.231537   630A      3.254980  
     631A      3.275298   632A      3.285752   633A      3.302479  
     634A      3.316015   635A      3.321568   636A      3.330898  
     637A      3.346162   638A      3.352367   639A      3.358733  
     640A      3.378579   641A      3.383385   642A      3.394518  
     643A      3.399444   644A      3.407272   645A      3.420279  
     646A      3.432519   647A      3.438941   648A      3.445926  
     649A      3.448328   650A      3.456309   651A      3.465138  
     652A      3.481679   653A      3.487599   654A      3.492971  
     655A      3.504422   656A      3.509743   657A      3.512746  
     658A      3.520568   659A      3.533059   660A      3.536297  
     661A      3.548587   662A      3.555327   663A      3.571941  
     664A      3.576650   665A      3.581289   666A      3.583449  
     667A      3.595354   668A      3.597713   669A      3.607727  
     670A      3.619656   671A      3.624977   672A      3.629751  
     673A      3.644484   674A      3.646795   675A      3.658743  
     676A      3.660312   677A      3.670863   678A      3.675500  
     679A      3.684049   680A      3.695140   681A      3.699369  
     682A      3.703691   683A      3.711571   684A      3.712023  
     685A      3.731869   686A      3.741748   687A      3.754716  
     688A      3.766865   689A      3.767703   690A      3.771136  
     691A      3.790353   692A      3.794347   693A      3.799083  
     694A      3.810342   695A      3.816971   696A      3.818729  
     697A      3.825237   698A      3.831031   699A      3.839667  
     700A      3.847479   701A      3.854263   702A      3.864959  
     703A      3.868773   704A      3.874201   705A      3.886807  
     706A      3.889542   707A      3.892848   708A      3.894570  
     709A      3.903964   710A      3.913185   711A      3.915929  
     712A      3.921716   713A      3.934542   714A      3.942290  
     715A      3.948326   716A      3.950677   717A      3.954882  
     718A      3.961790   719A      3.964365   720A      3.967090  
     721A      3.976523   722A      3.991292   723A      3.998627  
     724A      4.002102   725A      4.008973   726A      4.020415  
     727A      4.026427   728A      4.027122   729A      4.038067  
     730A      4.042336   731A      4.054423   732A      4.063104  
     733A      4.067364   734A      4.071983   735A      4.085201  
     736A      4.092327   737A      4.109314   738A      4.115209  
     739A      4.122993   740A      4.126243   741A      4.130115  
     742A      4.133755   743A      4.141684   744A      4.151006  
     745A      4.157313   746A      4.171082   747A      4.176346  
     748A      4.186240   749A      4.192776   750A      4.196348  
     751A      4.204062   752A      4.213145   753A      4.221959  
     754A      4.231644   755A      4.233971   756A      4.243258  
     757A      4.246456   758A      4.258376   759A      4.264862  
     760A      4.268942   761A      4.270770   762A      4.277193  
     763A      4.285786   764A      4.301498   765A      4.306430  
     766A      4.319900   767A      4.323657   768A      4.330149  
     769A      4.336910   770A      4.340453   771A      4.353743  
     772A      4.361568   773A      4.365980   774A      4.373952  
     775A      4.382145   776A      4.391893   777A      4.394449  
     778A      4.406944   779A      4.420592   780A      4.428797  
     781A      4.441604   782A      4.449099   783A      4.459136  
     784A      4.461200   785A      4.474640   786A      4.485432  
     787A      4.491621   788A      4.504969   789A      4.517322  
     790A      4.525397   791A      4.531454   792A      4.536545  
     793A      4.542724   794A      4.554826   795A      4.558789  
     796A      4.574692   797A      4.580536   798A      4.586957  
     799A      4.596400   800A      4.599716   801A      4.619801  
     802A      4.627161   803A      4.635445   804A      4.642638  
     805A      4.650044   806A      4.669099   807A      4.674471  
     808A      4.679030   809A      4.688605   810A      4.692294  
     811A      4.702210   812A      4.712111   813A      4.715692  
     814A      4.723477   815A      4.731509   816A      4.743234  
     817A      4.757343   818A      4.767360   819A      4.782537  
     820A      4.785191   821A      4.794244   822A      4.812107  
     823A      4.815606   824A      4.822430   825A      4.824626  
     826A      4.839008   827A      4.844750   828A      4.854926  
     829A      4.869870   830A      4.870951   831A      4.873454  
     832A      4.882143   833A      4.894915   834A      4.904529  
     835A      4.914528   836A      4.924875   837A      4.938306  
     838A      4.950480   839A      4.953625   840A      4.973557  
     841A      4.980897   842A      4.986831   843A      4.995407  
     844A      5.012394   845A      5.019528   846A      5.036397  
     847A      5.052404   848A      5.056324   849A      5.065385  
     850A      5.067627   851A      5.079048   852A      5.094344  
     853A      5.105303   854A      5.112377   855A      5.115619  
     856A      5.119251   857A      5.135284   858A      5.139248  
     859A      5.140813   860A      5.142341   861A      5.164523  
     862A      5.169380   863A      5.180346   864A      5.197296  
     865A      5.201853   866A      5.214434   867A      5.223584  
     868A      5.230429   869A      5.239704   870A      5.245240  
     871A      5.257468   872A      5.268182   873A      5.276035  
     874A      5.295905   875A      5.299076   876A      5.309535  
     877A      5.338264   878A      5.345957   879A      5.356197  
     880A      5.362479   881A      5.376594   882A      5.378559  
     883A      5.389927   884A      5.411051   885A      5.417048  
     886A      5.419860   887A      5.425870   888A      5.438327  
     889A      5.445310   890A      5.465262   891A      5.486109  
     892A      5.498902   893A      5.500363   894A      5.516566  
     895A      5.522692   896A      5.530735   897A      5.548658  
     898A      5.561604   899A      5.576882   900A      5.581611  
     901A      5.599196   902A      5.612351   903A      5.623618  
     904A      5.628251   905A      5.651304   906A      5.662789  
     907A      5.673870   908A      5.686759   909A      5.692880  
     910A      5.709191   911A      5.718343   912A      5.725861  
     913A      5.748589   914A      5.767918   915A      5.784256  
     916A      5.809736   917A      5.812577   918A      5.829320  
     919A      5.850212   920A      5.891536   921A      5.901921  
     922A      5.909353   923A      5.937896   924A      5.967402  
     925A      5.999301   926A      6.002144   927A      6.021159  
     928A      6.041204   929A      6.070373   930A      6.086243  
     931A      6.095085   932A      6.116950   933A      6.132776  
     934A      6.153823   935A      6.159975   936A      6.166876  
     937A      6.181854   938A      6.207511   939A      6.229224  
     940A      6.243944   941A      6.257826   942A      6.282318  
     943A      6.295031   944A      6.323818   945A      6.340603  
     946A      6.364042   947A      6.375853   948A      6.402999  
     949A      6.410291   950A      6.450153   951A      6.475787  
     952A      6.506597   953A      6.528549   954A      6.541359  
     955A      6.590566   956A      6.629229   957A      6.686657  
     958A      6.721740   959A      6.735708   960A      6.767565  
     961A      6.771170   962A      6.800320   963A      6.805948  
     964A      6.865359   965A      6.897049   966A      6.910149  
     967A      6.929999   968A      6.947821   969A      6.965037  
     970A      7.000316   971A      7.019666   972A      7.043456  
     973A      7.218362   974A      7.228827   975A      7.426757  
     976A      7.732129   977A     16.255339   978A     16.492086  
     979A     17.920657   980A     18.462276   981A     18.759004  
     982A     18.836232   983A     19.120679   984A     19.357666  
     985A     19.483502   986A     19.989589   987A     20.409980  
     988A     21.218952   989A     22.093539  

    Final Occupation by Irrep:
              A 
    DOCC [    48 ]

  @DF-RHF Final Energy:  -535.30780310829289

   => Energetics <=

    Nuclear Repulsion Energy =            820.1665404180976111
    One-Electron Energy =               -2338.6438010709230184
    Two-Electron Energy =                 983.1694575445325199
    Total Energy =                       -535.3078031082928874

Computation Completed

*** tstop() called on c435-033.stampede2.tacc.utexas.edu at Thu Apr  1 12:31:48 2021
Module time:
	user time   =    1239.39 seconds =      20.66 minutes
	system time =      29.91 seconds =       0.50 minutes
	total time  =        187 seconds =       3.12 minutes
Total time:
	user time   =    1239.39 seconds =      20.66 minutes
	system time =      29.91 seconds =       0.50 minutes
	total time  =        187 seconds =       3.12 minutes
   => Loading Basis Set <=

    Name: (AUG-CC-PVTZ AUX)
    Role: RIFIT
    Keyword: DF_BASIS_MP2
    atoms 1-2   entry N          line   206 file /home1/07844/xy3866/miniconda3/envs/p4env/share/psi4/basis/aug-cc-pvtz-ri.gbs 
    atoms 3-13  entry C          line   148 file /home1/07844/xy3866/miniconda3/envs/p4env/share/psi4/basis/aug-cc-pvtz-ri.gbs 
    atoms 14-30 entry H          line    30 file /home1/07844/xy3866/miniconda3/envs/p4env/share/psi4/basis/aug-cc-pvtz-ri.gbs 


*** tstart() called on c435-033.stampede2.tacc.utexas.edu
*** at Thu Apr  1 12:31:49 2021


  //>>>>>>>>>>>>>>>>>>>>>>>>>>>>>>>>>>>//
  //               DFMP2               //
  //<<<<<<<<<<<<<<<<<<<<<<<<<<<<<<<<<<<//

	 --------------------------------------------------------
	                          DF-MP2                         
	      2nd-Order Density-Fitted Moller-Plesset Theory     
	              RMP2 Wavefunction,   8 Threads             
	                                                         
	        Rob Parrish, Justin Turney, Andy Simmonett,      
	           Ed Hohenstein, and C. David Sherrill          
	 --------------------------------------------------------

   => Auxiliary Basis Set <=

  Basis Set: (AUG-CC-PVTZ AUX)
    Blend: AUG-CC-PVTZ-RI
    Number of shells: 602
    Number of basis functions: 2160
    Number of Cartesian functions: 2703
    Spherical Harmonics?: true
    Max angular momentum: 4

	 --------------------------------------------------------
	                 NBF =   989, NAUX =  2160
	 --------------------------------------------------------
	   CLASS    FOCC     OCC    AOCC    AVIR     VIR    FVIR
	   PAIRS       0      48      48     941     941       0
	 --------------------------------------------------------

  DFHelper Memory: AOs need 14.470 GiB; user supplied 22.352 GiB. Using in-core AOs.


         ------------------------------------------------------------
                                     CPHF                           
                                  Rob Parrish                       
         ------------------------------------------------------------

  ==> Geometry <==

    Molecular point group: c1
    Full point group: C1

    Geometry (in Angstrom), charge = 1, multiplicity = 1:

       Center              X                  Y                   Z               Mass       
    ------------   -----------------  -----------------  -----------------  -----------------
         N           -3.470153414284    -0.169296940958     0.160982110466    14.003074004430
         N           -0.671844414284     0.004566059042    -0.128052889534    14.003074004430
         C           -2.788170414284    -0.592536940958    -1.120978889534    12.000000000000
         C           -2.676911414284     0.865730059042     0.926660110466    12.000000000000
         C           -1.390206414284    -1.077668940958    -0.781515889534    12.000000000000
         C           -1.277156414284     0.326526059042     1.158189110466    12.000000000000
         C            0.758698585716    -0.172110940958    -0.039013889534    12.000000000000
         C            1.567561585716     0.962077059042    -0.235268889534    12.000000000000
         C            1.319462585716    -1.421382940958     0.250652110466    12.000000000000
         C            2.954068585716     0.797327059042    -0.133581889534    12.000000000000
         C            0.969271585716     2.307602059042    -0.548509889534    12.000000000000
         C            2.705446585716    -1.561465940958     0.329953110466    12.000000000000
         C            3.523289585716    -0.446669940958     0.143981110466    12.000000000000
         H           -2.751418414284     0.289514059042    -1.762600889534     1.007825032230
         H           -3.406948414284    -1.367581940958    -1.580618889534     1.007825032230
         H           -3.214588414284     1.070659059042     1.855985110466     1.007825032230
         H           -2.649364414284     1.761279059042     0.303227110466     1.007825032230
         H           -1.463097414284    -1.997560940958    -0.169854889534     1.007825032230
         H           -0.876536414284    -1.342092940958    -1.710122889534     1.007825032230
         H           -0.686936414284     1.103644059042     1.651151110466     1.007825032230
         H           -1.308300414284    -0.543486940958     1.842816110466     1.007825032230
         H           -4.433671514284     0.191805359042    -0.043398289534     1.007825032230
         H           -3.594229414284    -0.999457940958     0.758274110466     1.007825032230
         H            0.685672585716    -2.291296940958     0.409366110466     1.007825032230
         H            3.599512585716     1.659481059042    -0.288718889534     1.007825032230
         H            0.172375585716     2.218002059042    -1.290945889534     1.007825032230
         H            0.541516585716     2.782998059042     0.342368110466     1.007825032230
         H            1.735495585716     2.982120059042    -0.937945889534     1.007825032230
         H            3.140834585716    -2.533282940958     0.546719110466     1.007825032230
         H            4.603647585716    -0.546204940958     0.205369110466     1.007825032230

  Nuclear repulsion =  820.166540418097838
  Reference energy  = -535.307803108292887

  ==> Basis Set <==

  Basis Set: AUG-CC-PVTZ
    Blend: AUG-CC-PVTZ
    Number of shells: 335
    Number of basis functions: 989
    Number of Cartesian functions: 1140
    Spherical Harmonics?: true
    Max angular momentum: 3

  ==> CGRSolver (by Rob Parrish) <==

   Number of roots    =         1
   Preconditioning    =    JACOBI
   Convergence cutoff =     1E-06
   Maximum iterations =       100

  ==> CPHFRHamiltonian (by Rob Parrish) <== 

  ==> MemDFJK: Density-Fitted J/K Matrices <==

    J tasked:                   Yes
    K tasked:                   Yes
    wK tasked:                   No
    OpenMP threads:               8
    Memory [MiB]:             22888
    Algorithm:                 Core
    Schwarz Cutoff:           1E-12
    Mask sparsity (%):       8.8108
    Fitting Condition:        1E-10

   => Auxiliary Basis Set <=

  Basis Set: (AUG-CC-PVTZ AUX)
    Blend: AUG-CC-PVTZ-JKFIT
    Number of shells: 628
    Number of basis functions: 2134
    Number of Cartesian functions: 2638
    Spherical Harmonics?: true
    Max angular momentum: 4

  ==> CPHF Iterations <==

  => Iterations <=

             Iter  Converged  Remaining    Residual
  CGR           1          0          1   7.533E-02
  CGR           2          0          1   1.541E-02
  CGR           3          0          1   5.617E-03
  CGR           4          0          1   2.032E-03
  CGR           5          0          1   7.770E-04
  CGR           6          0          1   3.801E-04
  CGR           7          0          1   1.961E-04
  CGR           8          0          1   7.545E-05
  CGR           9          0          1   2.579E-05
  CGR          10          0          1   7.455E-06
  CGR          11          0          1   2.996E-06
  CGR          12          1          0   9.990E-07

    CGRSolver converged.

	-----------------------------------------------------------
	 ==================> DF-MP2 Energies <==================== 
	-----------------------------------------------------------
	 Reference Energy          =    -535.3078031082928874 [Eh]
	 Singles Energy            =      -0.0000000000000000 [Eh]
	 Same-Spin Energy          =      -0.5854303895735097 [Eh]
	 Opposite-Spin Energy      =      -1.9175424847606111 [Eh]
	 Correlation Energy        =      -2.5029728743341209 [Eh]
	 Total Energy              =    -537.8107759826269785 [Eh]
	-----------------------------------------------------------
	 ================> DF-SCS-MP2 Energies <================== 
	-----------------------------------------------------------
	 SCS Same-Spin Scale       =       0.3333333333333333 [-]
	 SCS Opposite-Spin Scale   =       1.2000000000000000 [-]
	 SCS Same-Spin Energy      =      -0.1951434631911699 [Eh]
	 SCS Opposite-Spin Energy  =      -2.3010509817127334 [Eh]
	 SCS Correlation Energy    =      -2.4961944449039031 [Eh]
	 SCS Total Energy          =    -537.8039975531968366 [Eh]
	-----------------------------------------------------------



Properties will be evaluated at  -0.000000,   0.000000,   0.000000 [a0]

Properties computed using the MP2 density matrix

  Nuclear Dipole Moment: [e a0]
     X:    -9.2746      Y:     2.2865      Z:     0.1228

  Electronic Dipole Moment: [e a0]
     X:     4.5012      Y:    -2.5526      Z:     0.1634

  Dipole Moment: [e a0]
     X:    -4.7734      Y:    -0.2660      Z:     0.2862     Total:     4.7894

  Dipole Moment: [D]
     X:   -12.1328      Y:    -0.6762      Z:     0.7275     Total:    12.1734


*** tstop() called on c435-033.stampede2.tacc.utexas.edu at Thu Apr  1 12:45:29 2021
Module time:
	user time   =    5318.76 seconds =      88.65 minutes
	system time =      71.60 seconds =       1.19 minutes
	total time  =        820 seconds =      13.67 minutes
Total time:
	user time   =    6559.63 seconds =     109.33 minutes
	system time =     101.54 seconds =       1.69 minutes
	total time  =       1008 seconds =      16.80 minutes

    Psi4 stopped on: Thursday, 01 April 2021 12:45PM
    Psi4 wall time for execution: 0:16:50.21

*** Psi4 exiting successfully. Buy a developer a beer!
