
    -----------------------------------------------------------------------
          Psi4: An Open-Source Ab Initio Electronic Structure Package
                               Psi4 1.4a3.dev225 

                         Git: Rev {master} 7105e37 


    D. G. A. Smith, L. A. Burns, A. C. Simmonett, R. M. Parrish,
    M. C. Schieber, R. Galvelis, P. Kraus, H. Kruse, R. Di Remigio,
    A. Alenaizan, A. M. James, S. Lehtola, J. P. Misiewicz, M. Scheurer,
    R. A. Shaw, J. B. Schriber, Y. Xie, Z. L. Glick, D. A. Sirianni,
    J. S. O'Brien, J. M. Waldrop, A. Kumar, E. G. Hohenstein,
    B. P. Pritchard, B. R. Brooks, H. F. Schaefer III, A. Yu. Sokolov,
    K. Patkowski, A. E. DePrince III, U. Bozkaya, R. A. King,
    F. A. Evangelista, J. M. Turney, T. D. Crawford, C. D. Sherrill,
    J. Chem. Phys. 152(18) 184108 (2020). https://doi.org/10.1063/5.0006002

                            Additional Code Authors
    E. T. Seidl, C. L. Janssen, E. F. Valeev, M. L. Leininger,
    J. F. Gonthier, R. M. Richard, H. R. McAlexander, M. Saitow, X. Wang,
    P. Verma, and M. H. Lechner

             Previous Authors, Complete List of Code Contributors,
                       and Citations for Specific Modules
    https://github.com/psi4/psi4/blob/master/codemeta.json
    https://github.com/psi4/psi4/graphs/contributors
    http://psicode.org/psi4manual/master/introduction.html#citing-psifour

    -----------------------------------------------------------------------


    Psi4 started on: Sunday, 28 February 2021 10:08AM

    Process ID: 247609
    Host:       c420-003.stampede2.tacc.utexas.edu
    PSIDATADIR: /home1/07844/xy3866/miniconda3/envs/p4env/share/psi4
    Memory:     500.0 MiB
    Threads:    32
    
  ==> Input File <==

--------------------------------------------------------------------------
#psi4
#
memory 32 gb

molecule  {
1 1
  N       -3.4197460    -0.1817000     0.1602720
  N       -0.6214370    -0.0078370    -0.1287630
  C       -2.7377630    -0.6049400    -1.1216890
  C       -2.6265040     0.8533270     0.9259500
  C       -1.3397990    -1.0900720    -0.7822260
  C       -1.2267490     0.3141230     1.1574790
  C        0.8091060    -0.1845140    -0.0397240
  C        1.6179690     0.9496740    -0.2359790
  C        1.3698700    -1.4337860     0.2499420
  C        3.0044760     0.7849240    -0.1342920
  C        1.0196790     2.2951990    -0.5492200
  C        2.7558540    -1.5738690     0.3292430
  C        3.5736970    -0.4590730     0.1432710
  H       -2.7010110     0.2771110    -1.7633110
  H       -3.3565410    -1.3799850    -1.5813290
  H       -3.0657991     1.0207589     1.6852310
  H       -2.5989570     1.7488760     0.3025170
  H       -1.4126900    -2.0099640    -0.1705650
  H       -0.8261290    -1.3544960    -1.7108330
  H       -0.6365290     1.0912410     1.6504410
  H       -1.2578930    -0.5558900     1.8421060
  H       -4.3648950     0.1725180    -0.0402120
  H       -3.5438220    -1.0118610     0.7575640
  H        0.7360800    -2.3037000     0.4086560
  H        3.6499200     1.6470780    -0.2894290
  H        0.2227830     2.2055990    -1.2916560
  H        0.5919240     2.7705950     0.3416580
  H        1.7859030     2.9697170    -0.9386560
  H        3.1912420    -2.5456860     0.5460090
  H        4.6540550    -0.5586080     0.2046590
units angstrom
no_reorient  #important for SAPT in psi4, default
symmetry c1  #important for SAPT in psi4, default
}

set PROPERTIES_ORIGIN ["COM"]
properties('MP2/aug-cc-pvtz', properties = ['dipole'])
--------------------------------------------------------------------------

  Memory set to  29.802 GiB by Python driver.
    SCF Algorithm Type (re)set to DF.

*** tstart() called on c420-003.stampede2.tacc.utexas.edu
*** at Sun Feb 28 10:08:47 2021

   => Loading Basis Set <=

    Name: AUG-CC-PVTZ
    Role: ORBITAL
    Keyword: BASIS
    atoms 1-2   entry N          line   285 file /home1/07844/xy3866/miniconda3/envs/p4env/share/psi4/basis/aug-cc-pvtz.gbs 
    atoms 3-13  entry C          line   239 file /home1/07844/xy3866/miniconda3/envs/p4env/share/psi4/basis/aug-cc-pvtz.gbs 
    atoms 14-30 entry H          line    40 file /home1/07844/xy3866/miniconda3/envs/p4env/share/psi4/basis/aug-cc-pvtz.gbs 


         ---------------------------------------------------------
                                   SCF
               by Justin Turney, Rob Parrish, Andy Simmonett
                          and Daniel G. A. Smith
                              RHF Reference
                       32 Threads,  30517 MiB Core
         ---------------------------------------------------------

  ==> Geometry <==

    Molecular point group: c1
    Full point group: C1

    Geometry (in Angstrom), charge = 1, multiplicity = 1:

       Center              X                  Y                   Z               Mass       
    ------------   -----------------  -----------------  -----------------  -----------------
         N           -3.470817663631    -0.169044435061     0.161927399456    14.003074004430
         N           -0.672508663631     0.004818564939    -0.127107600544    14.003074004430
         C           -2.788834663631    -0.592284435061    -1.120033600544    12.000000000000
         C           -2.677575663631     0.865982564939     0.927605399456    12.000000000000
         C           -1.390870663631    -1.077416435061    -0.780570600544    12.000000000000
         C           -1.277820663631     0.326778564939     1.159134399456    12.000000000000
         C            0.758034336369    -0.171858435061    -0.038068600544    12.000000000000
         C            1.566897336369     0.962329564939    -0.234323600544    12.000000000000
         C            1.318798336369    -1.421130435061     0.251597399456    12.000000000000
         C            2.953404336369     0.797579564939    -0.132636600544    12.000000000000
         C            0.968607336369     2.307854564939    -0.547564600544    12.000000000000
         C            2.704782336369    -1.561213435061     0.330898399456    12.000000000000
         C            3.522625336369    -0.446417435061     0.144926399456    12.000000000000
         H           -2.752082663631     0.289766564939    -1.761655600544     1.007825032230
         H           -3.407612663631    -1.367329435061    -1.579673600544     1.007825032230
         H           -3.116870763631     1.033414464939     1.686886399456     1.007825032230
         H           -2.650028663631     1.761531564939     0.304172399456     1.007825032230
         H           -1.463761663631    -1.997308435061    -0.168909600544     1.007825032230
         H           -0.877200663631    -1.341840435061    -1.709177600544     1.007825032230
         H           -0.687600663631     1.103896564939     1.652096399456     1.007825032230
         H           -1.308964663631    -0.543234435061     1.843761399456     1.007825032230
         H           -4.415966663631     0.185173564939    -0.038556600544     1.007825032230
         H           -3.594893663631    -0.999205435061     0.759219399456     1.007825032230
         H            0.685008336369    -2.291044435061     0.410311399456     1.007825032230
         H            3.598848336369     1.659733564939    -0.287773600544     1.007825032230
         H            0.171711336369     2.218254564939    -1.290000600544     1.007825032230
         H            0.540852336369     2.783250564939     0.343313399456     1.007825032230
         H            1.734831336369     2.982372564939    -0.937000600544     1.007825032230
         H            3.140170336369    -2.533030435061     0.547664399456     1.007825032230
         H            4.602983336369    -0.545952435061     0.206314399456     1.007825032230

  Running in c1 symmetry.

  Rotational constants: A =      0.05682  B =      0.01674  C =      0.01468 [cm^-1]
  Rotational constants: A =   1703.54776  B =    501.82013  C =    440.18854 [MHz]
  Nuclear repulsion =  821.541464644938401

  Charge       = 1
  Multiplicity = 1
  Electrons    = 96
  Nalpha       = 48
  Nbeta        = 48

  ==> Algorithm <==

  SCF Algorithm Type is DF.
  DIIS enabled.
  MOM disabled.
  Fractional occupation disabled.
  Guess Type is SAD.
  Energy threshold   = 1.00e-10
  Density threshold  = 1.00e-10
  Integral threshold = 1.00e-12

  ==> Primary Basis <==

  Basis Set: AUG-CC-PVTZ
    Blend: AUG-CC-PVTZ
    Number of shells: 335
    Number of basis functions: 989
    Number of Cartesian functions: 1140
    Spherical Harmonics?: true
    Max angular momentum: 3

   => Loading Basis Set <=

    Name: (AUG-CC-PVTZ AUX)
    Role: JKFIT
    Keyword: DF_BASIS_SCF
    atoms 1-2   entry N          line   224 file /home1/07844/xy3866/miniconda3/envs/p4env/share/psi4/basis/aug-cc-pvtz-jkfit.gbs 
    atoms 3-13  entry C          line   162 file /home1/07844/xy3866/miniconda3/envs/p4env/share/psi4/basis/aug-cc-pvtz-jkfit.gbs 
    atoms 14-30 entry H          line    70 file /home1/07844/xy3866/miniconda3/envs/p4env/share/psi4/basis/aug-cc-pvtz-jkfit.gbs 

  ==> Integral Setup <==

  DFHelper Memory: AOs need 13.857 GiB; user supplied 22.352 GiB. Using in-core AOs.

  ==> MemDFJK: Density-Fitted J/K Matrices <==

    J tasked:                   Yes
    K tasked:                   Yes
    wK tasked:                   No
    OpenMP threads:              32
    Memory [MiB]:             22888
    Algorithm:                 Core
    Schwarz Cutoff:           1E-12
    Mask sparsity (%):      13.8821
    Fitting Condition:        1E-10

   => Auxiliary Basis Set <=

  Basis Set: (AUG-CC-PVTZ AUX)
    Blend: AUG-CC-PVTZ-JKFIT
    Number of shells: 628
    Number of basis functions: 2134
    Number of Cartesian functions: 2638
    Spherical Harmonics?: true
    Max angular momentum: 4

  Minimum eigenvalue in the overlap matrix is 3.4402341100E-07.
  Reciprocal condition number of the overlap matrix is 1.3332039056E-08.
    Using symmetric orthogonalization.

  ==> Pre-Iterations <==

  SCF Guess: Superposition of Atomic Densities via on-the-fly atomic UHF (no occupation information).

   -------------------------
    Irrep   Nso     Nmo    
   -------------------------
     A        989     989 
   -------------------------
    Total     989     989
   -------------------------

  ==> Iterations <==

                           Total Energy        Delta E     RMS |[F,P]|

   @DF-RHF iter SAD:  -535.91550695086516   -5.35916e+02   0.00000e+00 
   @DF-RHF iter   1:  -534.87515549617694    1.04035e+00   7.82364e-04 DIIS
   @DF-RHF iter   2:  -535.21609905396213   -3.40944e-01   3.20803e-04 DIIS
   @DF-RHF iter   3:  -535.26971074647668   -5.36117e-02   8.27757e-05 DIIS
   @DF-RHF iter   4:  -535.27489475102050   -5.18400e-03   2.36467e-05 DIIS
   @DF-RHF iter   5:  -535.27523642590904   -3.41675e-04   8.67227e-06 DIIS
   @DF-RHF iter   6:  -535.27528435000397   -4.79241e-05   2.14892e-06 DIIS
   @DF-RHF iter   7:  -535.27528904571238   -4.69571e-06   8.11619e-07 DIIS
   @DF-RHF iter   8:  -535.27528975388589   -7.08174e-07   3.01978e-07 DIIS
   @DF-RHF iter   9:  -535.27528991580107   -1.61915e-07   1.52615e-07 DIIS
   @DF-RHF iter  10:  -535.27528996357364   -4.77726e-08   7.23698e-08 DIIS
   @DF-RHF iter  11:  -535.27528997807974   -1.45061e-08   3.05278e-08 DIIS
   @DF-RHF iter  12:  -535.27528998034256   -2.26282e-09   1.20741e-08 DIIS
   @DF-RHF iter  13:  -535.27528998054481   -2.02249e-10   3.62824e-09 DIIS
   @DF-RHF iter  14:  -535.27528998056505   -2.02363e-11   1.00310e-09 DIIS
   @DF-RHF iter  15:  -535.27528998056766   -2.61480e-12   3.64676e-10 DIIS
   @DF-RHF iter  16:  -535.27528998056687    7.95808e-13   1.04694e-10 DIIS
   @DF-RHF iter  17:  -535.27528998056744   -5.68434e-13   4.50138e-11 DIIS
  Energy and wave function converged.


  ==> Post-Iterations <==

    Orbital Energies [Eh]
    ---------------------

    Doubly Occupied:                                                      

       1A    -15.866221     2A    -15.702534     3A    -11.456685  
       4A    -11.434786     5A    -11.417350     6A    -11.416836  
       7A    -11.374863     8A    -11.344186     9A    -11.339965  
      10A    -11.331652    11A    -11.329733    12A    -11.328450  
      13A    -11.323453    14A     -1.498770    15A     -1.389851  
      16A     -1.249821    17A     -1.233150    18A     -1.158694  
      19A     -1.143097    20A     -1.093025    21A     -1.061170  
      22A     -1.032432    23A     -0.996773    24A     -0.936266  
      25A     -0.930701    26A     -0.905683    27A     -0.879044  
      28A     -0.823837    29A     -0.812123    30A     -0.802738  
      31A     -0.789088    32A     -0.754748    33A     -0.754352  
      34A     -0.736989    35A     -0.714429    36A     -0.706452  
      37A     -0.689032    38A     -0.675107    39A     -0.669764  
      40A     -0.661953    41A     -0.656149    42A     -0.640507  
      43A     -0.599775    44A     -0.591619    45A     -0.587980  
      46A     -0.521298    47A     -0.433381    48A     -0.423314  

    Virtual:                                                              

      49A     -0.097644    50A     -0.074648    51A     -0.066864  
      52A     -0.058608    53A     -0.043253    54A     -0.039981  
      55A     -0.039247    56A     -0.037482    57A     -0.034342  
      58A     -0.020122    59A     -0.019584    60A     -0.017339  
      61A     -0.011465    62A     -0.010889    63A     -0.008115  
      64A      0.000507    65A      0.001478    66A      0.004067  
      67A      0.006893    68A      0.010633    69A      0.012079  
      70A      0.014934    71A      0.017899    72A      0.021138  
      73A      0.021802    74A      0.029444    75A      0.033320  
      76A      0.033969    77A      0.035290    78A      0.039301  
      79A      0.040018    80A      0.043674    81A      0.047820  
      82A      0.050287    83A      0.051073    84A      0.055613  
      85A      0.060059    86A      0.063501    87A      0.065769  
      88A      0.067373    89A      0.073130    90A      0.077612  
      91A      0.078605    92A      0.080140    93A      0.082375  
      94A      0.085841    95A      0.091145    96A      0.095371  
      97A      0.097429    98A      0.102429    99A      0.104605  
     100A      0.108437   101A      0.115107   102A      0.117377  
     103A      0.120116   104A      0.123147   105A      0.124119  
     106A      0.125541   107A      0.132865   108A      0.135081  
     109A      0.141960   110A      0.144316   111A      0.151191  
     112A      0.154582   113A      0.160262   114A      0.162640  
     115A      0.165179   116A      0.170914   117A      0.173622  
     118A      0.174471   119A      0.178266   120A      0.179224  
     121A      0.186233   122A      0.193230   123A      0.195544  
     124A      0.199489   125A      0.201919   126A      0.205694  
     127A      0.210214   128A      0.215081   129A      0.216237  
     130A      0.219048   131A      0.221438   132A      0.226687  
     133A      0.227188   134A      0.230022   135A      0.232542  
     136A      0.235274   137A      0.239187   138A      0.244767  
     139A      0.247464   140A      0.256663   141A      0.259338  
     142A      0.262055   143A      0.264955   144A      0.266968  
     145A      0.268337   146A      0.270351   147A      0.273510  
     148A      0.274877   149A      0.276942   150A      0.284641  
     151A      0.285610   152A      0.291730   153A      0.292885  
     154A      0.296660   155A      0.301012   156A      0.306490  
     157A      0.309414   158A      0.312778   159A      0.315116  
     160A      0.317429   161A      0.319173   162A      0.325189  
     163A      0.328929   164A      0.333247   165A      0.337742  
     166A      0.341392   167A      0.343479   168A      0.344013  
     169A      0.351317   170A      0.352954   171A      0.361033  
     172A      0.362518   173A      0.363588   174A      0.365072  
     175A      0.369343   176A      0.371648   177A      0.376079  
     178A      0.377424   179A      0.381084   180A      0.386747  
     181A      0.388308   182A      0.392673   183A      0.396677  
     184A      0.402336   185A      0.403962   186A      0.409526  
     187A      0.412133   188A      0.414777   189A      0.415753  
     190A      0.419453   191A      0.424273   192A      0.426498  
     193A      0.429673   194A      0.431407   195A      0.433294  
     196A      0.435785   197A      0.439938   198A      0.440822  
     199A      0.450450   200A      0.452458   201A      0.455386  
     202A      0.457366   203A      0.463803   204A      0.464060  
     205A      0.465573   206A      0.466434   207A      0.472729  
     208A      0.475816   209A      0.480946   210A      0.483185  
     211A      0.486549   212A      0.487332   213A      0.489040  
     214A      0.494820   215A      0.500054   216A      0.505158  
     217A      0.506158   218A      0.511989   219A      0.518039  
     220A      0.520673   221A      0.527543   222A      0.528902  
     223A      0.531319   224A      0.539734   225A      0.540307  
     226A      0.544007   227A      0.551447   228A      0.554025  
     229A      0.563754   230A      0.568969   231A      0.571459  
     232A      0.576500   233A      0.580781   234A      0.582101  
     235A      0.583255   236A      0.587315   237A      0.594126  
     238A      0.599547   239A      0.604636   240A      0.613916  
     241A      0.615261   242A      0.617060   243A      0.624295  
     244A      0.628098   245A      0.635494   246A      0.637214  
     247A      0.647696   248A      0.652714   249A      0.654254  
     250A      0.658949   251A      0.661468   252A      0.666630  
     253A      0.673630   254A      0.679243   255A      0.689232  
     256A      0.692443   257A      0.697291   258A      0.701892  
     259A      0.704153   260A      0.710572   261A      0.716638  
     262A      0.723570   263A      0.727492   264A      0.728651  
     265A      0.733621   266A      0.736167   267A      0.740976  
     268A      0.745563   269A      0.750176   270A      0.751495  
     271A      0.756512   272A      0.763383   273A      0.767025  
     274A      0.773064   275A      0.776692   276A      0.781613  
     277A      0.782964   278A      0.789139   279A      0.796400  
     280A      0.799449   281A      0.803301   282A      0.805278  
     283A      0.810906   284A      0.814866   285A      0.820769  
     286A      0.824086   287A      0.825892   288A      0.828137  
     289A      0.829885   290A      0.836571   291A      0.841193  
     292A      0.847557   293A      0.848016   294A      0.853698  
     295A      0.860394   296A      0.865867   297A      0.866974  
     298A      0.870949   299A      0.876007   300A      0.885285  
     301A      0.887499   302A      0.888699   303A      0.895716  
     304A      0.898589   305A      0.902667   306A      0.908263  
     307A      0.913867   308A      0.916559   309A      0.924567  
     310A      0.927169   311A      0.932005   312A      0.933797  
     313A      0.938025   314A      0.941138   315A      0.945894  
     316A      0.950593   317A      0.956971   318A      0.959098  
     319A      0.964655   320A      0.965596   321A      0.968627  
     322A      0.973709   323A      0.976283   324A      0.979880  
     325A      0.983747   326A      0.985893   327A      0.994701  
     328A      1.000409   329A      1.003058   330A      1.004112  
     331A      1.008263   332A      1.012114   333A      1.017319  
     334A      1.022731   335A      1.028668   336A      1.031517  
     337A      1.035859   338A      1.040600   339A      1.043773  
     340A      1.049886   341A      1.054783   342A      1.059013  
     343A      1.062020   344A      1.066857   345A      1.067358  
     346A      1.073304   347A      1.074197   348A      1.078047  
     349A      1.084325   350A      1.090649   351A      1.097988  
     352A      1.101277   353A      1.104634   354A      1.108621  
     355A      1.114348   356A      1.120091   357A      1.123627  
     358A      1.130388   359A      1.133088   360A      1.135164  
     361A      1.138461   362A      1.147376   363A      1.148151  
     364A      1.149550   365A      1.155781   366A      1.166311  
     367A      1.168892   368A      1.175777   369A      1.184055  
     370A      1.185661   371A      1.190537   372A      1.192052  
     373A      1.201624   374A      1.204649   375A      1.206646  
     376A      1.209986   377A      1.218643   378A      1.221164  
     379A      1.230273   380A      1.238112   381A      1.240216  
     382A      1.244359   383A      1.248863   384A      1.251709  
     385A      1.261849   386A      1.263712   387A      1.266597  
     388A      1.275900   389A      1.283656   390A      1.291187  
     391A      1.295778   392A      1.300886   393A      1.304255  
     394A      1.311849   395A      1.317346   396A      1.321376  
     397A      1.329165   398A      1.333438   399A      1.342425  
     400A      1.351311   401A      1.352556   402A      1.355578  
     403A      1.357056   404A      1.364283   405A      1.368462  
     406A      1.371746   407A      1.381202   408A      1.387179  
     409A      1.388439   410A      1.394306   411A      1.402582  
     412A      1.410339   413A      1.417307   414A      1.423325  
     415A      1.427393   416A      1.435675   417A      1.438443  
     418A      1.445042   419A      1.446528   420A      1.448704  
     421A      1.464833   422A      1.469302   423A      1.475578  
     424A      1.477007   425A      1.480754   426A      1.485955  
     427A      1.489628   428A      1.492672   429A      1.498348  
     430A      1.500254   431A      1.509429   432A      1.519130  
     433A      1.527351   434A      1.531889   435A      1.535395  
     436A      1.539306   437A      1.545204   438A      1.549430  
     439A      1.551750   440A      1.561987   441A      1.566185  
     442A      1.568503   443A      1.574073   444A      1.579736  
     445A      1.586404   446A      1.589647   447A      1.597670  
     448A      1.609272   449A      1.613447   450A      1.615251  
     451A      1.620577   452A      1.628397   453A      1.632849  
     454A      1.636411   455A      1.641860   456A      1.646992  
     457A      1.648842   458A      1.655410   459A      1.664188  
     460A      1.670485   461A      1.673827   462A      1.684090  
     463A      1.691852   464A      1.698028   465A      1.704779  
     466A      1.711862   467A      1.717305   468A      1.724967  
     469A      1.727733   470A      1.732200   471A      1.739287  
     472A      1.743690   473A      1.745221   474A      1.750116  
     475A      1.755408   476A      1.767864   477A      1.772843  
     478A      1.776637   479A      1.781631   480A      1.786805  
     481A      1.800601   482A      1.803935   483A      1.804959  
     484A      1.809402   485A      1.814952   486A      1.819901  
     487A      1.825090   488A      1.831032   489A      1.837190  
     490A      1.846073   491A      1.850860   492A      1.852351  
     493A      1.859096   494A      1.863584   495A      1.870742  
     496A      1.875224   497A      1.881134   498A      1.897362  
     499A      1.900386   500A      1.900701   501A      1.907276  
     502A      1.910188   503A      1.919027   504A      1.924133  
     505A      1.927668   506A      1.936902   507A      1.939456  
     508A      1.955618   509A      1.956692   510A      1.957861  
     511A      1.964806   512A      1.967233   513A      1.977502  
     514A      1.983308   515A      1.989632   516A      1.994011  
     517A      1.999002   518A      2.008300   519A      2.015240  
     520A      2.021192   521A      2.027609   522A      2.031516  
     523A      2.039154   524A      2.050858   525A      2.053154  
     526A      2.060129   527A      2.063166   528A      2.071545  
     529A      2.080057   530A      2.093330   531A      2.098355  
     532A      2.102145   533A      2.106862   534A      2.110646  
     535A      2.113164   536A      2.117269   537A      2.127059  
     538A      2.140848   539A      2.149368   540A      2.151414  
     541A      2.160798   542A      2.168853   543A      2.171363  
     544A      2.183422   545A      2.188858   546A      2.198677  
     547A      2.204055   548A      2.212321   549A      2.218768  
     550A      2.224524   551A      2.229850   552A      2.241647  
     553A      2.250367   554A      2.262282   555A      2.266869  
     556A      2.276740   557A      2.280574   558A      2.285106  
     559A      2.289849   560A      2.298144   561A      2.304477  
     562A      2.314048   563A      2.329428   564A      2.334565  
     565A      2.342430   566A      2.350287   567A      2.360978  
     568A      2.376405   569A      2.378772   570A      2.389849  
     571A      2.391351   572A      2.395540   573A      2.406864  
     574A      2.415728   575A      2.427982   576A      2.438291  
     577A      2.442952   578A      2.446180   579A      2.455722  
     580A      2.470135   581A      2.480929   582A      2.493631  
     583A      2.502282   584A      2.510305   585A      2.519556  
     586A      2.538283   587A      2.544748   588A      2.552753  
     589A      2.557234   590A      2.572272   591A      2.584580  
     592A      2.592780   593A      2.602728   594A      2.604850  
     595A      2.611754   596A      2.625273   597A      2.641098  
     598A      2.653690   599A      2.663135   600A      2.672246  
     601A      2.687734   602A      2.699626   603A      2.706466  
     604A      2.724670   605A      2.728872   606A      2.745759  
     607A      2.761749   608A      2.788663   609A      2.791776  
     610A      2.818884   611A      2.824175   612A      2.840462  
     613A      2.858581   614A      2.886435   615A      2.913755  
     616A      2.928564   617A      2.961113   618A      2.965197  
     619A      3.001019   620A      3.030167   621A      3.044038  
     622A      3.045570   623A      3.059317   624A      3.103016  
     625A      3.125780   626A      3.161298   627A      3.185919  
     628A      3.213132   629A      3.225708   630A      3.256659  
     631A      3.276018   632A      3.277489   633A      3.298711  
     634A      3.309580   635A      3.316773   636A      3.330117  
     637A      3.340536   638A      3.350611   639A      3.357975  
     640A      3.379708   641A      3.389387   642A      3.391272  
     643A      3.399684   644A      3.407717   645A      3.422584  
     646A      3.425941   647A      3.440088   648A      3.443187  
     649A      3.448415   650A      3.457932   651A      3.464929  
     652A      3.483450   653A      3.486030   654A      3.489693  
     655A      3.506988   656A      3.511105   657A      3.514946  
     658A      3.515842   659A      3.532373   660A      3.540208  
     661A      3.549250   662A      3.555007   663A      3.575225  
     664A      3.581682   665A      3.587592   666A      3.591721  
     667A      3.596251   668A      3.599950   669A      3.612264  
     670A      3.619156   671A      3.625278   672A      3.635140  
     673A      3.641592   674A      3.653253   675A      3.660346  
     676A      3.664000   677A      3.668806   678A      3.676797  
     679A      3.686122   680A      3.696248   681A      3.702894  
     682A      3.703680   683A      3.713417   684A      3.714160  
     685A      3.737734   686A      3.744041   687A      3.759777  
     688A      3.769710   689A      3.774424   690A      3.777784  
     691A      3.789534   692A      3.794876   693A      3.804032  
     694A      3.813438   695A      3.823623   696A      3.828066  
     697A      3.831856   698A      3.833582   699A      3.840116  
     700A      3.852071   701A      3.859600   702A      3.869783  
     703A      3.873435   704A      3.873613   705A      3.889409  
     706A      3.892016   707A      3.897470   708A      3.905121  
     709A      3.914020   710A      3.916497   711A      3.919531  
     712A      3.927094   713A      3.935974   714A      3.947082  
     715A      3.951346   716A      3.954756   717A      3.956195  
     718A      3.961284   719A      3.967144   720A      3.978501  
     721A      3.984810   722A      3.996734   723A      4.001666  
     724A      4.006348   725A      4.009755   726A      4.026630  
     727A      4.028845   728A      4.038198   729A      4.044528  
     730A      4.049462   731A      4.057136   732A      4.066819  
     733A      4.074813   734A      4.082465   735A      4.085463  
     736A      4.101445   737A      4.112805   738A      4.122708  
     739A      4.127893   740A      4.132768   741A      4.136312  
     742A      4.147550   743A      4.153517   744A      4.160598  
     745A      4.165439   746A      4.185893   747A      4.187730  
     748A      4.193928   749A      4.200591   750A      4.207492  
     751A      4.210752   752A      4.217672   753A      4.229037  
     754A      4.240203   755A      4.247372   756A      4.253176  
     757A      4.256671   758A      4.266765   759A      4.268526  
     760A      4.271219   761A      4.278393   762A      4.285800  
     763A      4.307865   764A      4.308509   765A      4.313455  
     766A      4.321440   767A      4.328975   768A      4.335345  
     769A      4.341146   770A      4.347207   771A      4.357460  
     772A      4.365245   773A      4.374098   774A      4.382277  
     775A      4.386030   776A      4.397696   777A      4.406320  
     778A      4.415141   779A      4.422069   780A      4.435234  
     781A      4.448138   782A      4.456809   783A      4.468950  
     784A      4.485989   785A      4.489925   786A      4.498081  
     787A      4.504751   788A      4.521220   789A      4.527864  
     790A      4.530562   791A      4.534127   792A      4.546030  
     793A      4.553403   794A      4.566427   795A      4.573875  
     796A      4.585605   797A      4.591827   798A      4.603065  
     799A      4.606696   800A      4.609272   801A      4.626046  
     802A      4.634571   803A      4.646477   804A      4.649348  
     805A      4.661790   806A      4.675453   807A      4.680009  
     808A      4.693153   809A      4.699929   810A      4.711543  
     811A      4.714857   812A      4.725540   813A      4.728660  
     814A      4.737615   815A      4.748788   816A      4.756405  
     817A      4.762983   818A      4.788775   819A      4.796326  
     820A      4.804993   821A      4.815915   822A      4.826515  
     823A      4.830186   824A      4.837349   825A      4.840732  
     826A      4.852847   827A      4.864959   828A      4.872617  
     829A      4.879986   830A      4.883233   831A      4.889469  
     832A      4.903680   833A      4.910548   834A      4.927912  
     835A      4.936921   836A      4.938446   837A      4.946875  
     838A      4.960067   839A      4.971027   840A      4.983239  
     841A      4.987146   842A      4.999624   843A      5.011195  
     844A      5.023537   845A      5.034877   846A      5.048580  
     847A      5.059388   848A      5.063394   849A      5.071968  
     850A      5.079913   851A      5.082021   852A      5.100897  
     853A      5.109024   854A      5.118253   855A      5.121334  
     856A      5.133423   857A      5.141701   858A      5.147308  
     859A      5.161622   860A      5.166971   861A      5.173142  
     862A      5.181173   863A      5.203213   864A      5.206160  
     865A      5.215727   866A      5.233318   867A      5.239215  
     868A      5.253786   869A      5.256258   870A      5.262928  
     871A      5.277940   872A      5.288440   873A      5.302475  
     874A      5.307684   875A      5.326902   876A      5.334268  
     877A      5.356712   878A      5.365733   879A      5.379885  
     880A      5.382832   881A      5.389931   882A      5.402337  
     883A      5.408360   884A      5.431354   885A      5.433962  
     886A      5.438275   887A      5.443359   888A      5.458801  
     889A      5.476725   890A      5.485636   891A      5.519868  
     892A      5.524692   893A      5.537077   894A      5.552958  
     895A      5.566767   896A      5.574323   897A      5.579015  
     898A      5.585962   899A      5.594827   900A      5.605027  
     901A      5.618202   902A      5.641673   903A      5.645763  
     904A      5.669987   905A      5.677925   906A      5.688494  
     907A      5.703350   908A      5.709284   909A      5.718979  
     910A      5.739655   911A      5.750604   912A      5.788561  
     913A      5.791132   914A      5.798681   915A      5.827509  
     916A      5.832528   917A      5.843009   918A      5.863031  
     919A      5.900437   920A      5.921338   921A      5.963521  
     922A      5.973914   923A      5.993624   924A      6.001793  
     925A      6.017461   926A      6.029769   927A      6.044986  
     928A      6.093048   929A      6.095742   930A      6.100328  
     931A      6.134518   932A      6.152379   933A      6.156977  
     934A      6.162433   935A      6.179145   936A      6.207331  
     937A      6.223075   938A      6.232439   939A      6.251980  
     940A      6.268117   941A      6.298107   942A      6.325725  
     943A      6.333266   944A      6.355205   945A      6.362701  
     946A      6.392144   947A      6.403418   948A      6.428492  
     949A      6.463255   950A      6.482170   951A      6.509446  
     952A      6.530933   953A      6.589096   954A      6.602687  
     955A      6.630344   956A      6.698369   957A      6.732175  
     958A      6.737685   959A      6.772751   960A      6.792909  
     961A      6.806959   962A      6.866519   963A      6.899804  
     964A      6.906553   965A      6.924767   966A      6.933497  
     967A      6.951921   968A      6.975393   969A      6.998259  
     970A      7.022325   971A      7.037527   972A      7.078446  
     973A      7.221375   974A      7.233205   975A      7.446678  
     976A      7.768227   977A     16.256181   978A     16.493068  
     979A     18.018445   980A     18.501267   981A     18.865967  
     982A     19.144882   983A     19.259421   984A     19.505987  
     985A     19.805044   986A     20.394628   987A     20.782718  
     988A     21.222997   989A     22.104771  

    Final Occupation by Irrep:
              A 
    DOCC [    48 ]

  @DF-RHF Final Energy:  -535.27528998056744

   => Energetics <=

    Nuclear Repulsion Energy =            821.5414646449384009
    One-Electron Energy =               -2341.1938544964755238
    Two-Electron Energy =                 984.3770998709695732
    Total Energy =                       -535.2752899805674360

Computation Completed

*** tstop() called on c420-003.stampede2.tacc.utexas.edu at Sun Feb 28 10:10:16 2021
Module time:
	user time   =    1832.66 seconds =      30.54 minutes
	system time =     128.21 seconds =       2.14 minutes
	total time  =         89 seconds =       1.48 minutes
Total time:
	user time   =    1832.66 seconds =      30.54 minutes
	system time =     128.21 seconds =       2.14 minutes
	total time  =         89 seconds =       1.48 minutes
   => Loading Basis Set <=

    Name: (AUG-CC-PVTZ AUX)
    Role: RIFIT
    Keyword: DF_BASIS_MP2
    atoms 1-2   entry N          line   206 file /home1/07844/xy3866/miniconda3/envs/p4env/share/psi4/basis/aug-cc-pvtz-ri.gbs 
    atoms 3-13  entry C          line   148 file /home1/07844/xy3866/miniconda3/envs/p4env/share/psi4/basis/aug-cc-pvtz-ri.gbs 
    atoms 14-30 entry H          line    30 file /home1/07844/xy3866/miniconda3/envs/p4env/share/psi4/basis/aug-cc-pvtz-ri.gbs 


*** tstart() called on c420-003.stampede2.tacc.utexas.edu
*** at Sun Feb 28 10:10:18 2021


  //>>>>>>>>>>>>>>>>>>>>>>>>>>>>>>>>>>>//
  //               DFMP2               //
  //<<<<<<<<<<<<<<<<<<<<<<<<<<<<<<<<<<<//

	 --------------------------------------------------------
	                          DF-MP2                         
	      2nd-Order Density-Fitted Moller-Plesset Theory     
	              RMP2 Wavefunction,  32 Threads             
	                                                         
	        Rob Parrish, Justin Turney, Andy Simmonett,      
	           Ed Hohenstein, and C. David Sherrill          
	 --------------------------------------------------------

   => Auxiliary Basis Set <=

  Basis Set: (AUG-CC-PVTZ AUX)
    Blend: AUG-CC-PVTZ-RI
    Number of shells: 602
    Number of basis functions: 2160
    Number of Cartesian functions: 2703
    Spherical Harmonics?: true
    Max angular momentum: 4

	 --------------------------------------------------------
	                 NBF =   989, NAUX =  2160
	 --------------------------------------------------------
	   CLASS    FOCC     OCC    AOCC    AVIR     VIR    FVIR
	   PAIRS       0      48      48     941     941       0
	 --------------------------------------------------------

  DFHelper Memory: AOs need 14.653 GiB; user supplied 22.352 GiB. Using in-core AOs.


         ------------------------------------------------------------
                                     CPHF                           
                                  Rob Parrish                       
         ------------------------------------------------------------

  ==> Geometry <==

    Molecular point group: c1
    Full point group: C1

    Geometry (in Angstrom), charge = 1, multiplicity = 1:

       Center              X                  Y                   Z               Mass       
    ------------   -----------------  -----------------  -----------------  -----------------
         N           -3.470817663631    -0.169044435061     0.161927399456    14.003074004430
         N           -0.672508663631     0.004818564939    -0.127107600544    14.003074004430
         C           -2.788834663631    -0.592284435061    -1.120033600544    12.000000000000
         C           -2.677575663631     0.865982564939     0.927605399456    12.000000000000
         C           -1.390870663631    -1.077416435061    -0.780570600544    12.000000000000
         C           -1.277820663631     0.326778564939     1.159134399456    12.000000000000
         C            0.758034336369    -0.171858435061    -0.038068600544    12.000000000000
         C            1.566897336369     0.962329564939    -0.234323600544    12.000000000000
         C            1.318798336369    -1.421130435061     0.251597399456    12.000000000000
         C            2.953404336369     0.797579564939    -0.132636600544    12.000000000000
         C            0.968607336369     2.307854564939    -0.547564600544    12.000000000000
         C            2.704782336369    -1.561213435061     0.330898399456    12.000000000000
         C            3.522625336369    -0.446417435061     0.144926399456    12.000000000000
         H           -2.752082663631     0.289766564939    -1.761655600544     1.007825032230
         H           -3.407612663631    -1.367329435061    -1.579673600544     1.007825032230
         H           -3.116870763631     1.033414464939     1.686886399456     1.007825032230
         H           -2.650028663631     1.761531564939     0.304172399456     1.007825032230
         H           -1.463761663631    -1.997308435061    -0.168909600544     1.007825032230
         H           -0.877200663631    -1.341840435061    -1.709177600544     1.007825032230
         H           -0.687600663631     1.103896564939     1.652096399456     1.007825032230
         H           -1.308964663631    -0.543234435061     1.843761399456     1.007825032230
         H           -4.415966663631     0.185173564939    -0.038556600544     1.007825032230
         H           -3.594893663631    -0.999205435061     0.759219399456     1.007825032230
         H            0.685008336369    -2.291044435061     0.410311399456     1.007825032230
         H            3.598848336369     1.659733564939    -0.287773600544     1.007825032230
         H            0.171711336369     2.218254564939    -1.290000600544     1.007825032230
         H            0.540852336369     2.783250564939     0.343313399456     1.007825032230
         H            1.734831336369     2.982372564939    -0.937000600544     1.007825032230
         H            3.140170336369    -2.533030435061     0.547664399456     1.007825032230
         H            4.602983336369    -0.545952435061     0.206314399456     1.007825032230

  Nuclear repulsion =  821.541464644938401
  Reference energy  = -535.275289980567436

  ==> Basis Set <==

  Basis Set: AUG-CC-PVTZ
    Blend: AUG-CC-PVTZ
    Number of shells: 335
    Number of basis functions: 989
    Number of Cartesian functions: 1140
    Spherical Harmonics?: true
    Max angular momentum: 3

  ==> CGRSolver (by Rob Parrish) <==

   Number of roots    =         1
   Preconditioning    =    JACOBI
   Convergence cutoff =     1E-06
   Maximum iterations =       100

  ==> CPHFRHamiltonian (by Rob Parrish) <== 

  ==> MemDFJK: Density-Fitted J/K Matrices <==

    J tasked:                   Yes
    K tasked:                   Yes
    wK tasked:                   No
    OpenMP threads:              32
    Memory [MiB]:             22888
    Algorithm:                 Core
    Schwarz Cutoff:           1E-12
    Mask sparsity (%):       8.7617
    Fitting Condition:        1E-10

   => Auxiliary Basis Set <=

  Basis Set: (AUG-CC-PVTZ AUX)
    Blend: AUG-CC-PVTZ-JKFIT
    Number of shells: 628
    Number of basis functions: 2134
    Number of Cartesian functions: 2638
    Spherical Harmonics?: true
    Max angular momentum: 4

  ==> CPHF Iterations <==

  => Iterations <=

             Iter  Converged  Remaining    Residual
  CGR           1          0          1   7.420E-02
  CGR           2          0          1   1.526E-02
  CGR           3          0          1   5.541E-03
  CGR           4          0          1   1.999E-03
  CGR           5          0          1   7.563E-04
  CGR           6          0          1   3.665E-04
  CGR           7          0          1   1.889E-04
  CGR           8          0          1   7.405E-05
  CGR           9          0          1   2.565E-05
  CGR          10          0          1   7.379E-06
  CGR          11          0          1   2.956E-06
  CGR          12          1          0   9.959E-07

    CGRSolver converged.

	-----------------------------------------------------------
	 ==================> DF-MP2 Energies <==================== 
	-----------------------------------------------------------
	 Reference Energy          =    -535.2752899805674360 [Eh]
	 Singles Energy            =      -0.0000000000000000 [Eh]
	 Same-Spin Energy          =      -0.5851304660963631 [Eh]
	 Opposite-Spin Energy      =      -1.9162199194092415 [Eh]
	 Correlation Energy        =      -2.5013503855056047 [Eh]
	 Total Energy              =    -537.7766403660730248 [Eh]
	-----------------------------------------------------------
	 ================> DF-SCS-MP2 Energies <================== 
	-----------------------------------------------------------
	 SCS Same-Spin Scale       =       0.3333333333333333 [-]
	 SCS Opposite-Spin Scale   =       1.2000000000000000 [-]
	 SCS Same-Spin Energy      =      -0.1950434886987877 [Eh]
	 SCS Opposite-Spin Energy  =      -2.2994639032910897 [Eh]
	 SCS Correlation Energy    =      -2.4945073919898775 [Eh]
	 SCS Total Energy          =    -537.7697973725572638 [Eh]
	-----------------------------------------------------------



Properties will be evaluated at  -0.000000,  -0.000000,   0.000000 [a0]

Properties computed using the MP2 density matrix

  Nuclear Dipole Moment: [e a0]
     X:    -9.1757      Y:     2.2489      Z:    -0.0179

  Electronic Dipole Moment: [e a0]
     X:     4.4056      Y:    -2.5172      Z:     0.3005

  Dipole Moment: [e a0]
     X:    -4.7701      Y:    -0.2682      Z:     0.2826     Total:     4.7860

  Dipole Moment: [D]
     X:   -12.1243      Y:    -0.6817      Z:     0.7183     Total:    12.1647


*** tstop() called on c420-003.stampede2.tacc.utexas.edu at Sun Feb 28 10:19:12 2021
Module time:
	user time   =    6284.62 seconds =     104.74 minutes
	system time =     193.22 seconds =       3.22 minutes
	total time  =        534 seconds =       8.90 minutes
Total time:
	user time   =    8118.77 seconds =     135.31 minutes
	system time =     321.45 seconds =       5.36 minutes
	total time  =        625 seconds =      10.42 minutes

    Psi4 stopped on: Sunday, 28 February 2021 10:19AM
    Psi4 wall time for execution: 0:10:27.67

*** Psi4 exiting successfully. Buy a developer a beer!
