
    -----------------------------------------------------------------------
          Psi4: An Open-Source Ab Initio Electronic Structure Package
                               Psi4 1.3.2 release

                         Git: Rev {HEAD} ecbda83 


    R. M. Parrish, L. A. Burns, D. G. A. Smith, A. C. Simmonett,
    A. E. DePrince III, E. G. Hohenstein, U. Bozkaya, A. Yu. Sokolov,
    R. Di Remigio, R. M. Richard, J. F. Gonthier, A. M. James,
    H. R. McAlexander, A. Kumar, M. Saitow, X. Wang, B. P. Pritchard,
    P. Verma, H. F. Schaefer III, K. Patkowski, R. A. King, E. F. Valeev,
    F. A. Evangelista, J. M. Turney, T. D. Crawford, and C. D. Sherrill,
    J. Chem. Theory Comput. 13(7) pp 3185--3197 (2017).
    (doi: 10.1021/acs.jctc.7b00174)


                         Additional Contributions by
    P. Kraus, H. Kruse, M. H. Lechner, M. C. Schieber, R. A. Shaw,
    A. Alenaizan, R. Galvelis, Z. L. Glick, S. Lehtola, and J. P. Misiewicz

    -----------------------------------------------------------------------


    Psi4 started on: Wednesday, 04 November 2020 09:36AM

    Process ID: 74840
    Host:       node35.bme.utexas.edu
    PSIDATADIR: /home/xy3866/psi4conda/share/psi4
    Memory:     500.0 MiB
    Threads:    8
    
  ==> Input File <==

--------------------------------------------------------------------------
#psi4
#
memory 32 gb

molecule  {
0 1
  P       -0.0357750     0.4680410     0.0705770
  O        1.0907140    -0.4402950     0.7609680
  O       -1.0048410    -0.5865790    -0.6866490
  O        0.7512110     1.1173330    -1.1929150
  O       -0.7044350     1.4170700     0.9839100
  C        1.8748370    -1.3345260    -0.0598200
  C       -2.0907257    -1.3850374     0.2656117
  H        1.2215740    -2.0052580    -0.6255210
  H        2.4895380    -1.9045040     0.6353170
  H        2.5026780    -0.7584230    -0.7438410
  H       -2.6431830    -0.5774540     0.6174740
  H       -1.4396990    -1.8621430     0.9229490
  H       -2.4975470    -1.9601810    -0.5134620
  H        0.3645100     1.9871850    -1.4006590
units angstrom
no_reorient  #important for SAPT in psi4, default
symmetry c1  #important for SAPT in psi4, default
}

set PROPERTIES_ORIGIN ["COM"]
properties('MP2/aug-cc-pvtz', properties = ['dipole'])
--------------------------------------------------------------------------

  Memory set to  29.802 GiB by Python driver.
    SCF Algorithm Type (re)set to DF.

*** tstart() called on node35.bme.utexas.edu
*** at Wed Nov  4 09:36:36 2020

   => Loading Basis Set <=

    Name: AUG-CC-PVTZ
    Role: ORBITAL
    Keyword: BASIS
    atoms 1    entry P          line   820 file /home/xy3866/psi4conda/share/psi4/basis/aug-cc-pvtz.gbs 
    atoms 2-5  entry O          line   327 file /home/xy3866/psi4conda/share/psi4/basis/aug-cc-pvtz.gbs 
    atoms 6-7  entry C          line   235 file /home/xy3866/psi4conda/share/psi4/basis/aug-cc-pvtz.gbs 
    atoms 8-14 entry H          line    36 file /home/xy3866/psi4conda/share/psi4/basis/aug-cc-pvtz.gbs 


         ---------------------------------------------------------
                                   SCF
               by Justin Turney, Rob Parrish, Andy Simmonett
                          and Daniel G. A. Smith
                              RHF Reference
                        8 Threads,  30517 MiB Core
         ---------------------------------------------------------

  ==> Geometry <==

    Molecular point group: c1
    Full point group: C1

    Geometry (in Angstrom), charge = 0, multiplicity = 1:

       Center              X                  Y                   Z               Mass       
    ------------   -----------------  -----------------  -----------------  -----------------
         P           -0.023242585288     0.477255939779     0.059586973536    30.973761998420
         O            1.103246414712    -0.431080060221     0.749977973536    15.994914619570
         O           -0.992308585288    -0.577364060221    -0.697639026464    15.994914619570
         O            0.763743414712     1.126547939779    -1.203905026464    15.994914619570
         O           -0.691902585288     1.426284939779     0.972919973536    15.994914619570
         C            1.887369414712    -1.325311060221    -0.070810026464    12.000000000000
         C           -2.078193285288    -1.375822460221     0.254621673536    12.000000000000
         H            1.234106414712    -1.996043060221    -0.636511026464     1.007825032230
         H            2.502070414712    -1.895289060221     0.624326973536     1.007825032230
         H            2.515210414712    -0.749208060221    -0.754831026464     1.007825032230
         H           -2.630650585288    -0.568239060221     0.606483973536     1.007825032230
         H           -1.427166585288    -1.852928060221     0.911958973536     1.007825032230
         H           -2.485014585288    -1.950966060221    -0.524452026464     1.007825032230
         H            0.377042414712     1.996399939779    -1.411649026464     1.007825032230

  Running in c1 symmetry.

  Rotational constants: A =      0.08826  B =      0.07094  C =      0.05443 [cm^-1]
  Rotational constants: A =   2646.11569  B =   2126.74477  C =   1631.83249 [MHz]
  Nuclear repulsion =  447.087524239856748

  Charge       = 0
  Multiplicity = 1
  Electrons    = 66
  Nalpha       = 33
  Nbeta        = 33

  ==> Algorithm <==

  SCF Algorithm Type is DF.
  DIIS enabled.
  MOM disabled.
  Fractional occupation disabled.
  Guess Type is SAD.
  Energy threshold   = 1.00e-10
  Density threshold  = 1.00e-10
  Integral threshold = 0.00e+00

  ==> Primary Basis <==

  Basis Set: AUG-CC-PVTZ
    Blend: AUG-CC-PVTZ
    Number of shells: 163
    Number of basis function: 487
    Number of Cartesian functions: 564
    Spherical Harmonics?: true
    Max angular momentum: 3

   => Loading Basis Set <=

    Name: (AUG-CC-PVTZ AUX)
    Role: JKFIT
    Keyword: DF_BASIS_SCF
    atoms 1    entry P          line   644 file /home/xy3866/psi4conda/share/psi4/basis/aug-cc-pvtz-jkfit.gbs 
    atoms 2-5  entry O          line   286 file /home/xy3866/psi4conda/share/psi4/basis/aug-cc-pvtz-jkfit.gbs 
    atoms 6-7  entry C          line   162 file /home/xy3866/psi4conda/share/psi4/basis/aug-cc-pvtz-jkfit.gbs 
    atoms 8-14 entry H          line    70 file /home/xy3866/psi4conda/share/psi4/basis/aug-cc-pvtz-jkfit.gbs 

  ==> Pre-Iterations <==

   -------------------------------------------------------
    Irrep   Nso     Nmo     Nalpha   Nbeta   Ndocc  Nsocc
   -------------------------------------------------------
     A        487     487       0       0       0       0
   -------------------------------------------------------
    Total     487     487      33      33      33       0
   -------------------------------------------------------

  ==> Integral Setup <==

  DFHelper Memory: AOs need 1.940 GiB; user supplied 22.352 GiB. Using in-core AOs.

  ==> MemDFJK: Density-Fitted J/K Matrices <==

    J tasked:                   Yes
    K tasked:                   Yes
    wK tasked:                   No
    OpenMP threads:               8
    Memory [MiB]:             22888
    Algorithm:                 Disk
    Schwarz Cutoff:           1E-12
    Mask sparsity (%):       3.1370
    Fitting Condition:        1E-10

   => Auxiliary Basis Set <=

  Basis Set: (AUG-CC-PVTZ AUX)
    Blend: AUG-CC-PVTZ-JKFIT
    Number of shells: 320
    Number of basis function: 1092
    Number of Cartesian functions: 1351
    Spherical Harmonics?: true
    Max angular momentum: 4

  Minimum eigenvalue in the overlap matrix is 2.5920186978E-05.
  Using Symmetric Orthogonalization.

  SCF Guess: Superposition of Atomic Densities via on-the-fly atomic UHF.

  ==> Iterations <==

                           Total Energy        Delta E     RMS |[F,P]|

   @DF-RHF iter SAD:  -718.97393436212167   -7.18974e+02   0.00000e+00 
   @DF-RHF iter   1:  -720.00965250815682   -1.03572e+00   1.57920e-03 DIIS
   @DF-RHF iter   2:  -720.17834410518935   -1.68692e-01   9.82749e-04 DIIS
   @DF-RHF iter   3:  -720.25211021943528   -7.37661e-02   1.37031e-04 DIIS
   @DF-RHF iter   4:  -720.25458954943997   -2.47933e-03   5.30372e-05 DIIS
   @DF-RHF iter   5:  -720.25490520156177   -3.15652e-04   1.46748e-05 DIIS
   @DF-RHF iter   6:  -720.25493452167120   -2.93201e-05   3.85140e-06 DIIS
   @DF-RHF iter   7:  -720.25493768010620   -3.15843e-06   1.25827e-06 DIIS
   @DF-RHF iter   8:  -720.25493801784478   -3.37739e-07   5.24154e-07 DIIS
   @DF-RHF iter   9:  -720.25493807301768   -5.51729e-08   1.90324e-07 DIIS
   @DF-RHF iter  10:  -720.25493808231852   -9.30083e-09   5.07903e-08 DIIS
   @DF-RHF iter  11:  -720.25493808305191   -7.33394e-10   1.42725e-08 DIIS
   @DF-RHF iter  12:  -720.25493808310250   -5.05906e-11   4.91999e-09 DIIS
   @DF-RHF iter  13:  -720.25493808311148   -8.98126e-12   1.39319e-09 DIIS
   @DF-RHF iter  14:  -720.25493808311080    6.82121e-13   6.21493e-10 DIIS
   @DF-RHF iter  15:  -720.25493808311307   -2.27374e-12   1.86548e-10 DIIS
   @DF-RHF iter  16:  -720.25493808311410   -1.02318e-12   6.78865e-11 DIIS
  Energy and wave function converged.


  ==> Post-Iterations <==

    Orbital Energies [Eh]
    ---------------------

    Doubly Occupied:                                                      

       1A    -80.097192     2A    -20.599021     3A    -20.590973  
       4A    -20.575261     5A    -20.507114     6A    -11.311739  
       7A    -11.295710     8A     -7.612632     9A     -5.511238  
      10A     -5.510547    11A     -5.509712    12A     -1.434328  
      13A     -1.374464    14A     -1.334584    15A     -1.285522  
      16A     -0.983751    17A     -0.958868    18A     -0.807884  
      19A     -0.715563    20A     -0.693726    21A     -0.672006  
      22A     -0.656075    23A     -0.645388    24A     -0.630616  
      25A     -0.607403    26A     -0.578991    27A     -0.549675  
      28A     -0.528101    29A     -0.519392    30A     -0.502365  
      31A     -0.482785    32A     -0.463736    33A     -0.454937  

    Virtual:                                                              

      34A      0.025294    35A      0.034637    36A      0.036677  
      37A      0.043930    38A      0.053208    39A      0.058337  
      40A      0.063209    41A      0.081039    42A      0.091444  
      43A      0.101812    44A      0.112979    45A      0.118160  
      46A      0.120827    47A      0.127108    48A      0.130531  
      49A      0.137088    50A      0.140637    51A      0.150798  
      52A      0.162445    53A      0.169641    54A      0.178184  
      55A      0.188071    56A      0.194883    57A      0.203773  
      58A      0.213763    59A      0.214928    60A      0.229762  
      61A      0.236844    62A      0.240785    63A      0.247666  
      64A      0.255691    65A      0.264610    66A      0.269003  
      67A      0.275642    68A      0.282109    69A      0.293125  
      70A      0.305293    71A      0.306449    72A      0.318698  
      73A      0.320502    74A      0.325852    75A      0.330651  
      76A      0.333707    77A      0.341934    78A      0.347500  
      79A      0.350414    80A      0.357751    81A      0.361108  
      82A      0.365288    83A      0.374434    84A      0.383539  
      85A      0.393084    86A      0.395151    87A      0.403064  
      88A      0.403249    89A      0.413674    90A      0.415690  
      91A      0.422122    92A      0.425672    93A      0.428535  
      94A      0.438774    95A      0.444569    96A      0.452614  
      97A      0.455260    98A      0.465236    99A      0.467974  
     100A      0.475462   101A      0.479132   102A      0.483835  
     103A      0.485640   104A      0.492440   105A      0.504217  
     106A      0.518290   107A      0.527248   108A      0.531066  
     109A      0.538873   110A      0.541855   111A      0.545656  
     112A      0.561387   113A      0.568611   114A      0.571349  
     115A      0.577965   116A      0.603461   117A      0.619404  
     118A      0.633335   119A      0.646110   120A      0.667237  
     121A      0.674038   122A      0.689313   123A      0.707091  
     124A      0.727134   125A      0.738750   126A      0.751428  
     127A      0.764071   128A      0.774770   129A      0.784077  
     130A      0.795988   131A      0.802171   132A      0.810450  
     133A      0.816564   134A      0.824881   135A      0.830388  
     136A      0.835125   137A      0.852259   138A      0.861542  
     139A      0.863080   140A      0.874000   141A      0.880932  
     142A      0.889547   143A      0.898350   144A      0.902440  
     145A      0.914145   146A      0.916087   147A      0.926129  
     148A      0.933131   149A      0.935633   150A      0.945727  
     151A      0.953744   152A      0.963359   153A      0.969504  
     154A      0.971481   155A      0.980148   156A      0.988045  
     157A      0.997859   158A      1.010077   159A      1.020673  
     160A      1.029860   161A      1.033964   162A      1.038444  
     163A      1.053773   164A      1.059535   165A      1.066809  
     166A      1.073445   167A      1.083061   168A      1.086142  
     169A      1.091471   170A      1.101881   171A      1.112075  
     172A      1.114234   173A      1.126699   174A      1.143670  
     175A      1.151272   176A      1.156579   177A      1.164315  
     178A      1.172875   179A      1.181549   180A      1.186779  
     181A      1.205508   182A      1.211019   183A      1.221554  
     184A      1.227964   185A      1.231804   186A      1.244372  
     187A      1.249493   188A      1.268821   189A      1.274558  
     190A      1.282554   191A      1.297459   192A      1.311780  
     193A      1.330801   194A      1.333647   195A      1.359417  
     196A      1.371905   197A      1.377172   198A      1.385062  
     199A      1.405916   200A      1.412192   201A      1.439338  
     202A      1.449366   203A      1.452336   204A      1.474114  
     205A      1.476566   206A      1.490127   207A      1.521399  
     208A      1.525919   209A      1.537526   210A      1.565668  
     211A      1.566802   212A      1.578977   213A      1.593953  
     214A      1.602666   215A      1.610896   216A      1.624045  
     217A      1.628751   218A      1.633687   219A      1.648972  
     220A      1.654613   221A      1.658797   222A      1.672428  
     223A      1.685185   224A      1.689954   225A      1.702606  
     226A      1.716097   227A      1.729888   228A      1.744425  
     229A      1.755352   230A      1.763010   231A      1.769429  
     232A      1.788949   233A      1.795726   234A      1.810682  
     235A      1.818557   236A      1.823940   237A      1.851339  
     238A      1.854616   239A      1.906469   240A      1.915970  
     241A      1.938297   242A      1.957187   243A      1.969787  
     244A      1.979710   245A      1.986444   246A      1.994631  
     247A      2.017731   248A      2.023105   249A      2.035483  
     250A      2.050971   251A      2.059368   252A      2.072913  
     253A      2.082701   254A      2.085656   255A      2.098971  
     256A      2.120571   257A      2.123991   258A      2.136890  
     259A      2.165763   260A      2.176278   261A      2.195747  
     262A      2.204855   263A      2.214630   264A      2.226176  
     265A      2.243016   266A      2.261606   267A      2.284872  
     268A      2.292720   269A      2.306574   270A      2.342221  
     271A      2.373947   272A      2.386930   273A      2.403066  
     274A      2.417631   275A      2.435291   276A      2.454152  
     277A      2.469850   278A      2.488170   279A      2.495296  
     280A      2.506117   281A      2.521704   282A      2.541217  
     283A      2.574264   284A      2.581124   285A      2.605947  
     286A      2.623575   287A      2.645088   288A      2.671306  
     289A      2.678210   290A      2.695599   291A      2.720673  
     292A      2.735705   293A      2.742753   294A      2.785422  
     295A      2.790677   296A      2.795236   297A      2.812156  
     298A      2.836584   299A      2.870692   300A      2.890138  
     301A      2.896701   302A      2.928829   303A      2.939537  
     304A      2.956037   305A      2.977669   306A      2.988496  
     307A      3.038210   308A      3.052122   309A      3.053911  
     310A      3.094757   311A      3.127461   312A      3.176386  
     313A      3.205730   314A      3.254605   315A      3.266841  
     316A      3.290911   317A      3.299851   318A      3.312573  
     319A      3.315124   320A      3.336476   321A      3.355702  
     322A      3.409521   323A      3.414954   324A      3.432561  
     325A      3.487247   326A      3.491455   327A      3.526684  
     328A      3.576359   329A      3.589148   330A      3.612090  
     331A      3.633561   332A      3.645839   333A      3.659201  
     334A      3.668140   335A      3.689540   336A      3.711749  
     337A      3.727858   338A      3.735810   339A      3.758842  
     340A      3.789031   341A      3.803689   342A      3.818692  
     343A      3.829053   344A      3.864631   345A      3.890752  
     346A      3.898865   347A      3.914982   348A      3.955917  
     349A      3.962400   350A      4.001573   351A      4.029021  
     352A      4.033981   353A      4.053744   354A      4.066881  
     355A      4.079623   356A      4.103938   357A      4.114006  
     358A      4.134542   359A      4.172579   360A      4.181407  
     361A      4.201040   362A      4.257767   363A      4.280219  
     364A      4.303716   365A      4.306612   366A      4.344062  
     367A      4.353098   368A      4.375864   369A      4.410349  
     370A      4.431660   371A      4.457410   372A      4.485079  
     373A      4.531023   374A      4.542530   375A      4.576303  
     376A      4.595828   377A      4.606961   378A      4.618450  
     379A      4.669024   380A      4.695622   381A      4.750887  
     382A      4.782053   383A      4.804954   384A      4.823660  
     385A      4.857465   386A      4.870944   387A      4.889231  
     388A      4.900183   389A      4.929025   390A      4.951669  
     391A      4.958107   392A      5.010162   393A      5.014993  
     394A      5.031222   395A      5.051654   396A      5.110656  
     397A      5.117661   398A      5.133422   399A      5.166064  
     400A      5.199587   401A      5.216029   402A      5.290456  
     403A      5.324693   404A      5.365653   405A      5.371472  
     406A      5.406401   407A      5.439158   408A      5.461539  
     409A      5.513336   410A      5.580370   411A      5.594965  
     412A      5.639320   413A      5.644078   414A      5.653585  
     415A      5.692585   416A      5.722793   417A      5.789955  
     418A      5.808950   419A      5.863962   420A      5.876801  
     421A      5.901461   422A      6.006115   423A      6.055229  
     424A      6.114869   425A      6.337020   426A      6.431718  
     427A      6.439941   428A      6.586749   429A      6.604862  
     430A      6.630408   431A      6.678750   432A      6.704694  
     433A      6.723595   434A      6.757624   435A      6.773503  
     436A      6.807337   437A      6.828415   438A      6.854982  
     439A      6.873450   440A      6.879133   441A      6.910383  
     442A      6.915603   443A      6.928226   444A      6.967937  
     445A      6.973467   446A      6.995121   447A      7.023199  
     448A      7.058252   449A      7.075276   450A      7.084276  
     451A      7.106726   452A      7.123159   453A      7.159205  
     454A      7.202013   455A      7.247246   456A      7.266216  
     457A      7.284935   458A      7.304958   459A      7.322019  
     460A      7.334902   461A      7.362136   462A      7.380235  
     463A      7.391132   464A      7.428201   465A      7.474444  
     466A      7.474934   467A      7.542622   468A      7.587108  
     469A      7.608172   470A      7.671025   471A      7.730983  
     472A      7.786857   473A      7.812758   474A      7.824586  
     475A      7.920620   476A      7.995395   477A      8.002193  
     478A      8.112330   479A      8.166240   480A      8.338478  
     481A     10.867013   482A     12.925420   483A     14.191008  
     484A     14.693939   485A     15.317615   486A     17.780944  
     487A     18.914850  

    Final Occupation by Irrep:
              A 
    DOCC [    33 ]

  @DF-RHF Final Energy:  -720.25493808311410

   => Energetics <=

    Nuclear Repulsion Energy =            447.0875242398567480
    One-Electron Energy =               -1882.6823293783302233
    Two-Electron Energy =                 715.3398670553593774
    Total Energy =                       -720.2549380831140979

Computation Completed

*** tstop() called on node35.bme.utexas.edu at Wed Nov  4 09:37:56 2020
Module time:
	user time   =     312.98 seconds =       5.22 minutes
	system time =      59.18 seconds =       0.99 minutes
	total time  =         80 seconds =       1.33 minutes
Total time:
	user time   =     312.98 seconds =       5.22 minutes
	system time =      59.18 seconds =       0.99 minutes
	total time  =         80 seconds =       1.33 minutes
   => Loading Basis Set <=

    Name: (AUG-CC-PVTZ AUX)
    Role: RIFIT
    Keyword: DF_BASIS_MP2
    atoms 1    entry P          line   590 file /home/xy3866/psi4conda/share/psi4/basis/aug-cc-pvtz-ri.gbs 
    atoms 2-5  entry O          line   264 file /home/xy3866/psi4conda/share/psi4/basis/aug-cc-pvtz-ri.gbs 
    atoms 6-7  entry C          line   148 file /home/xy3866/psi4conda/share/psi4/basis/aug-cc-pvtz-ri.gbs 
    atoms 8-14 entry H          line    30 file /home/xy3866/psi4conda/share/psi4/basis/aug-cc-pvtz-ri.gbs 


*** tstart() called on node35.bme.utexas.edu
*** at Wed Nov  4 09:37:56 2020


  //>>>>>>>>>>>>>>>>>>>>>>>>>>>>>>>>>>>//
  //               DFMP2               //
  //<<<<<<<<<<<<<<<<<<<<<<<<<<<<<<<<<<<//

	 --------------------------------------------------------
	                          DF-MP2                         
	      2nd-Order Density-Fitted Moller-Plesset Theory     
	              RMP2 Wavefunction,   8 Threads             
	                                                         
	        Rob Parrish, Justin Turney, Andy Simmonett,      
	           Ed Hohenstein, and C. David Sherrill          
	 --------------------------------------------------------

   => Auxiliary Basis Set <=

  Basis Set: (AUG-CC-PVTZ AUX)
    Blend: AUG-CC-PVTZ-RI
    Number of shells: 303
    Number of basis function: 1105
    Number of Cartesian functions: 1392
    Spherical Harmonics?: true
    Max angular momentum: 4

	 --------------------------------------------------------
	                 NBF =   487, NAUX =  1105
	 --------------------------------------------------------
	   CLASS    FOCC     OCC    AOCC    AVIR     VIR    FVIR
	   PAIRS       0      33      33     454     454       0
	 --------------------------------------------------------

  DFHelper Memory: AOs need 1.940 GiB; user supplied 22.352 GiB. Using in-core AOs.


         ------------------------------------------------------------
                                     CPHF                           
                                  Rob Parrish                       
         ------------------------------------------------------------

  ==> Geometry <==

    Molecular point group: c1
    Full point group: C1

    Geometry (in Angstrom), charge = 0, multiplicity = 1:

       Center              X                  Y                   Z               Mass       
    ------------   -----------------  -----------------  -----------------  -----------------
         P           -0.023242585288     0.477255939779     0.059586973536    30.973761998420
         O            1.103246414712    -0.431080060221     0.749977973536    15.994914619570
         O           -0.992308585288    -0.577364060221    -0.697639026464    15.994914619570
         O            0.763743414712     1.126547939779    -1.203905026464    15.994914619570
         O           -0.691902585288     1.426284939779     0.972919973536    15.994914619570
         C            1.887369414712    -1.325311060221    -0.070810026464    12.000000000000
         C           -2.078193285288    -1.375822460221     0.254621673536    12.000000000000
         H            1.234106414712    -1.996043060221    -0.636511026464     1.007825032230
         H            2.502070414712    -1.895289060221     0.624326973536     1.007825032230
         H            2.515210414712    -0.749208060221    -0.754831026464     1.007825032230
         H           -2.630650585288    -0.568239060221     0.606483973536     1.007825032230
         H           -1.427166585288    -1.852928060221     0.911958973536     1.007825032230
         H           -2.485014585288    -1.950966060221    -0.524452026464     1.007825032230
         H            0.377042414712     1.996399939779    -1.411649026464     1.007825032230

  Nuclear repulsion =  447.087524239856748
  Reference energy  = -720.254938083114098

  ==> Basis Set <==

  Basis Set: AUG-CC-PVTZ
    Blend: AUG-CC-PVTZ
    Number of shells: 163
    Number of basis function: 487
    Number of Cartesian functions: 564
    Spherical Harmonics?: true
    Max angular momentum: 3

  ==> CGRSolver (by Rob Parrish) <==

   Number of roots    =         1
   Preconditioning    =    JACOBI
   Convergence cutoff =     1E-06
   Maximum iterations =       100

  ==> CPHFRHamiltonian (by Rob Parrish) <== 

  ==> MemDFJK: Density-Fitted J/K Matrices <==

    J tasked:                   Yes
    K tasked:                   Yes
    wK tasked:                   No
    OpenMP threads:               8
    Memory [MiB]:             22888
    Algorithm:                 Disk
    Schwarz Cutoff:           1E-12
    Mask sparsity (%):       3.1370
    Fitting Condition:        1E-10

   => Auxiliary Basis Set <=

  Basis Set: (AUG-CC-PVTZ AUX)
    Blend: AUG-CC-PVTZ-JKFIT
    Number of shells: 320
    Number of basis function: 1092
    Number of Cartesian functions: 1351
    Spherical Harmonics?: true
    Max angular momentum: 4

  ==> CPHF Iterations <==

  => Iterations <=

             Iter  Converged  Remaining    Residual
  CGR           1          0          1   7.855E-02
  CGR           2          0          1   2.086E-02
  CGR           3          0          1   7.791E-03
  CGR           4          0          1   2.589E-03
  CGR           5          0          1   9.668E-04
  CGR           6          0          1   2.998E-04
  CGR           7          0          1   9.715E-05
  CGR           8          0          1   3.566E-05
  CGR           9          0          1   1.076E-05
  CGR          10          0          1   3.278E-06
  CGR          11          0          1   1.094E-06
  CGR          12          1          0   4.312E-07

    CGRSolver converged.

	-----------------------------------------------------------
	 ==================> DF-MP2 Energies <==================== 
	-----------------------------------------------------------
	 Reference Energy          =    -720.2549380831140979 [Eh]
	 Singles Energy            =      -0.0000000000000000 [Eh]
	 Same-Spin Energy          =      -0.4046353596677342 [Eh]
	 Opposite-Spin Energy      =      -1.2326644687658579 [Eh]
	 Correlation Energy        =      -1.6372998284335920 [Eh]
	 Total Energy              =    -721.8922379115476815 [Eh]
	-----------------------------------------------------------
	 ================> DF-SCS-MP2 Energies <================== 
	-----------------------------------------------------------
	 SCS Same-Spin Scale       =       0.3333333333333333 [-]
	 SCS Opposite-Spin Scale   =       1.2000000000000000 [-]
	 SCS Same-Spin Energy      =      -0.1348784532225781 [Eh]
	 SCS Opposite-Spin Energy  =      -1.4791973625190293 [Eh]
	 SCS Correlation Energy    =      -1.6140758157416073 [Eh]
	 SCS Total Energy          =    -721.8690138988556555 [Eh]
	-----------------------------------------------------------



Properties will be evaluated at   0.000000,   0.000000,  -0.000000 [a0]

Properties computed using the MP2 density matrix

  Nuclear Dipole Moment: [e a0]
     X:     0.1025      Y:    -7.0092      Z:    -1.1663

  Electronic Dipole Moment: [e a0]
     X:    -0.1532      Y:     5.8206      Z:     0.5060

  Dipole Moment: [e a0]
     X:    -0.0506      Y:    -1.1887      Z:    -0.6603     Total:     1.3607

  Dipole Moment: [D]
     X:    -0.1287      Y:    -3.0213      Z:    -1.6783     Total:     3.4585


*** tstop() called on node35.bme.utexas.edu at Wed Nov  4 09:40:53 2020
Module time:
	user time   =     874.53 seconds =      14.58 minutes
	system time =     147.88 seconds =       2.46 minutes
	total time  =        177 seconds =       2.95 minutes
Total time:
	user time   =    1187.71 seconds =      19.80 minutes
	system time =     207.07 seconds =       3.45 minutes
	total time  =        257 seconds =       4.28 minutes

    Psi4 stopped on: Wednesday, 04 November 2020 09:40AM
    Psi4 wall time for execution: 0:04:17.28

*** Psi4 exiting successfully. Buy a developer a beer!
