
    -----------------------------------------------------------------------
          Psi4: An Open-Source Ab Initio Electronic Structure Package
                               Psi4 1.4a3.dev225 

                         Git: Rev {master} 7105e37 


    D. G. A. Smith, L. A. Burns, A. C. Simmonett, R. M. Parrish,
    M. C. Schieber, R. Galvelis, P. Kraus, H. Kruse, R. Di Remigio,
    A. Alenaizan, A. M. James, S. Lehtola, J. P. Misiewicz, M. Scheurer,
    R. A. Shaw, J. B. Schriber, Y. Xie, Z. L. Glick, D. A. Sirianni,
    J. S. O'Brien, J. M. Waldrop, A. Kumar, E. G. Hohenstein,
    B. P. Pritchard, B. R. Brooks, H. F. Schaefer III, A. Yu. Sokolov,
    K. Patkowski, A. E. DePrince III, U. Bozkaya, R. A. King,
    F. A. Evangelista, J. M. Turney, T. D. Crawford, C. D. Sherrill,
    J. Chem. Phys. 152(18) 184108 (2020). https://doi.org/10.1063/5.0006002

                            Additional Code Authors
    E. T. Seidl, C. L. Janssen, E. F. Valeev, M. L. Leininger,
    J. F. Gonthier, R. M. Richard, H. R. McAlexander, M. Saitow, X. Wang,
    P. Verma, and M. H. Lechner

             Previous Authors, Complete List of Code Contributors,
                       and Citations for Specific Modules
    https://github.com/psi4/psi4/blob/master/codemeta.json
    https://github.com/psi4/psi4/graphs/contributors
    http://psicode.org/psi4manual/master/introduction.html#citing-psifour

    -----------------------------------------------------------------------


    Psi4 started on: Friday, 19 March 2021 02:16PM

    Process ID: 54361
    Host:       c434-071.stampede2.tacc.utexas.edu
    PSIDATADIR: /home1/07844/xy3866/miniconda3/envs/p4env/share/psi4
    Memory:     500.0 MiB
    Threads:    32
    
  ==> Input File <==

--------------------------------------------------------------------------
#psi4
#
memory 32 gb

molecule  {
0 1
  O        1.4609920    -0.9816210     0.0001000
  O       -1.4609920     0.9816210     0.0000780
  O        1.2129570     1.2831620    -0.0000550
  O       -1.2129570    -1.2831620    -0.0001280
  C        0.7668340     0.2063794     0.0000025
  C       -0.7476960    -0.1601870    -0.0000240
  H        2.4018370    -0.7064870     0.0001070
  H       -2.4018370     0.7064860     0.0000460
units angstrom
no_reorient  #important for SAPT in psi4, default
symmetry c1  #important for SAPT in psi4, default
}

set PROPERTIES_ORIGIN ["COM"]
properties('MP2/aug-cc-pvtz', properties = ['dipole'])
--------------------------------------------------------------------------

  Memory set to  29.802 GiB by Python driver.
    SCF Algorithm Type (re)set to DF.

*** tstart() called on c434-071.stampede2.tacc.utexas.edu
*** at Fri Mar 19 14:16:59 2021

   => Loading Basis Set <=

    Name: AUG-CC-PVTZ
    Role: ORBITAL
    Keyword: BASIS
    atoms 1-4 entry O          line   331 file /home1/07844/xy3866/miniconda3/envs/p4env/share/psi4/basis/aug-cc-pvtz.gbs 
    atoms 5-6 entry C          line   239 file /home1/07844/xy3866/miniconda3/envs/p4env/share/psi4/basis/aug-cc-pvtz.gbs 
    atoms 7-8 entry H          line    40 file /home1/07844/xy3866/miniconda3/envs/p4env/share/psi4/basis/aug-cc-pvtz.gbs 


         ---------------------------------------------------------
                                   SCF
               by Justin Turney, Rob Parrish, Andy Simmonett
                          and Daniel G. A. Smith
                              RHF Reference
                       32 Threads,  30517 MiB Core
         ---------------------------------------------------------

  ==> Geometry <==

    Molecular point group: c1
    Full point group: C1

    Geometry (in Angstrom), charge = 0, multiplicity = 1:

       Center              X                  Y                   Z               Mass       
    ------------   -----------------  -----------------  -----------------  -----------------
         O            1.458440133645    -0.987780296536     0.000102042077    15.994914619570
         O           -1.463543866355     0.975461703464     0.000080042077    15.994914619570
         O            1.210405133645     1.277002703464    -0.000052957923    15.994914619570
         O           -1.215508866355    -1.289321296536    -0.000125957923    15.994914619570
         C            0.764282133645     0.200220103464     0.000004542077    12.000000000000
         C           -0.750247866355    -0.166346296536    -0.000021957923    12.000000000000
         H            2.399285133645    -0.712646296536     0.000109042077     1.007825032230
         H           -2.404388866355     0.700326703464     0.000048042077     1.007825032230

  Running in c1 symmetry.

  Rotational constants: A =      0.19820  B =      0.11956  C =      0.07457 [cm^-1]
  Rotational constants: A =   5941.79749  B =   3584.17228  C =   2235.61763 [MHz]
  Nuclear repulsion =  230.683668432322804

  Charge       = 0
  Multiplicity = 1
  Electrons    = 46
  Nalpha       = 23
  Nbeta        = 23

  ==> Algorithm <==

  SCF Algorithm Type is DF.
  DIIS enabled.
  MOM disabled.
  Fractional occupation disabled.
  Guess Type is SAD.
  Energy threshold   = 1.00e-10
  Density threshold  = 1.00e-10
  Integral threshold = 1.00e-12

  ==> Primary Basis <==

  Basis Set: AUG-CC-PVTZ
    Blend: AUG-CC-PVTZ
    Number of shells: 102
    Number of basis functions: 322
    Number of Cartesian functions: 380
    Spherical Harmonics?: true
    Max angular momentum: 3

   => Loading Basis Set <=

    Name: (AUG-CC-PVTZ AUX)
    Role: JKFIT
    Keyword: DF_BASIS_SCF
    atoms 1-4 entry O          line   286 file /home1/07844/xy3866/miniconda3/envs/p4env/share/psi4/basis/aug-cc-pvtz-jkfit.gbs 
    atoms 5-6 entry C          line   162 file /home1/07844/xy3866/miniconda3/envs/p4env/share/psi4/basis/aug-cc-pvtz-jkfit.gbs 
    atoms 7-8 entry H          line    70 file /home1/07844/xy3866/miniconda3/envs/p4env/share/psi4/basis/aug-cc-pvtz-jkfit.gbs 

  ==> Integral Setup <==

  DFHelper Memory: AOs need 0.585 GiB; user supplied 22.352 GiB. Using in-core AOs.

  ==> MemDFJK: Density-Fitted J/K Matrices <==

    J tasked:                   Yes
    K tasked:                   Yes
    wK tasked:                   No
    OpenMP threads:              32
    Memory [MiB]:             22888
    Algorithm:                 Core
    Schwarz Cutoff:           1E-12
    Mask sparsity (%):       3.1384
    Fitting Condition:        1E-10

   => Auxiliary Basis Set <=

  Basis Set: (AUG-CC-PVTZ AUX)
    Blend: AUG-CC-PVTZ-JKFIT
    Number of shells: 208
    Number of basis functions: 716
    Number of Cartesian functions: 896
    Spherical Harmonics?: true
    Max angular momentum: 4

  Minimum eigenvalue in the overlap matrix is 1.7984974522E-05.
  Reciprocal condition number of the overlap matrix is 1.5905127968E-06.
    Using symmetric orthogonalization.

  ==> Pre-Iterations <==

  SCF Guess: Superposition of Atomic Densities via on-the-fly atomic UHF (no occupation information).

   -------------------------
    Irrep   Nso     Nmo    
   -------------------------
     A        322     322 
   -------------------------
    Total     322     322
   -------------------------

  ==> Iterations <==

                           Total Energy        Delta E     RMS |[F,P]|

   @DF-RHF iter SAD:  -375.26767179067411   -3.75268e+02   0.00000e+00 
   @DF-RHF iter   1:  -376.30810730360537   -1.04044e+00   2.29501e-03 DIIS
   @DF-RHF iter   2:  -376.42176380631889   -1.13657e-01   1.67067e-03 DIIS
   @DF-RHF iter   3:  -376.51238603011200   -9.06222e-02   1.97910e-04 DIIS
   @DF-RHF iter   4:  -376.51485767022450   -2.47164e-03   9.90642e-05 DIIS
   @DF-RHF iter   5:  -376.51545962207445   -6.01952e-04   2.92534e-05 DIIS
   @DF-RHF iter   6:  -376.51557353469980   -1.13913e-04   1.46516e-05 DIIS
   @DF-RHF iter   7:  -376.51560649507422   -3.29604e-05   4.88079e-06 DIIS
   @DF-RHF iter   8:  -376.51560956970332   -3.07463e-06   2.06189e-06 DIIS
   @DF-RHF iter   9:  -376.51560991826875   -3.48565e-07   7.49647e-07 DIIS
   @DF-RHF iter  10:  -376.51560996994436   -5.16756e-08   2.01782e-07 DIIS
   @DF-RHF iter  11:  -376.51560997458375   -4.63939e-09   4.86366e-08 DIIS
   @DF-RHF iter  12:  -376.51560997489611   -3.12355e-10   1.38103e-08 DIIS
   @DF-RHF iter  13:  -376.51560997492652   -3.04112e-11   5.15975e-09 DIIS
   @DF-RHF iter  14:  -376.51560997492930   -2.78533e-12   2.46835e-09 DIIS
   @DF-RHF iter  15:  -376.51560997493056   -1.25056e-12   7.64446e-10 DIIS
   @DF-RHF iter  16:  -376.51560997493056    0.00000e+00   2.26410e-10 DIIS
   @DF-RHF iter  17:  -376.51560997493067   -1.13687e-13   1.02338e-10 DIIS
   @DF-RHF iter  18:  -376.51560997493101   -3.41061e-13   2.63375e-11 DIIS
  Energy and wave function converged.


  ==> Post-Iterations <==

    Orbital Energies [Eh]
    ---------------------

    Doubly Occupied:                                                      

       1A    -20.644293     2A    -20.636998     3A    -20.600868  
       4A    -20.590777     5A    -11.428967     6A    -11.427298  
       7A     -1.512002     8A     -1.481253     9A     -1.412432  
      10A     -1.387379    11A     -0.976173    12A     -0.835793  
      13A     -0.748460    14A     -0.739955    15A     -0.714210  
      16A     -0.682769    17A     -0.660009    18A     -0.630974  
      19A     -0.614500    20A     -0.546889    21A     -0.524981  
      22A     -0.508689    23A     -0.465866  

    Virtual:                                                              

      24A      0.026549    25A      0.031185    26A      0.067823  
      27A      0.070394    28A      0.079198    29A      0.091763  
      30A      0.097377    31A      0.099788    32A      0.113031  
      33A      0.115234    34A      0.154539    35A      0.154790  
      36A      0.160949    37A      0.163569    38A      0.191853  
      39A      0.202002    40A      0.215820    41A      0.223938  
      42A      0.235124    43A      0.237371    44A      0.242372  
      45A      0.256895    46A      0.267628    47A      0.270378  
      48A      0.275870    49A      0.292776    50A      0.301312  
      51A      0.307845    52A      0.322639    53A      0.342886  
      54A      0.355842    55A      0.357398    56A      0.364000  
      57A      0.378474    58A      0.405574    59A      0.407068  
      60A      0.412539    61A      0.437751    62A      0.446177  
      63A      0.460993    64A      0.470463    65A      0.475433  
      66A      0.492294    67A      0.507698    68A      0.521697  
      69A      0.560435    70A      0.568630    71A      0.582717  
      72A      0.589403    73A      0.614481    74A      0.624946  
      75A      0.648670    76A      0.658911    77A      0.696590  
      78A      0.712208    79A      0.715229    80A      0.723700  
      81A      0.744808    82A      0.756731    83A      0.763145  
      84A      0.784451    85A      0.811066    86A      0.812838  
      87A      0.813044    88A      0.833510    89A      0.849746  
      90A      0.861857    91A      0.871833    92A      0.872734  
      93A      0.874253    94A      0.895979    95A      0.909668  
      96A      0.912289    97A      0.919948    98A      0.929521  
      99A      0.951158   100A      0.979866   101A      0.995027  
     102A      1.017600   103A      1.022632   104A      1.023292  
     105A      1.033801   106A      1.036483   107A      1.038535  
     108A      1.063781   109A      1.099411   110A      1.102693  
     111A      1.111792   112A      1.137132   113A      1.162457  
     114A      1.182745   115A      1.184893   116A      1.204562  
     117A      1.224129   118A      1.237208   119A      1.273674  
     120A      1.285782   121A      1.304189   122A      1.336666  
     123A      1.350772   124A      1.355158   125A      1.383955  
     126A      1.408404   127A      1.414990   128A      1.422923  
     129A      1.436682   130A      1.476346   131A      1.479260  
     132A      1.489766   133A      1.496172   134A      1.518808  
     135A      1.562388   136A      1.581892   137A      1.587865  
     138A      1.660842   139A      1.666965   140A      1.678863  
     141A      1.683415   142A      1.710975   143A      1.758765  
     144A      1.789283   145A      1.819058   146A      1.832241  
     147A      1.838417   148A      1.879429   149A      1.888629  
     150A      1.959921   151A      1.977007   152A      2.003772  
     153A      2.059469   154A      2.095329   155A      2.158482  
     156A      2.169775   157A      2.225000   158A      2.254394  
     159A      2.257501   160A      2.287909   161A      2.311335  
     162A      2.345648   163A      2.350831   164A      2.369716  
     165A      2.371532   166A      2.388174   167A      2.405843  
     168A      2.443134   169A      2.472063   170A      2.481776  
     171A      2.491885   172A      2.500978   173A      2.513437  
     174A      2.530443   175A      2.538600   176A      2.545603  
     177A      2.596259   178A      2.599502   179A      2.622619  
     180A      2.662060   181A      2.672293   182A      2.684858  
     183A      2.700340   184A      2.726118   185A      2.757928  
     186A      2.761212   187A      2.779443   188A      2.792001  
     189A      2.803887   190A      2.847195   191A      2.884407  
     192A      2.913072   193A      2.923935   194A      2.961820  
     195A      2.962242   196A      2.986413   197A      2.993092  
     198A      3.024696   199A      3.066700   200A      3.081763  
     201A      3.086062   202A      3.141887   203A      3.191401  
     204A      3.228034   205A      3.230881   206A      3.322799  
     207A      3.324676   208A      3.391547   209A      3.455620  
     210A      3.468710   211A      3.511100   212A      3.551938  
     213A      3.564858   214A      3.584340   215A      3.599294  
     216A      3.760758   217A      3.772088   218A      3.798495  
     219A      3.821871   220A      3.827184   221A      3.861519  
     222A      3.906951   223A      3.942440   224A      3.982813  
     225A      4.001560   226A      4.015991   227A      4.131787  
     228A      4.160661   229A      4.201100   230A      4.231173  
     231A      4.245423   232A      4.306824   233A      4.327596  
     234A      4.344892   235A      4.358096   236A      4.400696  
     237A      4.416286   238A      4.437005   239A      4.442531  
     240A      4.486696   241A      4.622229   242A      4.637641  
     243A      4.716332   244A      4.749541   245A      4.793788  
     246A      4.830852   247A      4.838577   248A      4.906449  
     249A      4.949134   250A      5.062354   251A      5.110680  
     252A      5.152334   253A      5.167558   254A      5.221289  
     255A      5.262493   256A      5.268687   257A      5.324121  
     258A      5.352102   259A      5.429152   260A      5.529206  
     261A      5.584889   262A      5.647016   263A      5.894536  
     264A      6.017354   265A      6.240272   266A      6.334331  
     267A      6.487319   268A      6.581201   269A      6.595062  
     270A      6.610730   271A      6.677172   272A      6.690107  
     273A      6.762888   274A      6.782783   275A      6.814718  
     276A      6.818096   277A      6.824233   278A      6.852470  
     279A      6.926656   280A      6.935178   281A      6.972540  
     282A      7.022667   283A      7.120481   284A      7.167484  
     285A      7.177991   286A      7.180384   287A      7.210533  
     288A      7.213582   289A      7.222597   290A      7.241476  
     291A      7.255513   292A      7.277745   293A      7.332338  
     294A      7.337842   295A      7.395572   296A      7.396178  
     297A      7.467898   298A      7.477962   299A      7.480969  
     300A      7.551716   301A      7.565088   302A      7.569237  
     303A      7.596209   304A      7.616673   305A      7.656500  
     306A      7.745632   307A      7.786305   308A      7.804124  
     309A      7.887907   310A      7.951250   311A      8.012797  
     312A      8.039543   313A      8.192324   314A      8.227617  
     315A      8.526034   316A      8.556937   317A     14.584884  
     318A     15.186366   319A     15.478321   320A     16.463237  
     321A     18.109738   322A     18.497080  

    Final Occupation by Irrep:
              A 
    DOCC [    23 ]

  @DF-RHF Final Energy:  -376.51560997493101

   => Energetics <=

    Nuclear Repulsion Energy =            230.6836684323228042
    One-Electron Energy =                -974.8554815720694933
    Two-Electron Energy =                 367.6562031648157358
    Total Energy =                       -376.5156099749310101

Computation Completed

*** tstop() called on c434-071.stampede2.tacc.utexas.edu at Fri Mar 19 14:17:09 2021
Module time:
	user time   =     136.84 seconds =       2.28 minutes
	system time =      13.49 seconds =       0.22 minutes
	total time  =         10 seconds =       0.17 minutes
Total time:
	user time   =     136.84 seconds =       2.28 minutes
	system time =      13.49 seconds =       0.22 minutes
	total time  =         10 seconds =       0.17 minutes
   => Loading Basis Set <=

    Name: (AUG-CC-PVTZ AUX)
    Role: RIFIT
    Keyword: DF_BASIS_MP2
    atoms 1-4 entry O          line   264 file /home1/07844/xy3866/miniconda3/envs/p4env/share/psi4/basis/aug-cc-pvtz-ri.gbs 
    atoms 5-6 entry C          line   148 file /home1/07844/xy3866/miniconda3/envs/p4env/share/psi4/basis/aug-cc-pvtz-ri.gbs 
    atoms 7-8 entry H          line    30 file /home1/07844/xy3866/miniconda3/envs/p4env/share/psi4/basis/aug-cc-pvtz-ri.gbs 


*** tstart() called on c434-071.stampede2.tacc.utexas.edu
*** at Fri Mar 19 14:17:09 2021


  //>>>>>>>>>>>>>>>>>>>>>>>>>>>>>>>>>>>//
  //               DFMP2               //
  //<<<<<<<<<<<<<<<<<<<<<<<<<<<<<<<<<<<//

	 --------------------------------------------------------
	                          DF-MP2                         
	      2nd-Order Density-Fitted Moller-Plesset Theory     
	              RMP2 Wavefunction,  32 Threads             
	                                                         
	        Rob Parrish, Justin Turney, Andy Simmonett,      
	           Ed Hohenstein, and C. David Sherrill          
	 --------------------------------------------------------

   => Auxiliary Basis Set <=

  Basis Set: (AUG-CC-PVTZ AUX)
    Blend: AUG-CC-PVTZ-RI
    Number of shells: 196
    Number of basis functions: 728
    Number of Cartesian functions: 926
    Spherical Harmonics?: true
    Max angular momentum: 4

	 --------------------------------------------------------
	                 NBF =   322, NAUX =   728
	 --------------------------------------------------------
	   CLASS    FOCC     OCC    AOCC    AVIR     VIR    FVIR
	   PAIRS       0      23      23     299     299       0
	 --------------------------------------------------------

  DFHelper Memory: AOs need 0.591 GiB; user supplied 22.352 GiB. Using in-core AOs.


         ------------------------------------------------------------
                                     CPHF                           
                                  Rob Parrish                       
         ------------------------------------------------------------

  ==> Geometry <==

    Molecular point group: c1
    Full point group: C1

    Geometry (in Angstrom), charge = 0, multiplicity = 1:

       Center              X                  Y                   Z               Mass       
    ------------   -----------------  -----------------  -----------------  -----------------
         O            1.458440133645    -0.987780296536     0.000102042077    15.994914619570
         O           -1.463543866355     0.975461703464     0.000080042077    15.994914619570
         O            1.210405133645     1.277002703464    -0.000052957923    15.994914619570
         O           -1.215508866355    -1.289321296536    -0.000125957923    15.994914619570
         C            0.764282133645     0.200220103464     0.000004542077    12.000000000000
         C           -0.750247866355    -0.166346296536    -0.000021957923    12.000000000000
         H            2.399285133645    -0.712646296536     0.000109042077     1.007825032230
         H           -2.404388866355     0.700326703464     0.000048042077     1.007825032230

  Nuclear repulsion =  230.683668432322804
  Reference energy  = -376.515609974931010

  ==> Basis Set <==

  Basis Set: AUG-CC-PVTZ
    Blend: AUG-CC-PVTZ
    Number of shells: 102
    Number of basis functions: 322
    Number of Cartesian functions: 380
    Spherical Harmonics?: true
    Max angular momentum: 3

  ==> CGRSolver (by Rob Parrish) <==

   Number of roots    =         1
   Preconditioning    =    JACOBI
   Convergence cutoff =     1E-06
   Maximum iterations =       100

  ==> CPHFRHamiltonian (by Rob Parrish) <== 

  ==> MemDFJK: Density-Fitted J/K Matrices <==

    J tasked:                   Yes
    K tasked:                   Yes
    wK tasked:                   No
    OpenMP threads:              32
    Memory [MiB]:             22888
    Algorithm:                 Core
    Schwarz Cutoff:           1E-12
    Mask sparsity (%):       2.0312
    Fitting Condition:        1E-10

   => Auxiliary Basis Set <=

  Basis Set: (AUG-CC-PVTZ AUX)
    Blend: AUG-CC-PVTZ-JKFIT
    Number of shells: 208
    Number of basis functions: 716
    Number of Cartesian functions: 896
    Spherical Harmonics?: true
    Max angular momentum: 4

  ==> CPHF Iterations <==

  => Iterations <=

             Iter  Converged  Remaining    Residual
  CGR           1          0          1   1.193E-01
  CGR           2          0          1   3.785E-02
  CGR           3          0          1   1.493E-02
  CGR           4          0          1   5.284E-03
  CGR           5          0          1   2.169E-03
  CGR           6          0          1   7.770E-04
  CGR           7          0          1   3.040E-04
  CGR           8          0          1   1.042E-04
  CGR           9          0          1   2.614E-05
  CGR          10          0          1   6.714E-06
  CGR          11          0          1   1.479E-06
  CGR          12          1          0   4.494E-07

    CGRSolver converged.

	-----------------------------------------------------------
	 ==================> DF-MP2 Energies <==================== 
	-----------------------------------------------------------
	 Reference Energy          =    -376.5156099749310101 [Eh]
	 Singles Energy            =      -0.0000000000000000 [Eh]
	 Same-Spin Energy          =      -0.3506135028214494 [Eh]
	 Opposite-Spin Energy      =      -1.0126587571137520 [Eh]
	 Correlation Energy        =      -1.3632722599352014 [Eh]
	 Total Energy              =    -377.8788822348662393 [Eh]
	-----------------------------------------------------------
	 ================> DF-SCS-MP2 Energies <================== 
	-----------------------------------------------------------
	 SCS Same-Spin Scale       =       0.3333333333333333 [-]
	 SCS Opposite-Spin Scale   =       1.2000000000000000 [-]
	 SCS Same-Spin Energy      =      -0.1168711676071498 [Eh]
	 SCS Opposite-Spin Energy  =      -1.2151905085365022 [Eh]
	 SCS Correlation Energy    =      -1.3320616761436521 [Eh]
	 SCS Total Energy          =    -377.8476716510746769 [Eh]
	-----------------------------------------------------------



Properties will be evaluated at   0.000000,   0.000000,  -0.000000 [a0]

Properties computed using the MP2 density matrix

  Nuclear Dipole Moment: [e a0]
     X:    -0.0048      Y:    -0.0117      Z:     0.0001

  Electronic Dipole Moment: [e a0]
     X:     0.0148      Y:     0.1446      Z:    -0.0001

  Dipole Moment: [e a0]
     X:     0.0100      Y:     0.1330      Z:     0.0001     Total:     0.1334

  Dipole Moment: [D]
     X:     0.0255      Y:     0.3380      Z:     0.0002     Total:     0.3389


*** tstop() called on c434-071.stampede2.tacc.utexas.edu at Fri Mar 19 14:18:00 2021
Module time:
	user time   =     290.10 seconds =       4.83 minutes
	system time =      13.49 seconds =       0.22 minutes
	total time  =         51 seconds =       0.85 minutes
Total time:
	user time   =     428.83 seconds =       7.15 minutes
	system time =      27.16 seconds =       0.45 minutes
	total time  =         61 seconds =       1.02 minutes

    Psi4 stopped on: Friday, 19 March 2021 02:18PM
    Psi4 wall time for execution: 0:01:01.15

*** Psi4 exiting successfully. Buy a developer a beer!
