205_Cumene Gaussian SP Calculation on node58.bme.utexas.edu             
Freq      RMP2-FC                                                     6-31G(d)            
Number of atoms                            I               21
Info1-9                                    I   N=           9
          32          31        1002           0           0         100
           6           2           1
Charge                                     I                0
Multiplicity                               I                1
Number of electrons                        I               66
Number of alpha electrons                  I               33
Number of beta electrons                   I               33
Number of basis functions                  I              159
Number of independent functions            I              159
Number of point charges in /Mol/           I                0
Number of translation vectors              I                0
Atomic numbers                             I   N=          21
           6           6           6           6           6           6
           6           6           6           1           1           1
           1           1           1           1           1           1
           1           1           1
Nuclear charges                            R   N=          21
  6.00000000E+00  6.00000000E+00  6.00000000E+00  6.00000000E+00  6.00000000E+00
  6.00000000E+00  6.00000000E+00  6.00000000E+00  6.00000000E+00  1.00000000E+00
  1.00000000E+00  1.00000000E+00  1.00000000E+00  1.00000000E+00  1.00000000E+00
  1.00000000E+00  1.00000000E+00  1.00000000E+00  1.00000000E+00  1.00000000E+00
  1.00000000E+00
Current cartesian coordinates              R   N=          63
  3.09725936E+00 -8.22317904E-01 -1.67869543E-05  2.71773104E-01 -3.84045304E-01
 -1.02206476E-05  4.33249040E+00  2.51250304E-01  2.38657084E+00  4.33250012E+00
  2.51353824E-01 -2.38655251E+00 -1.41601664E+00 -2.42247896E+00 -3.11754500E-05
 -7.26448838E-01  2.07192209E+00  1.99974696E-05 -4.02623371E+00 -2.03105313E+00
 -2.23650311E-05 -3.33193476E+00  2.47482972E+00  2.84743500E-05 -4.99283928E+00
  4.22520925E-01  6.90485557E-06  3.39930879E+00 -2.87647921E+00 -5.95702160E-05
  4.13072289E+00  2.30876849E+00  2.45580038E+00  6.35403449E+00 -1.91056851E-01
  2.42639065E+00  3.45820572E+00 -5.34652623E-01  4.08684164E+00  3.45821974E+00
 -5.34471071E-01 -4.08686171E+00  6.35404318E+00 -1.90956319E-01 -2.42638589E+00
  4.13073920E+00  2.30887579E+00 -2.45569282E+00 -6.73903962E-01 -4.34220183E+00
 -5.42170218E-05  5.39700373E-01  3.69313388E+00  3.76783139E-05 -5.30223900E+00
 -3.64256189E+00 -3.95244645E-05 -4.06851669E+00  4.39396129E+00  5.13044075E-05
 -7.02361320E+00  7.35750950E-01  1.31495892E-05
Force Field                                I                0
Int Atom Types                             I   N=          21
           0           0           0           0           0           0
           0           0           0           0           0           0
           0           0           0           0           0           0
           0           0           0
MM charges                                 R   N=          21
  0.00000000E+00  0.00000000E+00  0.00000000E+00  0.00000000E+00  0.00000000E+00
  0.00000000E+00  0.00000000E+00  0.00000000E+00  0.00000000E+00  0.00000000E+00
  0.00000000E+00  0.00000000E+00  0.00000000E+00  0.00000000E+00  0.00000000E+00
  0.00000000E+00  0.00000000E+00  0.00000000E+00  0.00000000E+00  0.00000000E+00
  0.00000000E+00
Integer atomic weights                     I   N=          21
          12          12          12          12          12          12
          12          12          12           1           1           1
           1           1           1           1           1           1
           1           1           1
Real atomic weights                        R   N=          21
  1.20000000E+01  1.20000000E+01  1.20000000E+01  1.20000000E+01  1.20000000E+01
  1.20000000E+01  1.20000000E+01  1.20000000E+01  1.20000000E+01  1.00782504E+00
  1.00782504E+00  1.00782504E+00  1.00782504E+00  1.00782504E+00  1.00782504E+00
  1.00782504E+00  1.00782504E+00  1.00782504E+00  1.00782504E+00  1.00782504E+00
  1.00782504E+00
Atom fragment info                         I   N=          21
           0           0           0           0           0           0
           0           0           0           0           0           0
           0           0           0           0           0           0
           0           0           0
Atom residue num                           I   N=          21
           0           0           0           0           0           0
           0           0           0           0           0           0
           0           0           0           0           0           0
           0           0           0
Nuclear spins                              I   N=          21
           0           0           0           0           0           0
           0           0           0           1           1           1
           1           1           1           1           1           1
           1           1           1
Nuclear ZEff                               R   N=          21
 -3.60000000E+00 -3.60000000E+00 -3.60000000E+00 -3.60000000E+00 -3.60000000E+00
 -3.60000000E+00 -3.60000000E+00 -3.60000000E+00 -3.60000000E+00 -1.00000000E+00
 -1.00000000E+00 -1.00000000E+00 -1.00000000E+00 -1.00000000E+00 -1.00000000E+00
 -1.00000000E+00 -1.00000000E+00 -1.00000000E+00 -1.00000000E+00 -1.00000000E+00
 -1.00000000E+00
Nuclear QMom                               R   N=          21
  0.00000000E+00  0.00000000E+00  0.00000000E+00  0.00000000E+00  0.00000000E+00
  0.00000000E+00  0.00000000E+00  0.00000000E+00  0.00000000E+00  0.00000000E+00
  0.00000000E+00  0.00000000E+00  0.00000000E+00  0.00000000E+00  0.00000000E+00
  0.00000000E+00  0.00000000E+00  0.00000000E+00  0.00000000E+00  0.00000000E+00
  0.00000000E+00
Nuclear GFac                               R   N=          21
  0.00000000E+00  0.00000000E+00  0.00000000E+00  0.00000000E+00  0.00000000E+00
  0.00000000E+00  0.00000000E+00  0.00000000E+00  0.00000000E+00  2.79284600E+00
  2.79284600E+00  2.79284600E+00  2.79284600E+00  2.79284600E+00  2.79284600E+00
  2.79284600E+00  2.79284600E+00  2.79284600E+00  2.79284600E+00  2.79284600E+00
  2.79284600E+00
MicOpt                                     I   N=          21
          -1          -1          -1          -1          -1          -1
          -1          -1          -1          -1          -1          -1
          -1          -1          -1          -1          -1          -1
          -1          -1          -1
Number of contracted shells                I               60
Number of primitive shells                 I              147
Pure/Cartesian d shells                    I                1
Pure/Cartesian f shells                    I                0
Highest angular momentum                   I                2
Largest degree of contraction              I                6
Shell types                                I   N=          60
           0          -1          -1           2           0          -1
          -1           2           0          -1          -1           2
           0          -1          -1           2           0          -1
          -1           2           0          -1          -1           2
           0          -1          -1           2           0          -1
          -1           2           0          -1          -1           2
           0           0           0           0           0           0
           0           0           0           0           0           0
           0           0           0           0           0           0
           0           0           0           0           0           0
Number of primitives per shell             I   N=          60
           6           3           1           1           6           3
           1           1           6           3           1           1
           6           3           1           1           6           3
           1           1           6           3           1           1
           6           3           1           1           6           3
           1           1           6           3           1           1
           3           1           3           1           3           1
           3           1           3           1           3           1
           3           1           3           1           3           1
           3           1           3           1           3           1
Shell to atom map                          I   N=          60
           1           1           1           1           2           2
           2           2           3           3           3           3
           4           4           4           4           5           5
           5           5           6           6           6           6
           7           7           7           7           8           8
           8           8           9           9           9           9
          10          10          11          11          12          12
          13          13          14          14          15          15
          16          16          17          17          18          18
          19          19          20          20          21          21
Primitive exponents                        R   N=         147
  3.04752488E+03  4.57369518E+02  1.03948685E+02  2.92101553E+01  9.28666296E+00
  3.16392696E+00  7.86827235E+00  1.88128854E+00  5.44249258E-01  1.68714478E-01
  8.00000000E-01  3.04752488E+03  4.57369518E+02  1.03948685E+02  2.92101553E+01
  9.28666296E+00  3.16392696E+00  7.86827235E+00  1.88128854E+00  5.44249258E-01
  1.68714478E-01  8.00000000E-01  3.04752488E+03  4.57369518E+02  1.03948685E+02
  2.92101553E+01  9.28666296E+00  3.16392696E+00  7.86827235E+00  1.88128854E+00
  5.44249258E-01  1.68714478E-01  8.00000000E-01  3.04752488E+03  4.57369518E+02
  1.03948685E+02  2.92101553E+01  9.28666296E+00  3.16392696E+00  7.86827235E+00
  1.88128854E+00  5.44249258E-01  1.68714478E-01  8.00000000E-01  3.04752488E+03
  4.57369518E+02  1.03948685E+02  2.92101553E+01  9.28666296E+00  3.16392696E+00
  7.86827235E+00  1.88128854E+00  5.44249258E-01  1.68714478E-01  8.00000000E-01
  3.04752488E+03  4.57369518E+02  1.03948685E+02  2.92101553E+01  9.28666296E+00
  3.16392696E+00  7.86827235E+00  1.88128854E+00  5.44249258E-01  1.68714478E-01
  8.00000000E-01  3.04752488E+03  4.57369518E+02  1.03948685E+02  2.92101553E+01
  9.28666296E+00  3.16392696E+00  7.86827235E+00  1.88128854E+00  5.44249258E-01
  1.68714478E-01  8.00000000E-01  3.04752488E+03  4.57369518E+02  1.03948685E+02
  2.92101553E+01  9.28666296E+00  3.16392696E+00  7.86827235E+00  1.88128854E+00
  5.44249258E-01  1.68714478E-01  8.00000000E-01  3.04752488E+03  4.57369518E+02
  1.03948685E+02  2.92101553E+01  9.28666296E+00  3.16392696E+00  7.86827235E+00
  1.88128854E+00  5.44249258E-01  1.68714478E-01  8.00000000E-01  1.87311370E+01
  2.82539436E+00  6.40121692E-01  1.61277759E-01  1.87311370E+01  2.82539436E+00
  6.40121692E-01  1.61277759E-01  1.87311370E+01  2.82539436E+00  6.40121692E-01
  1.61277759E-01  1.87311370E+01  2.82539436E+00  6.40121692E-01  1.61277759E-01
  1.87311370E+01  2.82539436E+00  6.40121692E-01  1.61277759E-01  1.87311370E+01
  2.82539436E+00  6.40121692E-01  1.61277759E-01  1.87311370E+01  2.82539436E+00
  6.40121692E-01  1.61277759E-01  1.87311370E+01  2.82539436E+00  6.40121692E-01
  1.61277759E-01  1.87311370E+01  2.82539436E+00  6.40121692E-01  1.61277759E-01
  1.87311370E+01  2.82539436E+00  6.40121692E-01  1.61277759E-01  1.87311370E+01
  2.82539436E+00  6.40121692E-01  1.61277759E-01  1.87311370E+01  2.82539436E+00
  6.40121692E-01  1.61277759E-01
Contraction coefficients                   R   N=         147
  1.83473713E-03  1.40373228E-02  6.88426223E-02  2.32184443E-01  4.67941348E-01
  3.62311985E-01 -1.19332420E-01 -1.60854152E-01  1.14345644E+00  1.00000000E+00
  1.00000000E+00  1.83473713E-03  1.40373228E-02  6.88426223E-02  2.32184443E-01
  4.67941348E-01  3.62311985E-01 -1.19332420E-01 -1.60854152E-01  1.14345644E+00
  1.00000000E+00  1.00000000E+00  1.83473713E-03  1.40373228E-02  6.88426223E-02
  2.32184443E-01  4.67941348E-01  3.62311985E-01 -1.19332420E-01 -1.60854152E-01
  1.14345644E+00  1.00000000E+00  1.00000000E+00  1.83473713E-03  1.40373228E-02
  6.88426223E-02  2.32184443E-01  4.67941348E-01  3.62311985E-01 -1.19332420E-01
 -1.60854152E-01  1.14345644E+00  1.00000000E+00  1.00000000E+00  1.83473713E-03
  1.40373228E-02  6.88426223E-02  2.32184443E-01  4.67941348E-01  3.62311985E-01
 -1.19332420E-01 -1.60854152E-01  1.14345644E+00  1.00000000E+00  1.00000000E+00
  1.83473713E-03  1.40373228E-02  6.88426223E-02  2.32184443E-01  4.67941348E-01
  3.62311985E-01 -1.19332420E-01 -1.60854152E-01  1.14345644E+00  1.00000000E+00
  1.00000000E+00  1.83473713E-03  1.40373228E-02  6.88426223E-02  2.32184443E-01
  4.67941348E-01  3.62311985E-01 -1.19332420E-01 -1.60854152E-01  1.14345644E+00
  1.00000000E+00  1.00000000E+00  1.83473713E-03  1.40373228E-02  6.88426223E-02
  2.32184443E-01  4.67941348E-01  3.62311985E-01 -1.19332420E-01 -1.60854152E-01
  1.14345644E+00  1.00000000E+00  1.00000000E+00  1.83473713E-03  1.40373228E-02
  6.88426223E-02  2.32184443E-01  4.67941348E-01  3.62311985E-01 -1.19332420E-01
 -1.60854152E-01  1.14345644E+00  1.00000000E+00  1.00000000E+00  3.34946043E-02
  2.34726953E-01  8.13757326E-01  1.00000000E+00  3.34946043E-02  2.34726953E-01
  8.13757326E-01  1.00000000E+00  3.34946043E-02  2.34726953E-01  8.13757326E-01
  1.00000000E+00  3.34946043E-02  2.34726953E-01  8.13757326E-01  1.00000000E+00
  3.34946043E-02  2.34726953E-01  8.13757326E-01  1.00000000E+00  3.34946043E-02
  2.34726953E-01  8.13757326E-01  1.00000000E+00  3.34946043E-02  2.34726953E-01
  8.13757326E-01  1.00000000E+00  3.34946043E-02  2.34726953E-01  8.13757326E-01
  1.00000000E+00  3.34946043E-02  2.34726953E-01  8.13757326E-01  1.00000000E+00
  3.34946043E-02  2.34726953E-01  8.13757326E-01  1.00000000E+00  3.34946043E-02
  2.34726953E-01  8.13757326E-01  1.00000000E+00  3.34946043E-02  2.34726953E-01
  8.13757326E-01  1.00000000E+00
P(S=P) Contraction coefficients            R   N=         147
  0.00000000E+00  0.00000000E+00  0.00000000E+00  0.00000000E+00  0.00000000E+00
  0.00000000E+00  6.89990666E-02  3.16423961E-01  7.44308291E-01  1.00000000E+00
  0.00000000E+00  0.00000000E+00  0.00000000E+00  0.00000000E+00  0.00000000E+00
  0.00000000E+00  0.00000000E+00  6.89990666E-02  3.16423961E-01  7.44308291E-01
  1.00000000E+00  0.00000000E+00  0.00000000E+00  0.00000000E+00  0.00000000E+00
  0.00000000E+00  0.00000000E+00  0.00000000E+00  6.89990666E-02  3.16423961E-01
  7.44308291E-01  1.00000000E+00  0.00000000E+00  0.00000000E+00  0.00000000E+00
  0.00000000E+00  0.00000000E+00  0.00000000E+00  0.00000000E+00  6.89990666E-02
  3.16423961E-01  7.44308291E-01  1.00000000E+00  0.00000000E+00  0.00000000E+00
  0.00000000E+00  0.00000000E+00  0.00000000E+00  0.00000000E+00  0.00000000E+00
  6.89990666E-02  3.16423961E-01  7.44308291E-01  1.00000000E+00  0.00000000E+00
  0.00000000E+00  0.00000000E+00  0.00000000E+00  0.00000000E+00  0.00000000E+00
  0.00000000E+00  6.89990666E-02  3.16423961E-01  7.44308291E-01  1.00000000E+00
  0.00000000E+00  0.00000000E+00  0.00000000E+00  0.00000000E+00  0.00000000E+00
  0.00000000E+00  0.00000000E+00  6.89990666E-02  3.16423961E-01  7.44308291E-01
  1.00000000E+00  0.00000000E+00  0.00000000E+00  0.00000000E+00  0.00000000E+00
  0.00000000E+00  0.00000000E+00  0.00000000E+00  6.89990666E-02  3.16423961E-01
  7.44308291E-01  1.00000000E+00  0.00000000E+00  0.00000000E+00  0.00000000E+00
  0.00000000E+00  0.00000000E+00  0.00000000E+00  0.00000000E+00  6.89990666E-02
  3.16423961E-01  7.44308291E-01  1.00000000E+00  0.00000000E+00  0.00000000E+00
  0.00000000E+00  0.00000000E+00  0.00000000E+00  0.00000000E+00  0.00000000E+00
  0.00000000E+00  0.00000000E+00  0.00000000E+00  0.00000000E+00  0.00000000E+00
  0.00000000E+00  0.00000000E+00  0.00000000E+00  0.00000000E+00  0.00000000E+00
  0.00000000E+00  0.00000000E+00  0.00000000E+00  0.00000000E+00  0.00000000E+00
  0.00000000E+00  0.00000000E+00  0.00000000E+00  0.00000000E+00  0.00000000E+00
  0.00000000E+00  0.00000000E+00  0.00000000E+00  0.00000000E+00  0.00000000E+00
  0.00000000E+00  0.00000000E+00  0.00000000E+00  0.00000000E+00  0.00000000E+00
  0.00000000E+00  0.00000000E+00  0.00000000E+00  0.00000000E+00  0.00000000E+00
  0.00000000E+00  0.00000000E+00  0.00000000E+00  0.00000000E+00  0.00000000E+00
  0.00000000E+00  0.00000000E+00
Coordinates of each shell                  R   N=         180
  3.09725936E+00 -8.22317904E-01 -1.67869543E-05  3.09725936E+00 -8.22317904E-01
 -1.67869543E-05  3.09725936E+00 -8.22317904E-01 -1.67869543E-05  3.09725936E+00
 -8.22317904E-01 -1.67869543E-05  2.71773104E-01 -3.84045304E-01 -1.02206476E-05
  2.71773104E-01 -3.84045304E-01 -1.02206476E-05  2.71773104E-01 -3.84045304E-01
 -1.02206476E-05  2.71773104E-01 -3.84045304E-01 -1.02206476E-05  4.33249040E+00
  2.51250304E-01  2.38657084E+00  4.33249040E+00  2.51250304E-01  2.38657084E+00
  4.33249040E+00  2.51250304E-01  2.38657084E+00  4.33249040E+00  2.51250304E-01
  2.38657084E+00  4.33250012E+00  2.51353824E-01 -2.38655251E+00  4.33250012E+00
  2.51353824E-01 -2.38655251E+00  4.33250012E+00  2.51353824E-01 -2.38655251E+00
  4.33250012E+00  2.51353824E-01 -2.38655251E+00 -1.41601664E+00 -2.42247896E+00
 -3.11754500E-05 -1.41601664E+00 -2.42247896E+00 -3.11754500E-05 -1.41601664E+00
 -2.42247896E+00 -3.11754500E-05 -1.41601664E+00 -2.42247896E+00 -3.11754500E-05
 -7.26448838E-01  2.07192209E+00  1.99974696E-05 -7.26448838E-01  2.07192209E+00
  1.99974696E-05 -7.26448838E-01  2.07192209E+00  1.99974696E-05 -7.26448838E-01
  2.07192209E+00  1.99974696E-05 -4.02623371E+00 -2.03105313E+00 -2.23650311E-05
 -4.02623371E+00 -2.03105313E+00 -2.23650311E-05 -4.02623371E+00 -2.03105313E+00
 -2.23650311E-05 -4.02623371E+00 -2.03105313E+00 -2.23650311E-05 -3.33193476E+00
  2.47482972E+00  2.84743500E-05 -3.33193476E+00  2.47482972E+00  2.84743500E-05
 -3.33193476E+00  2.47482972E+00  2.84743500E-05 -3.33193476E+00  2.47482972E+00
  2.84743500E-05 -4.99283928E+00  4.22520925E-01  6.90485557E-06 -4.99283928E+00
  4.22520925E-01  6.90485557E-06 -4.99283928E+00  4.22520925E-01  6.90485557E-06
 -4.99283928E+00  4.22520925E-01  6.90485557E-06  3.39930879E+00 -2.87647921E+00
 -5.95702160E-05  3.39930879E+00 -2.87647921E+00 -5.95702160E-05  4.13072289E+00
  2.30876849E+00  2.45580038E+00  4.13072289E+00  2.30876849E+00  2.45580038E+00
  6.35403449E+00 -1.91056851E-01  2.42639065E+00  6.35403449E+00 -1.91056851E-01
  2.42639065E+00  3.45820572E+00 -5.34652623E-01  4.08684164E+00  3.45820572E+00
 -5.34652623E-01  4.08684164E+00  3.45821974E+00 -5.34471071E-01 -4.08686171E+00
  3.45821974E+00 -5.34471071E-01 -4.08686171E+00  6.35404318E+00 -1.90956319E-01
 -2.42638589E+00  6.35404318E+00 -1.90956319E-01 -2.42638589E+00  4.13073920E+00
  2.30887579E+00 -2.45569282E+00  4.13073920E+00  2.30887579E+00 -2.45569282E+00
 -6.73903962E-01 -4.34220183E+00 -5.42170218E-05 -6.73903962E-01 -4.34220183E+00
 -5.42170218E-05  5.39700373E-01  3.69313388E+00  3.76783139E-05  5.39700373E-01
  3.69313388E+00  3.76783139E-05 -5.30223900E+00 -3.64256189E+00 -3.95244645E-05
 -5.30223900E+00 -3.64256189E+00 -3.95244645E-05 -4.06851669E+00  4.39396129E+00
  5.13044075E-05 -4.06851669E+00  4.39396129E+00  5.13044075E-05 -7.02361320E+00
  7.35750950E-01  1.31495892E-05 -7.02361320E+00  7.35750950E-01  1.31495892E-05
Constraint Structure                       R   N=          63
  3.09725936E+00 -8.22317904E-01 -1.67869543E-05  2.71773104E-01 -3.84045304E-01
 -1.02206476E-05  4.33249040E+00  2.51250304E-01  2.38657084E+00  4.33250012E+00
  2.51353824E-01 -2.38655251E+00 -1.41601664E+00 -2.42247896E+00 -3.11754500E-05
 -7.26448838E-01  2.07192209E+00  1.99974696E-05 -4.02623371E+00 -2.03105313E+00
 -2.23650311E-05 -3.33193476E+00  2.47482972E+00  2.84743500E-05 -4.99283928E+00
  4.22520925E-01  6.90485557E-06  3.39930879E+00 -2.87647921E+00 -5.95702160E-05
  4.13072289E+00  2.30876849E+00  2.45580038E+00  6.35403449E+00 -1.91056851E-01
  2.42639065E+00  3.45820572E+00 -5.34652623E-01  4.08684164E+00  3.45821974E+00
 -5.34471071E-01 -4.08686171E+00  6.35404318E+00 -1.90956319E-01 -2.42638589E+00
  4.13073920E+00  2.30887579E+00 -2.45569282E+00 -6.73903962E-01 -4.34220183E+00
 -5.42170218E-05  5.39700373E-01  3.69313388E+00  3.76783139E-05 -5.30223900E+00
 -3.64256189E+00 -3.95244645E-05 -4.06851669E+00  4.39396129E+00  5.13044075E-05
 -7.02361320E+00  7.35750950E-01  1.31495892E-05
Num ILSW                                   I              100
ILSW                                       I   N=         100
           0           1           0           0           2           0
           0           0           0           0           0          -1
           0           0           0           0           0           0
           0           0           0           0           1           0
           1           0           0           0           0           0
           0           0      100000           0          -1           0
           0           0           0           0           0           0
           0           0           0           1           1           0
           0           0           1           0           0           0
           0           0           4          40           0           0
           0           0           0           0           0           0
           0           0           0           0           0           0
           0           0           0           0           0           0
           0           0           0           0           0           0
           0           0           0           0           0           0
           0           0           0           0           0           0
           0           0           0           0
Num RLSW                                   I               40
RLSW                                       R   N=          40
  1.00000000E+00  1.00000000E+00  1.00000000E+00  1.00000000E+00  1.00000000E+00
  0.00000000E+00  0.00000000E+00  1.00000000E+00  0.00000000E+00  0.00000000E+00
  0.00000000E+00  0.00000000E+00  1.00000000E+00  0.00000000E+00  0.00000000E+00
  0.00000000E+00  0.00000000E+00  1.00000000E+00  0.00000000E+00  0.00000000E+00
  0.00000000E+00  0.00000000E+00  1.00000000E+00  0.00000000E+00  0.00000000E+00
  0.00000000E+00  0.00000000E+00  1.00000000E+00  0.00000000E+00  0.00000000E+00
  0.00000000E+00  0.00000000E+00  0.00000000E+00  0.00000000E+00  0.00000000E+00
  0.00000000E+00  0.00000000E+00  0.00000000E+00  1.00000000E+00  1.00000000E+00
MxBond                                     I                4
NBond                                      I   N=          21
           4           3           4           4           3           3
           3           3           3           1           1           1
           1           1           1           1           1           1
           1           1           1
IBond                                      I   N=          84
           2           3           4          10           1           5
           6           0           1          11          12          13
           1          14          15          16           2           7
          17           0           2           8          18           0
           5           9          19           0           6           9
          20           0           7           8          21           0
           1           0           0           0           3           0
           0           0           3           0           0           0
           3           0           0           0           4           0
           0           0           4           0           0           0
           4           0           0           0           5           0
           0           0           6           0           0           0
           7           0           0           0           8           0
           0           0           9           0           0           0
RBond                                      R   N=          84
  1.00000000E+00  1.00000000E+00  1.00000000E+00  1.00000000E+00  1.00000000E+00
  1.50000000E+00  1.50000000E+00  0.00000000E+00  1.00000000E+00  1.00000000E+00
  1.00000000E+00  1.00000000E+00  1.00000000E+00  1.00000000E+00  1.00000000E+00
  1.00000000E+00  1.50000000E+00  1.50000000E+00  1.00000000E+00  0.00000000E+00
  1.50000000E+00  1.50000000E+00  1.00000000E+00  0.00000000E+00  1.50000000E+00
  1.50000000E+00  1.00000000E+00  0.00000000E+00  1.50000000E+00  1.50000000E+00
  1.00000000E+00  0.00000000E+00  1.50000000E+00  1.50000000E+00  1.00000000E+00
  0.00000000E+00  1.00000000E+00  0.00000000E+00  0.00000000E+00  0.00000000E+00
  1.00000000E+00  0.00000000E+00  0.00000000E+00  0.00000000E+00  1.00000000E+00
  0.00000000E+00  0.00000000E+00  0.00000000E+00  1.00000000E+00  0.00000000E+00
  0.00000000E+00  0.00000000E+00  1.00000000E+00  0.00000000E+00  0.00000000E+00
  0.00000000E+00  1.00000000E+00  0.00000000E+00  0.00000000E+00  0.00000000E+00
  1.00000000E+00  0.00000000E+00  0.00000000E+00  0.00000000E+00  1.00000000E+00
  0.00000000E+00  0.00000000E+00  0.00000000E+00  1.00000000E+00  0.00000000E+00
  0.00000000E+00  0.00000000E+00  1.00000000E+00  0.00000000E+00  0.00000000E+00
  0.00000000E+00  1.00000000E+00  0.00000000E+00  0.00000000E+00  0.00000000E+00
  1.00000000E+00  0.00000000E+00  0.00000000E+00  0.00000000E+00
Virial Ratio                               R      2.001606436664153E+00
SCF Energy                                 R     -3.478062276174856E+02
MP2 Energy                                 R     -3.489634089138886E+02
Total Energy                               R     -3.489634089138886E+02
Post-SCF wavefunction norm                 R      1.682727898736398E+00
RMS Force                                  R      4.795175821773758E-08
RMS Density                                R      1.943366867085022E-09
External E-field                           R   N=          35
  0.00000000E+00  0.00000000E+00  0.00000000E+00  0.00000000E+00  0.00000000E+00
  0.00000000E+00  0.00000000E+00  0.00000000E+00  0.00000000E+00  0.00000000E+00
  0.00000000E+00  0.00000000E+00  0.00000000E+00  0.00000000E+00  0.00000000E+00
  0.00000000E+00  0.00000000E+00  0.00000000E+00  0.00000000E+00  0.00000000E+00
  0.00000000E+00  0.00000000E+00  0.00000000E+00  0.00000000E+00  0.00000000E+00
  0.00000000E+00  0.00000000E+00  0.00000000E+00  0.00000000E+00  0.00000000E+00
  0.00000000E+00  0.00000000E+00  0.00000000E+00  0.00000000E+00  0.00000000E+00
IOpCl                                      I                0
IROHF                                      I                0
Alpha Orbital Energies                     R   N=         159
 -1.12340359E+01 -1.12318768E+01 -1.12318217E+01 -1.12314653E+01 -1.12282760E+01
 -1.12275107E+01 -1.12273499E+01 -1.12139290E+01 -1.12139060E+01 -1.14786987E+00
 -1.07822415E+00 -1.00445910E+00 -9.86251545E-01 -9.28613034E-01 -8.40880154E-01
 -8.16817737E-01 -7.64395542E-01 -6.86820621E-01 -6.41091558E-01 -6.23300340E-01
 -5.94749007E-01 -5.87092958E-01 -5.73688663E-01 -5.65825179E-01 -5.36503963E-01
 -5.25542717E-01 -4.93629510E-01 -4.92910494E-01 -4.70053085E-01 -4.62586769E-01
 -4.57723352E-01 -3.27142314E-01 -3.16924653E-01  1.45968236E-01  1.50242684E-01
  2.27096152E-01  2.51390058E-01  2.59226001E-01  2.98757961E-01  3.00686938E-01
  3.02602742E-01  3.13208828E-01  3.26128019E-01  3.42348077E-01  3.52074662E-01
  3.55109131E-01  3.74909212E-01  3.81875689E-01  3.91981005E-01  4.33953545E-01
  4.61920467E-01  4.82162332E-01  5.07337857E-01  5.26621531E-01  5.37120042E-01
  6.57445912E-01  6.88750339E-01  7.30474498E-01  7.44347609E-01  7.47614378E-01
  7.57956625E-01  7.79140803E-01  7.88043731E-01  7.93173813E-01  8.14532816E-01
  8.44387713E-01  8.44577868E-01  8.45745752E-01  8.60881273E-01  8.91722897E-01
  9.04518072E-01  9.29468631E-01  9.61027695E-01  9.78817371E-01  1.01993240E+00
  1.03227661E+00  1.06511377E+00  1.09350949E+00  1.09612141E+00  1.09912874E+00
  1.10975506E+00  1.12141226E+00  1.12414662E+00  1.15917168E+00  1.17447781E+00
  1.17898882E+00  1.18839541E+00  1.19935817E+00  1.21412504E+00  1.22934536E+00
  1.23960506E+00  1.25715892E+00  1.26072962E+00  1.27949649E+00  1.33562032E+00
  1.36849484E+00  1.40598044E+00  1.44394331E+00  1.46138997E+00  1.50447019E+00
  1.61021338E+00  1.63760774E+00  1.69480205E+00  1.70723190E+00  1.71192673E+00
  1.74112277E+00  1.77752785E+00  1.79148670E+00  1.80139149E+00  1.87871461E+00
  1.95321243E+00  2.02367206E+00  2.07668467E+00  2.09943923E+00  2.13817311E+00
  2.16521366E+00  2.18843840E+00  2.22366624E+00  2.23785340E+00  2.30064974E+00
  2.32157676E+00  2.34403724E+00  2.35861484E+00  2.39323857E+00  2.41695463E+00
  2.45603012E+00  2.46681051E+00  2.47565589E+00  2.52314096E+00  2.52572345E+00
  2.59459235E+00  2.62098296E+00  2.62692626E+00  2.64062278E+00  2.64557371E+00
  2.70573936E+00  2.77347473E+00  2.86030848E+00  2.86047749E+00  2.92785682E+00
  2.96446708E+00  2.99580003E+00  3.08174906E+00  3.08296221E+00  3.10709354E+00
  3.12088987E+00  3.15998841E+00  3.25303850E+00  3.44985515E+00  3.79172141E+00
  4.52222289E+00  4.54671887E+00  4.58504654E+00  4.63764288E+00  4.71467106E+00
  4.75824990E+00  4.82287505E+00  4.99112699E+00  5.14420319E+00
Alpha MO coefficients                      R   N=       25281
  1.45405998E-01  4.81928520E-03 -6.79488704E-05  1.06949378E-04  3.47989364E-09