
    -----------------------------------------------------------------------
          Psi4: An Open-Source Ab Initio Electronic Structure Package
                               Psi4 1.3.2 release

                         Git: Rev {HEAD} ecbda83 


    R. M. Parrish, L. A. Burns, D. G. A. Smith, A. C. Simmonett,
    A. E. DePrince III, E. G. Hohenstein, U. Bozkaya, A. Yu. Sokolov,
    R. Di Remigio, R. M. Richard, J. F. Gonthier, A. M. James,
    H. R. McAlexander, A. Kumar, M. Saitow, X. Wang, B. P. Pritchard,
    P. Verma, H. F. Schaefer III, K. Patkowski, R. A. King, E. F. Valeev,
    F. A. Evangelista, J. M. Turney, T. D. Crawford, and C. D. Sherrill,
    J. Chem. Theory Comput. 13(7) pp 3185--3197 (2017).
    (doi: 10.1021/acs.jctc.7b00174)


                         Additional Contributions by
    P. Kraus, H. Kruse, M. H. Lechner, M. C. Schieber, R. A. Shaw,
    A. Alenaizan, R. Galvelis, Z. L. Glick, S. Lehtola, and J. P. Misiewicz

    -----------------------------------------------------------------------


    Psi4 started on: Tuesday, 03 November 2020 07:18PM

    Process ID: 31837
    Host:       node97.bme.utexas.edu
    PSIDATADIR: /home/xy3866/psi4conda/share/psi4
    Memory:     500.0 MiB
    Threads:    8
    
  ==> Input File <==

--------------------------------------------------------------------------
#psi4
#
memory 32 gb

molecule  {
0 1
  O        1.8013450    -0.1222670    -0.0001450
  C       -0.5611510    -0.4520200    -0.0000120
  C        0.6707050     0.3546130    -0.0000040
  C       -1.9447208     0.2289543     0.0001741
  H       -0.4438600    -1.5324100    -0.0001440
  H        0.5134400     1.4540710     0.0000460
  H       -2.6894370    -0.4270490     0.0001690
  H       -1.8565530     1.2241520     0.0002830
units angstrom
no_reorient  #important for SAPT in psi4, default
symmetry c1  #important for SAPT in psi4, default
}

set PROPERTIES_ORIGIN ["COM"]
properties('MP2/aug-cc-pvtz', properties = ['dipole'])
--------------------------------------------------------------------------

  Memory set to  29.802 GiB by Python driver.
    SCF Algorithm Type (re)set to DF.

*** tstart() called on node97.bme.utexas.edu
*** at Tue Nov  3 19:18:32 2020

   => Loading Basis Set <=

    Name: AUG-CC-PVTZ
    Role: ORBITAL
    Keyword: BASIS
    atoms 1   entry O          line   327 file /home/xy3866/psi4conda/share/psi4/basis/aug-cc-pvtz.gbs 
    atoms 2-4 entry C          line   235 file /home/xy3866/psi4conda/share/psi4/basis/aug-cc-pvtz.gbs 
    atoms 5-8 entry H          line    36 file /home/xy3866/psi4conda/share/psi4/basis/aug-cc-pvtz.gbs 


         ---------------------------------------------------------
                                   SCF
               by Justin Turney, Rob Parrish, Andy Simmonett
                          and Daniel G. A. Smith
                              RHF Reference
                        8 Threads,  30517 MiB Core
         ---------------------------------------------------------

  ==> Geometry <==

    Molecular point group: c1
    Full point group: C1

    Geometry (in Angstrom), charge = 0, multiplicity = 1:

       Center              X                  Y                   Z               Mass       
    ------------   -----------------  -----------------  -----------------  -----------------
         O            1.760669044412    -0.128465986086    -0.000143834607    15.994914619570
         C           -0.601826955588    -0.458218986086    -0.000010834607    12.000000000000
         C            0.630029044412     0.348414013914    -0.000002834607    12.000000000000
         C           -1.985396755588     0.222755313914     0.000175265393    12.000000000000
         H           -0.484535955588    -1.538608986086    -0.000142834607     1.007825032230
         H            0.472764044412     1.447872013914     0.000047165393     1.007825032230
         H           -2.730112955588    -0.433247986086     0.000170165393     1.007825032230
         H           -1.897228955588     1.217953013914     0.000284165393     1.007825032230

  Running in c1 symmetry.

  Rotational constants: A =      1.53933  B =      0.14327  C =      0.13107 [cm^-1]
  Rotational constants: A =  46148.02134  B =   4295.12974  C =   3929.40835 [MHz]
  Nuclear repulsion =  100.255261298458734

  Charge       = 0
  Multiplicity = 1
  Electrons    = 30
  Nalpha       = 15
  Nbeta        = 15

  ==> Algorithm <==

  SCF Algorithm Type is DF.
  DIIS enabled.
  MOM disabled.
  Fractional occupation disabled.
  Guess Type is SAD.
  Energy threshold   = 1.00e-10
  Density threshold  = 1.00e-10
  Integral threshold = 0.00e+00

  ==> Primary Basis <==

  Basis Set: AUG-CC-PVTZ
    Blend: AUG-CC-PVTZ
    Number of shells: 92
    Number of basis function: 276
    Number of Cartesian functions: 320
    Spherical Harmonics?: true
    Max angular momentum: 3

   => Loading Basis Set <=

    Name: (AUG-CC-PVTZ AUX)
    Role: JKFIT
    Keyword: DF_BASIS_SCF
    atoms 1   entry O          line   286 file /home/xy3866/psi4conda/share/psi4/basis/aug-cc-pvtz-jkfit.gbs 
    atoms 2-4 entry C          line   162 file /home/xy3866/psi4conda/share/psi4/basis/aug-cc-pvtz-jkfit.gbs 
    atoms 5-8 entry H          line    70 file /home/xy3866/psi4conda/share/psi4/basis/aug-cc-pvtz-jkfit.gbs 

  ==> Pre-Iterations <==

   -------------------------------------------------------
    Irrep   Nso     Nmo     Nalpha   Nbeta   Ndocc  Nsocc
   -------------------------------------------------------
     A        276     276       0       0       0       0
   -------------------------------------------------------
    Total     276     276      15      15      15       0
   -------------------------------------------------------

  ==> Integral Setup <==

  DFHelper Memory: AOs need 0.359 GiB; user supplied 22.352 GiB. Using in-core AOs.

  ==> MemDFJK: Density-Fitted J/K Matrices <==

    J tasked:                   Yes
    K tasked:                   Yes
    wK tasked:                   No
    OpenMP threads:               8
    Memory [MiB]:             22888
    Algorithm:                 Core
    Schwarz Cutoff:           1E-12
    Mask sparsity (%):       1.1473
    Fitting Condition:        1E-10

   => Auxiliary Basis Set <=

  Basis Set: (AUG-CC-PVTZ AUX)
    Blend: AUG-CC-PVTZ-JKFIT
    Number of shells: 176
    Number of basis function: 600
    Number of Cartesian functions: 744
    Spherical Harmonics?: true
    Max angular momentum: 4

  Minimum eigenvalue in the overlap matrix is 9.6332428433E-06.
  Using Symmetric Orthogonalization.

  SCF Guess: Superposition of Atomic Densities via on-the-fly atomic UHF.

  ==> Iterations <==

                           Total Energy        Delta E     RMS |[F,P]|

   @DF-RHF iter SAD:  -189.52524887905685   -1.89525e+02   0.00000e+00 
   @DF-RHF iter   1:  -190.67184310063132   -1.14659e+00   1.64021e-03 DIIS
   @DF-RHF iter   2:  -190.74068871560723   -6.88456e-02   1.15971e-03 DIIS
   @DF-RHF iter   3:  -190.77496281839208   -3.42741e-02   2.00890e-04 DIIS
   @DF-RHF iter   4:  -190.77698192555923   -2.01911e-03   6.05836e-05 DIIS
   @DF-RHF iter   5:  -190.77722430942987   -2.42384e-04   1.49172e-05 DIIS
   @DF-RHF iter   6:  -190.77724891706114   -2.46076e-05   7.82947e-06 DIIS
   @DF-RHF iter   7:  -190.77725615110933   -7.23405e-06   4.64223e-06 DIIS
   @DF-RHF iter   8:  -190.77725836995185   -2.21884e-06   1.56910e-06 DIIS
   @DF-RHF iter   9:  -190.77725875467715   -3.84725e-07   6.00711e-07 DIIS
   @DF-RHF iter  10:  -190.77725880216144   -4.74843e-08   1.93947e-07 DIIS
   @DF-RHF iter  11:  -190.77725880776111   -5.59967e-09   5.58383e-08 DIIS
   @DF-RHF iter  12:  -190.77725880821552   -4.54406e-10   1.85149e-08 DIIS
   @DF-RHF iter  13:  -190.77725880826100   -4.54747e-11   4.94452e-09 DIIS
   @DF-RHF iter  14:  -190.77725880826441   -3.41061e-12   1.29334e-09 DIIS
   @DF-RHF iter  15:  -190.77725880826438    2.84217e-14   2.68368e-10 DIIS
   @DF-RHF iter  16:  -190.77725880826395    4.26326e-13   6.42128e-11 DIIS
  Energy and wave function converged.


  ==> Post-Iterations <==

    Orbital Energies [Eh]
    ---------------------

    Doubly Occupied:                                                      

       1A    -20.559545     2A    -11.341437     3A    -11.292935  
       4A    -11.287148     5A     -1.382720     6A     -1.056526  
       7A     -0.912104     8A     -0.790598     9A     -0.697157  
      10A     -0.656201    11A     -0.613639    12A     -0.559747  
      13A     -0.535380    14A     -0.434519    15A     -0.364619  

    Virtual:                                                              

      16A      0.024078    17A      0.034357    18A      0.036082  
      19A      0.043038    20A      0.056994    21A      0.082237  
      22A      0.089426    23A      0.107159    24A      0.107355  
      25A      0.116786    26A      0.122670    27A      0.128503  
      28A      0.133395    29A      0.140003    30A      0.156048  
      31A      0.171840    32A      0.186960    33A      0.197896  
      34A      0.227484    35A      0.231705    36A      0.234169  
      37A      0.252880    38A      0.257784    39A      0.271632  
      40A      0.287541    41A      0.287814    42A      0.301707  
      43A      0.311595    44A      0.331327    45A      0.332234  
      46A      0.335161    47A      0.361612    48A      0.363613  
      49A      0.380289    50A      0.397064    51A      0.397929  
      52A      0.407259    53A      0.411601    54A      0.419059  
      55A      0.434426    56A      0.439361    57A      0.456081  
      58A      0.459158    59A      0.461162    60A      0.475068  
      61A      0.488479    62A      0.503149    63A      0.510641  
      64A      0.521815    65A      0.539665    66A      0.579057  
      67A      0.590146    68A      0.595710    69A      0.622812  
      70A      0.631456    71A      0.659403    72A      0.673176  
      73A      0.701868    74A      0.711546    75A      0.750346  
      76A      0.762777    77A      0.781347    78A      0.803672  
      79A      0.819411    80A      0.827178    81A      0.835856  
      82A      0.851666    83A      0.854649    84A      0.868292  
      85A      0.875417    86A      0.888940    87A      0.901107  
      88A      0.903552    89A      0.911270    90A      0.917807  
      91A      0.940597    92A      0.943136    93A      0.958459  
      94A      0.966031    95A      0.972749    96A      1.002257  
      97A      1.014418    98A      1.022040    99A      1.025925  
     100A      1.039069   101A      1.060620   102A      1.061924  
     103A      1.066648   104A      1.083652   105A      1.096906  
     106A      1.110761   107A      1.128589   108A      1.142569  
     109A      1.153224   110A      1.165166   111A      1.188680  
     112A      1.224863   113A      1.229895   114A      1.269703  
     115A      1.270324   116A      1.299405   117A      1.301294  
     118A      1.341158   119A      1.366872   120A      1.398796  
     121A      1.405232   122A      1.436315   123A      1.440827  
     124A      1.451534   125A      1.502202   126A      1.511888  
     127A      1.540235   128A      1.587879   129A      1.591391  
     130A      1.630027   131A      1.645371   132A      1.690413  
     133A      1.695506   134A      1.705198   135A      1.726481  
     136A      1.741786   137A      1.752545   138A      1.759165  
     139A      1.769931   140A      1.781706   141A      1.797382  
     142A      1.866429   143A      1.874265   144A      1.894674  
     145A      1.911849   146A      1.948321   147A      1.973852  
     148A      2.020585   149A      2.037561   150A      2.061693  
     151A      2.084369   152A      2.131222   153A      2.153453  
     154A      2.187341   155A      2.198049   156A      2.224243  
     157A      2.251809   158A      2.252620   159A      2.341105  
     160A      2.359800   161A      2.391177   162A      2.448548  
     163A      2.454059   164A      2.495196   165A      2.567136  
     166A      2.568720   167A      2.589056   168A      2.625090  
     169A      2.684059   170A      2.716412   171A      2.756667  
     172A      2.809521   173A      2.846620   174A      2.938554  
     175A      2.974011   176A      2.989282   177A      3.036383  
     178A      3.089581   179A      3.169472   180A      3.169495  
     181A      3.213367   182A      3.238164   183A      3.280197  
     184A      3.283578   185A      3.299989   186A      3.364762  
     187A      3.387547   188A      3.407906   189A      3.448423  
     190A      3.463077   191A      3.486671   192A      3.496574  
     193A      3.532886   194A      3.586381   195A      3.598823  
     196A      3.619622   197A      3.646164   198A      3.688479  
     199A      3.718319   200A      3.759419   201A      3.770803  
     202A      3.789229   203A      3.805709   204A      3.833176  
     205A      3.914340   206A      3.914803   207A      3.955009  
     208A      3.998060   209A      4.013765   210A      4.032576  
     211A      4.100464   212A      4.132013   213A      4.144617  
     214A      4.168096   215A      4.214679   216A      4.243803  
     217A      4.275739   218A      4.295083   219A      4.355815  
     220A      4.372866   221A      4.396849   222A      4.410707  
     223A      4.488193   224A      4.551815   225A      4.563223  
     226A      4.593733   227A      4.658034   228A      4.694723  
     229A      4.731944   230A      4.758123   231A      4.784033  
     232A      4.824021   233A      4.853697   234A      4.911380  
     235A      4.942473   236A      4.992692   237A      5.058669  
     238A      5.078155   239A      5.123503   240A      5.149503  
     241A      5.184033   242A      5.258656   243A      5.286895  
     244A      5.287825   245A      5.340757   246A      5.516775  
     247A      5.530829   248A      5.637377   249A      5.676444  
     250A      5.679804   251A      5.727713   252A      5.909472  
     253A      6.031164   254A      6.222233   255A      6.280268  
     256A      6.358401   257A      6.402435   258A      6.511634  
     259A      6.633773   260A      6.638603   261A      6.673256  
     262A      6.937334   263A      7.003634   264A      7.100748  
     265A      7.110160   266A      7.296718   267A      7.302784  
     268A      7.565712   269A      7.611760   270A      7.687065  
     271A      7.781414   272A      7.864023   273A     14.601504  
     274A     15.585618   275A     17.702967   276A     18.265641  

    Final Occupation by Irrep:
              A 
    DOCC [    15 ]

  @DF-RHF Final Energy:  -190.77725880826395

   => Energetics <=

    Nuclear Repulsion Energy =            100.2552612984587341
    One-Electron Energy =                -457.0964916351267107
    Two-Electron Energy =                 166.0639715284040392
    Total Energy =                       -190.7772588082639516

Computation Completed

*** tstop() called on node97.bme.utexas.edu at Tue Nov  3 19:18:36 2020
Module time:
	user time   =      23.71 seconds =       0.40 minutes
	system time =       0.76 seconds =       0.01 minutes
	total time  =          4 seconds =       0.07 minutes
Total time:
	user time   =      23.71 seconds =       0.40 minutes
	system time =       0.76 seconds =       0.01 minutes
	total time  =          4 seconds =       0.07 minutes
   => Loading Basis Set <=

    Name: (AUG-CC-PVTZ AUX)
    Role: RIFIT
    Keyword: DF_BASIS_MP2
    atoms 1   entry O          line   264 file /home/xy3866/psi4conda/share/psi4/basis/aug-cc-pvtz-ri.gbs 
    atoms 2-4 entry C          line   148 file /home/xy3866/psi4conda/share/psi4/basis/aug-cc-pvtz-ri.gbs 
    atoms 5-8 entry H          line    30 file /home/xy3866/psi4conda/share/psi4/basis/aug-cc-pvtz-ri.gbs 


*** tstart() called on node97.bme.utexas.edu
*** at Tue Nov  3 19:18:36 2020


  //>>>>>>>>>>>>>>>>>>>>>>>>>>>>>>>>>>>//
  //               DFMP2               //
  //<<<<<<<<<<<<<<<<<<<<<<<<<<<<<<<<<<<//

	 --------------------------------------------------------
	                          DF-MP2                         
	      2nd-Order Density-Fitted Moller-Plesset Theory     
	              RMP2 Wavefunction,   8 Threads             
	                                                         
	        Rob Parrish, Justin Turney, Andy Simmonett,      
	           Ed Hohenstein, and C. David Sherrill          
	 --------------------------------------------------------

   => Auxiliary Basis Set <=

  Basis Set: (AUG-CC-PVTZ AUX)
    Blend: AUG-CC-PVTZ-RI
    Number of shells: 168
    Number of basis function: 608
    Number of Cartesian functions: 764
    Spherical Harmonics?: true
    Max angular momentum: 4

	 --------------------------------------------------------
	                 NBF =   276, NAUX =   608
	 --------------------------------------------------------
	   CLASS    FOCC     OCC    AOCC    AVIR     VIR    FVIR
	   PAIRS       0      15      15     261     261       0
	 --------------------------------------------------------

  DFHelper Memory: AOs need 0.359 GiB; user supplied 22.352 GiB. Using in-core AOs.


         ------------------------------------------------------------
                                     CPHF                           
                                  Rob Parrish                       
         ------------------------------------------------------------

  ==> Geometry <==

    Molecular point group: c1
    Full point group: C1

    Geometry (in Angstrom), charge = 0, multiplicity = 1:

       Center              X                  Y                   Z               Mass       
    ------------   -----------------  -----------------  -----------------  -----------------
         O            1.760669044412    -0.128465986086    -0.000143834607    15.994914619570
         C           -0.601826955588    -0.458218986086    -0.000010834607    12.000000000000
         C            0.630029044412     0.348414013914    -0.000002834607    12.000000000000
         C           -1.985396755588     0.222755313914     0.000175265393    12.000000000000
         H           -0.484535955588    -1.538608986086    -0.000142834607     1.007825032230
         H            0.472764044412     1.447872013914     0.000047165393     1.007825032230
         H           -2.730112955588    -0.433247986086     0.000170165393     1.007825032230
         H           -1.897228955588     1.217953013914     0.000284165393     1.007825032230

  Nuclear repulsion =  100.255261298458734
  Reference energy  = -190.777258808263952

  ==> Basis Set <==

  Basis Set: AUG-CC-PVTZ
    Blend: AUG-CC-PVTZ
    Number of shells: 92
    Number of basis function: 276
    Number of Cartesian functions: 320
    Spherical Harmonics?: true
    Max angular momentum: 3

  ==> CGRSolver (by Rob Parrish) <==

   Number of roots    =         1
   Preconditioning    =    JACOBI
   Convergence cutoff =     1E-06
   Maximum iterations =       100

  ==> CPHFRHamiltonian (by Rob Parrish) <== 

  ==> MemDFJK: Density-Fitted J/K Matrices <==

    J tasked:                   Yes
    K tasked:                   Yes
    wK tasked:                   No
    OpenMP threads:               8
    Memory [MiB]:             22888
    Algorithm:                 Core
    Schwarz Cutoff:           1E-12
    Mask sparsity (%):       1.1473
    Fitting Condition:        1E-10

   => Auxiliary Basis Set <=

  Basis Set: (AUG-CC-PVTZ AUX)
    Blend: AUG-CC-PVTZ-JKFIT
    Number of shells: 176
    Number of basis function: 600
    Number of Cartesian functions: 744
    Spherical Harmonics?: true
    Max angular momentum: 4

  ==> CPHF Iterations <==

  => Iterations <=

             Iter  Converged  Remaining    Residual
  CGR           1          0          1   1.173E-01
  CGR           2          0          1   3.757E-02
  CGR           3          0          1   1.335E-02
  CGR           4          0          1   5.841E-03
  CGR           5          0          1   2.758E-03
  CGR           6          0          1   1.067E-03
  CGR           7          0          1   2.251E-04
  CGR           8          0          1   6.840E-05
  CGR           9          0          1   2.756E-05
  CGR          10          0          1   8.793E-06
  CGR          11          0          1   2.118E-06
  CGR          12          1          0   4.945E-07

    CGRSolver converged.

	-----------------------------------------------------------
	 ==================> DF-MP2 Energies <==================== 
	-----------------------------------------------------------
	 Reference Energy          =    -190.7772588082639516 [Eh]
	 Singles Energy            =      -0.0000000000000000 [Eh]
	 Same-Spin Energy          =      -0.1864975651440808 [Eh]
	 Opposite-Spin Energy      =      -0.6139056615609795 [Eh]
	 Correlation Energy        =      -0.8004032267050603 [Eh]
	 Total Energy              =    -191.5776620349690234 [Eh]
	-----------------------------------------------------------
	 ================> DF-SCS-MP2 Energies <================== 
	-----------------------------------------------------------
	 SCS Same-Spin Scale       =       0.3333333333333333 [-]
	 SCS Opposite-Spin Scale   =       1.2000000000000000 [-]
	 SCS Same-Spin Energy      =      -0.0621658550480269 [Eh]
	 SCS Opposite-Spin Energy  =      -0.7366867938731754 [Eh]
	 SCS Correlation Energy    =      -0.7988526489212023 [Eh]
	 SCS Total Energy          =    -191.5761114571851635 [Eh]
	-----------------------------------------------------------



Properties will be evaluated at  -0.000000,   0.000000,   0.000000 [a0]

Properties computed using the MP2 density matrix

  Nuclear Dipole Moment: [e a0]
     X:    -4.3406      Y:     0.6500      Z:     0.0003

  Electronic Dipole Moment: [e a0]
     X:     3.0916      Y:    -0.4023      Z:    -0.0002

  Dipole Moment: [e a0]
     X:    -1.2490      Y:     0.2477      Z:     0.0001     Total:     1.2733

  Dipole Moment: [D]
     X:    -3.1746      Y:     0.6296      Z:     0.0003     Total:     3.2364


*** tstop() called on node97.bme.utexas.edu at Tue Nov  3 19:18:44 2020
Module time:
	user time   =      53.98 seconds =       0.90 minutes
	system time =       1.32 seconds =       0.02 minutes
	total time  =          8 seconds =       0.13 minutes
Total time:
	user time   =      78.39 seconds =       1.31 minutes
	system time =       2.12 seconds =       0.04 minutes
	total time  =         12 seconds =       0.20 minutes

    Psi4 stopped on: Tuesday, 03 November 2020 07:18PM
    Psi4 wall time for execution: 0:00:12.62

*** Psi4 exiting successfully. Buy a developer a beer!
