
    -----------------------------------------------------------------------
          Psi4: An Open-Source Ab Initio Electronic Structure Package
                               Psi4 1.3.2 release

                         Git: Rev {HEAD} ecbda83 


    R. M. Parrish, L. A. Burns, D. G. A. Smith, A. C. Simmonett,
    A. E. DePrince III, E. G. Hohenstein, U. Bozkaya, A. Yu. Sokolov,
    R. Di Remigio, R. M. Richard, J. F. Gonthier, A. M. James,
    H. R. McAlexander, A. Kumar, M. Saitow, X. Wang, B. P. Pritchard,
    P. Verma, H. F. Schaefer III, K. Patkowski, R. A. King, E. F. Valeev,
    F. A. Evangelista, J. M. Turney, T. D. Crawford, and C. D. Sherrill,
    J. Chem. Theory Comput. 13(7) pp 3185--3197 (2017).
    (doi: 10.1021/acs.jctc.7b00174)


                         Additional Contributions by
    P. Kraus, H. Kruse, M. H. Lechner, M. C. Schieber, R. A. Shaw,
    A. Alenaizan, R. Galvelis, Z. L. Glick, S. Lehtola, and J. P. Misiewicz

    -----------------------------------------------------------------------


    Psi4 started on: Tuesday, 03 November 2020 07:09PM

    Process ID: 30615
    Host:       node97.bme.utexas.edu
    PSIDATADIR: /home/xy3866/psi4conda/share/psi4
    Memory:     500.0 MiB
    Threads:    8
    
  ==> Input File <==

--------------------------------------------------------------------------
#psi4
#
memory 32 gb

molecule  {
0 1
  O        1.8172991    -0.0825177    -0.0001456
  C       -0.5611510    -0.4520200    -0.0000120
  C        0.6707050     0.3546130    -0.0000040
  C       -1.7652780     0.1406350     0.0001500
  H       -0.4438600    -1.5324100    -0.0001440
  H        0.5134400     1.4540710     0.0000460
  H       -2.6894370    -0.4270490     0.0001690
  H       -1.8565530     1.2241520     0.0002830
units angstrom
no_reorient  #important for SAPT in psi4, default
symmetry c1  #important for SAPT in psi4, default
}

set PROPERTIES_ORIGIN ["COM"]
properties('MP2/aug-cc-pvtz', properties = ['dipole'])
--------------------------------------------------------------------------

  Memory set to  29.802 GiB by Python driver.
    SCF Algorithm Type (re)set to DF.

*** tstart() called on node97.bme.utexas.edu
*** at Tue Nov  3 19:09:48 2020

   => Loading Basis Set <=

    Name: AUG-CC-PVTZ
    Role: ORBITAL
    Keyword: BASIS
    atoms 1   entry O          line   327 file /home/xy3866/psi4conda/share/psi4/basis/aug-cc-pvtz.gbs 
    atoms 2-4 entry C          line   235 file /home/xy3866/psi4conda/share/psi4/basis/aug-cc-pvtz.gbs 
    atoms 5-8 entry H          line    36 file /home/xy3866/psi4conda/share/psi4/basis/aug-cc-pvtz.gbs 


         ---------------------------------------------------------
                                   SCF
               by Justin Turney, Rob Parrish, Andy Simmonett
                          and Daniel G. A. Smith
                              RHF Reference
                        8 Threads,  30517 MiB Core
         ---------------------------------------------------------

  ==> Geometry <==

    Molecular point group: c1
    Full point group: C1

    Geometry (in Angstrom), charge = 0, multiplicity = 1:

       Center              X                  Y                   Z               Mass       
    ------------   -----------------  -----------------  -----------------  -----------------
         O            1.733634374278    -0.081147998067    -0.000139101444    15.994914619570
         C           -0.644815725722    -0.450650298067    -0.000005501444    12.000000000000
         C            0.587040274278     0.355982701933     0.000002498556    12.000000000000
         C           -1.848942725722     0.142004701933     0.000156498556    12.000000000000
         H           -0.527524725722    -1.531040298067    -0.000137501444     1.007825032230
         H            0.429775274278     1.455440701933     0.000052498556     1.007825032230
         H           -2.773101725722    -0.425679298067     0.000175498556     1.007825032230
         H           -1.940217725722     1.225521701933     0.000289498556     1.007825032230

  Running in c1 symmetry.

  Rotational constants: A =      1.60676  B =      0.15292  C =      0.13963 [cm^-1]
  Rotational constants: A =  48169.51564  B =   4584.42910  C =   4186.03254 [MHz]
  Nuclear repulsion =  102.475660413145036

  Charge       = 0
  Multiplicity = 1
  Electrons    = 30
  Nalpha       = 15
  Nbeta        = 15

  ==> Algorithm <==

  SCF Algorithm Type is DF.
  DIIS enabled.
  MOM disabled.
  Fractional occupation disabled.
  Guess Type is SAD.
  Energy threshold   = 1.00e-10
  Density threshold  = 1.00e-10
  Integral threshold = 0.00e+00

  ==> Primary Basis <==

  Basis Set: AUG-CC-PVTZ
    Blend: AUG-CC-PVTZ
    Number of shells: 92
    Number of basis function: 276
    Number of Cartesian functions: 320
    Spherical Harmonics?: true
    Max angular momentum: 3

   => Loading Basis Set <=

    Name: (AUG-CC-PVTZ AUX)
    Role: JKFIT
    Keyword: DF_BASIS_SCF
    atoms 1   entry O          line   286 file /home/xy3866/psi4conda/share/psi4/basis/aug-cc-pvtz-jkfit.gbs 
    atoms 2-4 entry C          line   162 file /home/xy3866/psi4conda/share/psi4/basis/aug-cc-pvtz-jkfit.gbs 
    atoms 5-8 entry H          line    70 file /home/xy3866/psi4conda/share/psi4/basis/aug-cc-pvtz-jkfit.gbs 

  ==> Pre-Iterations <==

   -------------------------------------------------------
    Irrep   Nso     Nmo     Nalpha   Nbeta   Ndocc  Nsocc
   -------------------------------------------------------
     A        276     276       0       0       0       0
   -------------------------------------------------------
    Total     276     276      15      15      15       0
   -------------------------------------------------------

  ==> Integral Setup <==

  DFHelper Memory: AOs need 0.359 GiB; user supplied 22.352 GiB. Using in-core AOs.

  ==> MemDFJK: Density-Fitted J/K Matrices <==

    J tasked:                   Yes
    K tasked:                   Yes
    wK tasked:                   No
    OpenMP threads:               8
    Memory [MiB]:             22888
    Algorithm:                 Core
    Schwarz Cutoff:           1E-12
    Mask sparsity (%):       1.0738
    Fitting Condition:        1E-10

   => Auxiliary Basis Set <=

  Basis Set: (AUG-CC-PVTZ AUX)
    Blend: AUG-CC-PVTZ-JKFIT
    Number of shells: 176
    Number of basis function: 600
    Number of Cartesian functions: 744
    Spherical Harmonics?: true
    Max angular momentum: 4

  Minimum eigenvalue in the overlap matrix is 7.6908880746E-06.
  Using Symmetric Orthogonalization.

  SCF Guess: Superposition of Atomic Densities via on-the-fly atomic UHF.

  ==> Iterations <==

                           Total Energy        Delta E     RMS |[F,P]|

   @DF-RHF iter SAD:  -189.74261776894508   -1.89743e+02   0.00000e+00 
   @DF-RHF iter   1:  -190.71731616001608   -9.74698e-01   1.73923e-03 DIIS
   @DF-RHF iter   2:  -190.79933913486599   -8.20230e-02   1.11740e-03 DIIS
   @DF-RHF iter   3:  -190.83100952834974   -3.16704e-02   2.10822e-04 DIIS
   @DF-RHF iter   4:  -190.83290831303964   -1.89878e-03   7.70071e-05 DIIS
   @DF-RHF iter   5:  -190.83321295700102   -3.04644e-04   1.43381e-05 DIIS
   @DF-RHF iter   6:  -190.83323538573359   -2.24287e-05   6.94935e-06 DIIS
   @DF-RHF iter   7:  -190.83324109520839   -5.70947e-06   3.58189e-06 DIIS
   @DF-RHF iter   8:  -190.83324232833854   -1.23313e-06   1.10128e-06 DIIS
   @DF-RHF iter   9:  -190.83324246710518   -1.38767e-07   3.67563e-07 DIIS
   @DF-RHF iter  10:  -190.83324248116401   -1.40588e-08   9.34055e-08 DIIS
   @DF-RHF iter  11:  -190.83324248214319   -9.79185e-10   1.86345e-08 DIIS
   @DF-RHF iter  12:  -190.83324248217855   -3.53566e-11   3.28820e-09 DIIS
   @DF-RHF iter  13:  -190.83324248217932   -7.67386e-13   9.78608e-10 DIIS
   @DF-RHF iter  14:  -190.83324248217914    1.70530e-13   2.84047e-10 DIIS
   @DF-RHF iter  15:  -190.83324248217951   -3.69482e-13   8.54695e-11 DIIS
  Energy and wave function converged.


  ==> Post-Iterations <==

    Orbital Energies [Eh]
    ---------------------

    Doubly Occupied:                                                      

       1A    -20.559955     2A    -11.340179     3A    -11.276675  
       4A    -11.262253     5A     -1.382629     6A     -1.090670  
       7A     -0.890293     8A     -0.788248     9A     -0.671976  
      10A     -0.667188    11A     -0.604022    12A     -0.562102  
      13A     -0.538343    14A     -0.433346    15A     -0.401999  

    Virtual:                                                              

      16A      0.024076    17A      0.035042    18A      0.042208  
      19A      0.057603    20A      0.060188    21A      0.080949  
      22A      0.090567    23A      0.106446    24A      0.107195  
      25A      0.117880    26A      0.122000    27A      0.128767  
      28A      0.132782    29A      0.139782    30A      0.157387  
      31A      0.175090    32A      0.194539    33A      0.204641  
      34A      0.229587    35A      0.235452    36A      0.238088  
      37A      0.250937    38A      0.264345    39A      0.270858  
      40A      0.285714    41A      0.287591    42A      0.299031  
      43A      0.311365    44A      0.329620    45A      0.330232  
      46A      0.337955    47A      0.365763    48A      0.372969  
      49A      0.383662    50A      0.402975    51A      0.404119  
      52A      0.404755    53A      0.411308    54A      0.416773  
      55A      0.436842    56A      0.451356    57A      0.458742  
      58A      0.459219    59A      0.466849    60A      0.476334  
      61A      0.494879    62A      0.500912    63A      0.517445  
      64A      0.536503    65A      0.553600    66A      0.590725  
      67A      0.597835    68A      0.605393    69A      0.623962  
      70A      0.628616    71A      0.655562    72A      0.682834  
      73A      0.704097    74A      0.711664    75A      0.753808  
      76A      0.759746    77A      0.788732    78A      0.814987  
      79A      0.822932    80A      0.835600    81A      0.844640  
      82A      0.851124    83A      0.864642    84A      0.870181  
      85A      0.883220    86A      0.893781    87A      0.899330  
      88A      0.907499    89A      0.921372    90A      0.926023  
      91A      0.945500    92A      0.955889    93A      0.968429  
      94A      0.977634    95A      0.981928    96A      1.014507  
      97A      1.014983    98A      1.029689    99A      1.031459  
     100A      1.038279   101A      1.059264   102A      1.061839  
     103A      1.072240   104A      1.092104   105A      1.108127  
     106A      1.114677   107A      1.117127   108A      1.135108  
     109A      1.170411   110A      1.171676   111A      1.180434  
     112A      1.218382   113A      1.229680   114A      1.266060  
     115A      1.274214   116A      1.293919   117A      1.302751  
     118A      1.357375   119A      1.379631   120A      1.418309  
     121A      1.432384   122A      1.436473   123A      1.450302  
     124A      1.453367   125A      1.514039   126A      1.546531  
     127A      1.546693   128A      1.582747   129A      1.590187  
     130A      1.637614   131A      1.657125   132A      1.678122  
     133A      1.717110   134A      1.727101   135A      1.738767  
     136A      1.755702   137A      1.767007   138A      1.769783  
     139A      1.788721   140A      1.820859   141A      1.831099  
     142A      1.853618   143A      1.897177   144A      1.908699  
     145A      1.918297   146A      1.950891   147A      1.955989  
     148A      2.034112   149A      2.038538   150A      2.088444  
     151A      2.122609   152A      2.128505   153A      2.134916  
     154A      2.189400   155A      2.198968   156A      2.214231  
     157A      2.289987   158A      2.292768   159A      2.349451  
     160A      2.368911   161A      2.386521   162A      2.443587  
     163A      2.454060   164A      2.509451   165A      2.576232  
     166A      2.591268   167A      2.610498   168A      2.666564  
     169A      2.686531   170A      2.729247   171A      2.763674  
     172A      2.849314   173A      2.874513   174A      3.004502  
     175A      3.017664   176A      3.030081   177A      3.122570  
     178A      3.145040   179A      3.176375   180A      3.223896  
     181A      3.227096   182A      3.244715   183A      3.311806  
     184A      3.322350   185A      3.342633   186A      3.384092  
     187A      3.390719   188A      3.414254   189A      3.454059  
     190A      3.494944   191A      3.502157   192A      3.539502  
     193A      3.552675   194A      3.565940   195A      3.626063  
     196A      3.629489   197A      3.634663   198A      3.719553  
     199A      3.775384   200A      3.781358   201A      3.800175  
     202A      3.800602   203A      3.850676   204A      3.860957  
     205A      3.941969   206A      3.942878   207A      3.948661  
     208A      3.997278   209A      4.051938   210A      4.099422  
     211A      4.107705   212A      4.138564   213A      4.144898  
     214A      4.199638   215A      4.208990   216A      4.231999  
     217A      4.301815   218A      4.321226   219A      4.325075  
     220A      4.356142   221A      4.432817   222A      4.467417  
     223A      4.486985   224A      4.531366   225A      4.640482  
     226A      4.646275   227A      4.743408   228A      4.752825  
     229A      4.755185   230A      4.784237   231A      4.787727  
     232A      4.864463   233A      4.897576   234A      4.904267  
     235A      4.971010   236A      4.983372   237A      5.067894  
     238A      5.080908   239A      5.132616   240A      5.149287  
     241A      5.185325   242A      5.246614   243A      5.249980  
     244A      5.321417   245A      5.360170   246A      5.383837  
     247A      5.422051   248A      5.471769   249A      5.528384  
     250A      5.621382   251A      5.730983   252A      5.893709  
     253A      5.959085   254A      6.173460   255A      6.246152  
     256A      6.379253   257A      6.436211   258A      6.629605  
     259A      6.633848   260A      6.674623   261A      6.750267  
     262A      6.813615   263A      6.938407   264A      7.019893  
     265A      7.122723   266A      7.298166   267A      7.311540  
     268A      7.585632   269A      7.622429   270A      7.710864  
     271A      7.792309   272A      7.873515   273A     15.345714  
     274A     16.460973   275A     17.296541   276A     18.364405  

    Final Occupation by Irrep:
              A 
    DOCC [    15 ]

  @DF-RHF Final Energy:  -190.83324248217951

   => Energetics <=

    Nuclear Repulsion Energy =            102.4756604131450359
    One-Electron Energy =                -461.6780480406226843
    Two-Electron Energy =                 168.3691451452981482
    Total Energy =                       -190.8332424821795144

Computation Completed

*** tstop() called on node97.bme.utexas.edu at Tue Nov  3 19:09:52 2020
Module time:
	user time   =      22.87 seconds =       0.38 minutes
	system time =       0.65 seconds =       0.01 minutes
	total time  =          4 seconds =       0.07 minutes
Total time:
	user time   =      22.87 seconds =       0.38 minutes
	system time =       0.65 seconds =       0.01 minutes
	total time  =          4 seconds =       0.07 minutes
   => Loading Basis Set <=

    Name: (AUG-CC-PVTZ AUX)
    Role: RIFIT
    Keyword: DF_BASIS_MP2
    atoms 1   entry O          line   264 file /home/xy3866/psi4conda/share/psi4/basis/aug-cc-pvtz-ri.gbs 
    atoms 2-4 entry C          line   148 file /home/xy3866/psi4conda/share/psi4/basis/aug-cc-pvtz-ri.gbs 
    atoms 5-8 entry H          line    30 file /home/xy3866/psi4conda/share/psi4/basis/aug-cc-pvtz-ri.gbs 


*** tstart() called on node97.bme.utexas.edu
*** at Tue Nov  3 19:09:52 2020


  //>>>>>>>>>>>>>>>>>>>>>>>>>>>>>>>>>>>//
  //               DFMP2               //
  //<<<<<<<<<<<<<<<<<<<<<<<<<<<<<<<<<<<//

	 --------------------------------------------------------
	                          DF-MP2                         
	      2nd-Order Density-Fitted Moller-Plesset Theory     
	              RMP2 Wavefunction,   8 Threads             
	                                                         
	        Rob Parrish, Justin Turney, Andy Simmonett,      
	           Ed Hohenstein, and C. David Sherrill          
	 --------------------------------------------------------

   => Auxiliary Basis Set <=

  Basis Set: (AUG-CC-PVTZ AUX)
    Blend: AUG-CC-PVTZ-RI
    Number of shells: 168
    Number of basis function: 608
    Number of Cartesian functions: 764
    Spherical Harmonics?: true
    Max angular momentum: 4

	 --------------------------------------------------------
	                 NBF =   276, NAUX =   608
	 --------------------------------------------------------
	   CLASS    FOCC     OCC    AOCC    AVIR     VIR    FVIR
	   PAIRS       0      15      15     261     261       0
	 --------------------------------------------------------

  DFHelper Memory: AOs need 0.359 GiB; user supplied 22.352 GiB. Using in-core AOs.


         ------------------------------------------------------------
                                     CPHF                           
                                  Rob Parrish                       
         ------------------------------------------------------------

  ==> Geometry <==

    Molecular point group: c1
    Full point group: C1

    Geometry (in Angstrom), charge = 0, multiplicity = 1:

       Center              X                  Y                   Z               Mass       
    ------------   -----------------  -----------------  -----------------  -----------------
         O            1.733634374278    -0.081147998067    -0.000139101444    15.994914619570
         C           -0.644815725722    -0.450650298067    -0.000005501444    12.000000000000
         C            0.587040274278     0.355982701933     0.000002498556    12.000000000000
         C           -1.848942725722     0.142004701933     0.000156498556    12.000000000000
         H           -0.527524725722    -1.531040298067    -0.000137501444     1.007825032230
         H            0.429775274278     1.455440701933     0.000052498556     1.007825032230
         H           -2.773101725722    -0.425679298067     0.000175498556     1.007825032230
         H           -1.940217725722     1.225521701933     0.000289498556     1.007825032230

  Nuclear repulsion =  102.475660413145036
  Reference energy  = -190.833242482179514

  ==> Basis Set <==

  Basis Set: AUG-CC-PVTZ
    Blend: AUG-CC-PVTZ
    Number of shells: 92
    Number of basis function: 276
    Number of Cartesian functions: 320
    Spherical Harmonics?: true
    Max angular momentum: 3

  ==> CGRSolver (by Rob Parrish) <==

   Number of roots    =         1
   Preconditioning    =    JACOBI
   Convergence cutoff =     1E-06
   Maximum iterations =       100

  ==> CPHFRHamiltonian (by Rob Parrish) <== 

  ==> MemDFJK: Density-Fitted J/K Matrices <==

    J tasked:                   Yes
    K tasked:                   Yes
    wK tasked:                   No
    OpenMP threads:               8
    Memory [MiB]:             22888
    Algorithm:                 Core
    Schwarz Cutoff:           1E-12
    Mask sparsity (%):       1.0738
    Fitting Condition:        1E-10

   => Auxiliary Basis Set <=

  Basis Set: (AUG-CC-PVTZ AUX)
    Blend: AUG-CC-PVTZ-JKFIT
    Number of shells: 176
    Number of basis function: 600
    Number of Cartesian functions: 744
    Spherical Harmonics?: true
    Max angular momentum: 4

  ==> CPHF Iterations <==

  => Iterations <=

             Iter  Converged  Remaining    Residual
  CGR           1          0          1   1.099E-01
  CGR           2          0          1   3.411E-02
  CGR           3          0          1   1.067E-02
  CGR           4          0          1   3.897E-03
  CGR           5          0          1   1.264E-03
  CGR           6          0          1   5.121E-04
  CGR           7          0          1   1.267E-04
  CGR           8          0          1   4.231E-05
  CGR           9          0          1   1.019E-05
  CGR          10          0          1   2.462E-06
  CGR          11          1          0   6.401E-07

    CGRSolver converged.

	-----------------------------------------------------------
	 ==================> DF-MP2 Energies <==================== 
	-----------------------------------------------------------
	 Reference Energy          =    -190.8332424821795144 [Eh]
	 Singles Energy            =      -0.0000000000000000 [Eh]
	 Same-Spin Energy          =      -0.1837399287761709 [Eh]
	 Opposite-Spin Energy      =      -0.6063397466688090 [Eh]
	 Correlation Energy        =      -0.7900796754449799 [Eh]
	 Total Energy              =    -191.6233221576245001 [Eh]
	-----------------------------------------------------------
	 ================> DF-SCS-MP2 Energies <================== 
	-----------------------------------------------------------
	 SCS Same-Spin Scale       =       0.3333333333333333 [-]
	 SCS Opposite-Spin Scale   =       1.2000000000000000 [-]
	 SCS Same-Spin Energy      =      -0.0612466429253903 [Eh]
	 SCS Opposite-Spin Energy  =      -0.7276076960025707 [Eh]
	 SCS Correlation Energy    =      -0.7888543389279610 [Eh]
	 SCS Total Energy          =    -191.6220968211074762 [Eh]
	-----------------------------------------------------------



Properties will be evaluated at  -0.000000,   0.000000,  -0.000000 [a0]

Properties computed using the MP2 density matrix

  Nuclear Dipole Moment: [e a0]
     X:    -4.5019      Y:     0.6786      Z:     0.0004

  Electronic Dipole Moment: [e a0]
     X:     3.2193      Y:    -0.4514      Z:    -0.0002

  Dipole Moment: [e a0]
     X:    -1.2826      Y:     0.2272      Z:     0.0001     Total:     1.3026

  Dipole Moment: [D]
     X:    -3.2601      Y:     0.5774      Z:     0.0003     Total:     3.3108


*** tstop() called on node97.bme.utexas.edu at Tue Nov  3 19:10:01 2020
Module time:
	user time   =      53.97 seconds =       0.90 minutes
	system time =       1.33 seconds =       0.02 minutes
	total time  =          9 seconds =       0.15 minutes
Total time:
	user time   =      77.48 seconds =       1.29 minutes
	system time =       2.00 seconds =       0.03 minutes
	total time  =         13 seconds =       0.22 minutes

    Psi4 stopped on: Tuesday, 03 November 2020 07:10PM
    Psi4 wall time for execution: 0:00:12.52

*** Psi4 exiting successfully. Buy a developer a beer!
