
    -----------------------------------------------------------------------
          Psi4: An Open-Source Ab Initio Electronic Structure Package
                               Psi4 1.4a3.dev225 

                         Git: Rev {master} 7105e37 


    D. G. A. Smith, L. A. Burns, A. C. Simmonett, R. M. Parrish,
    M. C. Schieber, R. Galvelis, P. Kraus, H. Kruse, R. Di Remigio,
    A. Alenaizan, A. M. James, S. Lehtola, J. P. Misiewicz, M. Scheurer,
    R. A. Shaw, J. B. Schriber, Y. Xie, Z. L. Glick, D. A. Sirianni,
    J. S. O'Brien, J. M. Waldrop, A. Kumar, E. G. Hohenstein,
    B. P. Pritchard, B. R. Brooks, H. F. Schaefer III, A. Yu. Sokolov,
    K. Patkowski, A. E. DePrince III, U. Bozkaya, R. A. King,
    F. A. Evangelista, J. M. Turney, T. D. Crawford, C. D. Sherrill,
    J. Chem. Phys. 152(18) 184108 (2020). https://doi.org/10.1063/5.0006002

                            Additional Code Authors
    E. T. Seidl, C. L. Janssen, E. F. Valeev, M. L. Leininger,
    J. F. Gonthier, R. M. Richard, H. R. McAlexander, M. Saitow, X. Wang,
    P. Verma, and M. H. Lechner

             Previous Authors, Complete List of Code Contributors,
                       and Citations for Specific Modules
    https://github.com/psi4/psi4/blob/master/codemeta.json
    https://github.com/psi4/psi4/graphs/contributors
    http://psicode.org/psi4manual/master/introduction.html#citing-psifour

    -----------------------------------------------------------------------


    Psi4 started on: Sunday, 28 February 2021 04:52PM

    Process ID: 221049
    Host:       c402-103.stampede2.tacc.utexas.edu
    PSIDATADIR: /home1/07844/xy3866/miniconda3/envs/p4env/share/psi4
    Memory:     500.0 MiB
    Threads:    32
    
  ==> Input File <==

--------------------------------------------------------------------------
#psi4
#
memory 32 gb

molecule  {
0 1
  O       -0.0000020    -0.6102900    -0.0000420
  C        0.9363500     0.4141040    -0.4566330
  C       -1.0149481     0.3929418     0.5924442
  C        0.0000010     1.5430250    -0.0000030
  C        2.2717190     0.2897090     0.2433650
  C       -2.2717330     0.2897190    -0.2433270
  C        2.9423460    -1.0479970    -0.0522250
  C       -2.9423440    -1.0480000     0.0522380
  H        1.0693000     0.3446630    -1.5460730
  H       -1.0692400     0.3446160     1.5460640
  H        0.4022720     2.1756970     0.7958000
  H       -0.4022820     2.1756850    -0.7958090
  H        2.1021510     0.3966190     1.3216110
  H        2.9117530     1.1256360    -0.0698640
  H       -2.1022070     0.3966710    -1.3215760
  H       -2.9117580     1.1256310     0.0699580
  H        2.2845910    -1.8662570     0.2495040
  H        3.1497060    -1.1530710    -1.1218230
  H        3.8888820    -1.1460650     0.4866090
  H       -3.1496440    -1.1531250     1.1218420
  H       -3.8889120    -1.1460430    -0.4865470
  H       -2.2846070    -1.8662470    -0.2495670
units angstrom
no_reorient  #important for SAPT in psi4, default
symmetry c1  #important for SAPT in psi4, default
}

set PROPERTIES_ORIGIN ["COM"]
properties('MP2/aug-cc-pvtz', properties = ['dipole'])
--------------------------------------------------------------------------

  Memory set to  29.802 GiB by Python driver.
    SCF Algorithm Type (re)set to DF.

*** tstart() called on c402-103.stampede2.tacc.utexas.edu
*** at Sun Feb 28 16:52:33 2021

   => Loading Basis Set <=

    Name: AUG-CC-PVTZ
    Role: ORBITAL
    Keyword: BASIS
    atoms 1    entry O          line   331 file /home1/07844/xy3866/miniconda3/envs/p4env/share/psi4/basis/aug-cc-pvtz.gbs 
    atoms 2-8  entry C          line   239 file /home1/07844/xy3866/miniconda3/envs/p4env/share/psi4/basis/aug-cc-pvtz.gbs 
    atoms 9-22 entry H          line    40 file /home1/07844/xy3866/miniconda3/envs/p4env/share/psi4/basis/aug-cc-pvtz.gbs 


         ---------------------------------------------------------
                                   SCF
               by Justin Turney, Rob Parrish, Andy Simmonett
                          and Daniel G. A. Smith
                              RHF Reference
                       32 Threads,  30517 MiB Core
         ---------------------------------------------------------

  ==> Geometry <==

    Molecular point group: c1
    Full point group: C1

    Geometry (in Angstrom), charge = 0, multiplicity = 1:

       Center              X                  Y                   Z               Mass       
    ------------   -----------------  -----------------  -----------------  -----------------
         O            0.008265302687    -0.610228419650    -0.014325127501    15.994914619570
         C            0.944617302687     0.414165580350    -0.470916127501    12.000000000000
         C           -1.006680797313     0.393003380350     0.578161072499    12.000000000000
         C            0.008268302687     1.543086580350    -0.014286127501    12.000000000000
         C            2.279986302687     0.289770580350     0.229081872499    12.000000000000
         C           -2.263465697313     0.289780580350    -0.257610127501    12.000000000000
         C            2.950613302687    -1.047935419650    -0.066508127501    12.000000000000
         C           -2.934076697313    -1.047938419650     0.037954872499    12.000000000000
         H            1.077567302687     0.344724580350    -1.560356127501     1.007825032230
         H           -1.060972697313     0.344677580350     1.531780872499     1.007825032230
         H            0.410539302687     2.175758580350     0.781516872499     1.007825032230
         H           -0.394014697313     2.175746580350    -0.810092127501     1.007825032230
         H            2.110418302687     0.396680580350     1.307327872499     1.007825032230
         H            2.920020302687     1.125697580350    -0.084147127501     1.007825032230
         H           -2.093939697313     0.396732580350    -1.335859127501     1.007825032230
         H           -2.903490697313     1.125692580350     0.055674872499     1.007825032230
         H            2.292858302687    -1.866195419650     0.235220872499     1.007825032230
         H            3.157973302687    -1.153009419650    -1.136106127501     1.007825032230
         H            3.897149302687    -1.146003419650     0.472325872499     1.007825032230
         H           -3.141376697313    -1.153063419650     1.107558872499     1.007825032230
         H           -3.880644697313    -1.145981419650    -0.500830127501     1.007825032230
         H           -2.276339697313    -1.866185419650    -0.263850127501     1.007825032230

  Running in c1 symmetry.

  Rotational constants: A =      0.14953  B =      0.03625  C =      0.03145 [cm^-1]
  Rotational constants: A =   4482.67565  B =   1086.65937  C =    942.92807 [MHz]
  Nuclear repulsion =  397.348292721056964

  Charge       = 0
  Multiplicity = 1
  Electrons    = 64
  Nalpha       = 32
  Nbeta        = 32

  ==> Algorithm <==

  SCF Algorithm Type is DF.
  DIIS enabled.
  MOM disabled.
  Fractional occupation disabled.
  Guess Type is SAD.
  Energy threshold   = 1.00e-10
  Density threshold  = 1.00e-10
  Integral threshold = 1.00e-12

  ==> Primary Basis <==

  Basis Set: AUG-CC-PVTZ
    Blend: AUG-CC-PVTZ
    Number of shells: 238
    Number of basis functions: 690
    Number of Cartesian functions: 790
    Spherical Harmonics?: true
    Max angular momentum: 3

   => Loading Basis Set <=

    Name: (AUG-CC-PVTZ AUX)
    Role: JKFIT
    Keyword: DF_BASIS_SCF
    atoms 1    entry O          line   286 file /home1/07844/xy3866/miniconda3/envs/p4env/share/psi4/basis/aug-cc-pvtz-jkfit.gbs 
    atoms 2-8  entry C          line   162 file /home1/07844/xy3866/miniconda3/envs/p4env/share/psi4/basis/aug-cc-pvtz-jkfit.gbs 
    atoms 9-22 entry H          line    70 file /home1/07844/xy3866/miniconda3/envs/p4env/share/psi4/basis/aug-cc-pvtz-jkfit.gbs 

  ==> Integral Setup <==

  DFHelper Memory: AOs need 4.941 GiB; user supplied 22.352 GiB. Using in-core AOs.

  ==> MemDFJK: Density-Fitted J/K Matrices <==

    J tasked:                   Yes
    K tasked:                   Yes
    wK tasked:                   No
    OpenMP threads:              32
    Memory [MiB]:             22888
    Algorithm:                 Core
    Schwarz Cutoff:           1E-12
    Mask sparsity (%):       9.9429
    Fitting Condition:        1E-10

   => Auxiliary Basis Set <=

  Basis Set: (AUG-CC-PVTZ AUX)
    Blend: AUG-CC-PVTZ-JKFIT
    Number of shells: 436
    Number of basis functions: 1476
    Number of Cartesian functions: 1818
    Spherical Harmonics?: true
    Max angular momentum: 4

  Minimum eigenvalue in the overlap matrix is 2.9140700627E-06.
  Reciprocal condition number of the overlap matrix is 1.3524317086E-07.
    Using symmetric orthogonalization.

  ==> Pre-Iterations <==

  SCF Guess: Superposition of Atomic Densities via on-the-fly atomic UHF (no occupation information).

   -------------------------
    Irrep   Nso     Nmo    
   -------------------------
     A        690     690 
   -------------------------
    Total     690     690
   -------------------------

  ==> Iterations <==

                           Total Energy        Delta E     RMS |[F,P]|

   @DF-RHF iter SAD:  -347.52010840027464   -3.47520e+02   0.00000e+00 
   @DF-RHF iter   1:  -347.83131197013711   -3.11204e-01   1.04424e-03 DIIS
   @DF-RHF iter   2:  -348.09426312462188   -2.62951e-01   4.95089e-04 DIIS
   @DF-RHF iter   3:  -348.14904775365244   -5.47846e-02   1.10007e-04 DIIS
   @DF-RHF iter   4:  -348.15309407203648   -4.04632e-03   4.91015e-05 DIIS
   @DF-RHF iter   5:  -348.15365148512200   -5.57413e-04   8.46717e-06 DIIS
   @DF-RHF iter   6:  -348.15367890289201   -2.74178e-05   2.11775e-06 DIIS
   @DF-RHF iter   7:  -348.15368072841102   -1.82552e-06   5.34581e-07 DIIS
   @DF-RHF iter   8:  -348.15368085058680   -1.22176e-07   1.34972e-07 DIIS
   @DF-RHF iter   9:  -348.15368086091951   -1.03327e-08   3.80090e-08 DIIS
   @DF-RHF iter  10:  -348.15368086186072   -9.41213e-10   1.46038e-08 DIIS
   @DF-RHF iter  11:  -348.15368086198299   -1.22270e-10   5.20370e-09 DIIS
   @DF-RHF iter  12:  -348.15368086200095   -1.79625e-11   1.67228e-09 DIIS
   @DF-RHF iter  13:  -348.15368086200237   -1.42109e-12   5.88945e-10 DIIS
   @DF-RHF iter  14:  -348.15368086200300   -6.25278e-13   2.03125e-10 DIIS
   @DF-RHF iter  15:  -348.15368086200300    0.00000e+00   5.72937e-11 DIIS
  Energy and wave function converged.


  ==> Post-Iterations <==

    Orbital Energies [Eh]
    ---------------------

    Doubly Occupied:                                                      

       1A    -20.531783     2A    -11.276568     3A    -11.271338  
       4A    -11.229310     5A    -11.223167     6A    -11.215929  
       7A    -11.207273     8A    -11.204909     9A     -1.334197  
      10A     -1.061772    11A     -1.042375    12A     -0.980264  
      13A     -0.917215    14A     -0.844881    15A     -0.816328  
      16A     -0.750949    17A     -0.664899    18A     -0.652351  
      19A     -0.602872    20A     -0.598225    21A     -0.583376  
      22A     -0.571160    23A     -0.543391    24A     -0.521823  
      25A     -0.516478    26A     -0.498927    27A     -0.493334  
      28A     -0.485257    29A     -0.476029    30A     -0.434045  
      31A     -0.416247    32A     -0.402530  

    Virtual:                                                              

      33A      0.028327    34A      0.034213    35A      0.034241  
      36A      0.036565    37A      0.047432    38A      0.049044  
      39A      0.052421    40A      0.057259    41A      0.057454  
      42A      0.071998    43A      0.072191    44A      0.074932  
      45A      0.079441    46A      0.080380    47A      0.109970  
      48A      0.111644    49A      0.112135    50A      0.123107  
      51A      0.123691    52A      0.127796    53A      0.128331  
      54A      0.132883    55A      0.136262    56A      0.137539  
      57A      0.140307    58A      0.148305    59A      0.151016  
      60A      0.154639    61A      0.158074    62A      0.160140  
      63A      0.168824    64A      0.173648    65A      0.176172  
      66A      0.178071    67A      0.186476    68A      0.188222  
      69A      0.204079    70A      0.216859    71A      0.225087  
      72A      0.228295    73A      0.233636    74A      0.238969  
      75A      0.242335    76A      0.249206    77A      0.253160  
      78A      0.257379    79A      0.257857    80A      0.277732  
      81A      0.282239    82A      0.290311    83A      0.294835  
      84A      0.297822    85A      0.300674    86A      0.304785  
      87A      0.320301    88A      0.324195    89A      0.325978  
      90A      0.329460    91A      0.330923    92A      0.336491  
      93A      0.344944    94A      0.351386    95A      0.353529  
      96A      0.357864    97A      0.361636    98A      0.362479  
      99A      0.364754   100A      0.371100   101A      0.372319  
     102A      0.374822   103A      0.384830   104A      0.385627  
     105A      0.388761   106A      0.399217   107A      0.401067  
     108A      0.404121   109A      0.406853   110A      0.409811  
     111A      0.418921   112A      0.423016   113A      0.429220  
     114A      0.431988   115A      0.437406   116A      0.444063  
     117A      0.445241   118A      0.452145   119A      0.454040  
     120A      0.458608   121A      0.461472   122A      0.466788  
     123A      0.468766   124A      0.469832   125A      0.473405  
     126A      0.481210   127A      0.485957   128A      0.488984  
     129A      0.494459   130A      0.499081   131A      0.504371  
     132A      0.505679   133A      0.509386   134A      0.511678  
     135A      0.519479   136A      0.526752   137A      0.532168  
     138A      0.538143   139A      0.545366   140A      0.547631  
     141A      0.550101   142A      0.552480   143A      0.555297  
     144A      0.557897   145A      0.564544   146A      0.574154  
     147A      0.577696   148A      0.586841   149A      0.589517  
     150A      0.595452   151A      0.597769   152A      0.603839  
     153A      0.609147   154A      0.611815   155A      0.618475  
     156A      0.622730   157A      0.630231   158A      0.634146  
     159A      0.639614   160A      0.640594   161A      0.644966  
     162A      0.650972   163A      0.656083   164A      0.670365  
     165A      0.673621   166A      0.676652   167A      0.685262  
     168A      0.697139   169A      0.698599   170A      0.712096  
     171A      0.722066   172A      0.727835   173A      0.733670  
     174A      0.736566   175A      0.754759   176A      0.766971  
     177A      0.773629   178A      0.795302   179A      0.807184  
     180A      0.811895   181A      0.814016   182A      0.818217  
     183A      0.835318   184A      0.839183   185A      0.849737  
     186A      0.855020   187A      0.858503   188A      0.860884  
     189A      0.868467   190A      0.872084   191A      0.876190  
     192A      0.887846   193A      0.892852   194A      0.901807  
     195A      0.909301   196A      0.913836   197A      0.916050  
     198A      0.920699   199A      0.922732   200A      0.930608  
     201A      0.936879   202A      0.940220   203A      0.941133  
     204A      0.947834   205A      0.949199   206A      0.954978  
     207A      0.958570   208A      0.967691   209A      0.978023  
     210A      0.986344   211A      0.990043   212A      0.993823  
     213A      0.996808   214A      1.001242   215A      1.009884  
     216A      1.014320   217A      1.028987   218A      1.031367  
     219A      1.042269   220A      1.046444   221A      1.050650  
     222A      1.058990   223A      1.062472   224A      1.069056  
     225A      1.077497   226A      1.082230   227A      1.088032  
     228A      1.091746   229A      1.093867   230A      1.098435  
     231A      1.103913   232A      1.108757   233A      1.122481  
     234A      1.129987   235A      1.135020   236A      1.140345  
     237A      1.146304   238A      1.149473   239A      1.161583  
     240A      1.162485   241A      1.166105   242A      1.171251  
     243A      1.180689   244A      1.185708   245A      1.194460  
     246A      1.197911   247A      1.201272   248A      1.204300  
     249A      1.207852   250A      1.217733   251A      1.227832  
     252A      1.233902   253A      1.236236   254A      1.243548  
     255A      1.257987   256A      1.267104   257A      1.269099  
     258A      1.272416   259A      1.282467   260A      1.288789  
     261A      1.290856   262A      1.295018   263A      1.296229  
     264A      1.301919   265A      1.313533   266A      1.318716  
     267A      1.324702   268A      1.340999   269A      1.344813  
     270A      1.347448   271A      1.349962   272A      1.360464  
     273A      1.362278   274A      1.394155   275A      1.399345  
     276A      1.407805   277A      1.417770   278A      1.422362  
     279A      1.436448   280A      1.439242   281A      1.447618  
     282A      1.457283   283A      1.462510   284A      1.470784  
     285A      1.476818   286A      1.481644   287A      1.490384  
     288A      1.499942   289A      1.512771   290A      1.523343  
     291A      1.532526   292A      1.544178   293A      1.549349  
     294A      1.560285   295A      1.568561   296A      1.573258  
     297A      1.579354   298A      1.591204   299A      1.592775  
     300A      1.599335   301A      1.619686   302A      1.622429  
     303A      1.624529   304A      1.641613   305A      1.646791  
     306A      1.653976   307A      1.665718   308A      1.675591  
     309A      1.677661   310A      1.683188   311A      1.689163  
     312A      1.691439   313A      1.698208   314A      1.714410  
     315A      1.720779   316A      1.723348   317A      1.726838  
     318A      1.732257   319A      1.734733   320A      1.737135  
     321A      1.746749   322A      1.750566   323A      1.755273  
     324A      1.757451   325A      1.774661   326A      1.776726  
     327A      1.779625   328A      1.797090   329A      1.807599  
     330A      1.817084   331A      1.822189   332A      1.834676  
     333A      1.840150   334A      1.842477   335A      1.851538  
     336A      1.858244   337A      1.862655   338A      1.877213  
     339A      1.884168   340A      1.890256   341A      1.899489  
     342A      1.907709   343A      1.925014   344A      1.926847  
     345A      1.933996   346A      1.945433   347A      1.951808  
     348A      1.966036   349A      1.971328   350A      1.976115  
     351A      1.988273   352A      1.997436   353A      2.006238  
     354A      2.013938   355A      2.025183   356A      2.031248  
     357A      2.036488   358A      2.041858   359A      2.045933  
     360A      2.055501   361A      2.062150   362A      2.067354  
     363A      2.081350   364A      2.092260   365A      2.096950  
     366A      2.106570   367A      2.124373   368A      2.140692  
     369A      2.150276   370A      2.154338   371A      2.160845  
     372A      2.174179   373A      2.174884   374A      2.185345  
     375A      2.193648   376A      2.203031   377A      2.219667  
     378A      2.223956   379A      2.239102   380A      2.255537  
     381A      2.266887   382A      2.281740   383A      2.286768  
     384A      2.287513   385A      2.302348   386A      2.303752  
     387A      2.315753   388A      2.316909   389A      2.329757  
     390A      2.351530   391A      2.365739   392A      2.374080  
     393A      2.381154   394A      2.390143   395A      2.400721  
     396A      2.412344   397A      2.424145   398A      2.437933  
     399A      2.443943   400A      2.455319   401A      2.464902  
     402A      2.475068   403A      2.489544   404A      2.507234  
     405A      2.527086   406A      2.551371   407A      2.566872  
     408A      2.575875   409A      2.605225   410A      2.610248  
     411A      2.629505   412A      2.643183   413A      2.660760  
     414A      2.673225   415A      2.712418   416A      2.766132  
     417A      2.791094   418A      2.806083   419A      2.835134  
     420A      2.849826   421A      2.869991   422A      2.903982  
     423A      2.936807   424A      2.961074   425A      2.982817  
     426A      3.050556   427A      3.058122   428A      3.077541  
     429A      3.112687   430A      3.138799   431A      3.171066  
     432A      3.177004   433A      3.201018   434A      3.231251  
     435A      3.246208   436A      3.270449   437A      3.316651  
     438A      3.350175   439A      3.364992   440A      3.401307  
     441A      3.428947   442A      3.446049   443A      3.449849  
     444A      3.469774   445A      3.472617   446A      3.496164  
     447A      3.507203   448A      3.525379   449A      3.534391  
     450A      3.550095   451A      3.560339   452A      3.568764  
     453A      3.588195   454A      3.592533   455A      3.608841  
     456A      3.628657   457A      3.641860   458A      3.649356  
     459A      3.663123   460A      3.669335   461A      3.682952  
     462A      3.691083   463A      3.703313   464A      3.719444  
     465A      3.721901   466A      3.732406   467A      3.741280  
     468A      3.749857   469A      3.752053   470A      3.776858  
     471A      3.781640   472A      3.793303   473A      3.800474  
     474A      3.808152   475A      3.820824   476A      3.834561  
     477A      3.844456   478A      3.860286   479A      3.871812  
     480A      3.881136   481A      3.892501   482A      3.897848  
     483A      3.908785   484A      3.911126   485A      3.931378  
     486A      3.943916   487A      3.951534   488A      3.957670  
     489A      3.963726   490A      3.968609   491A      3.986396  
     492A      3.995962   493A      4.000972   494A      4.003809  
     495A      4.011244   496A      4.017079   497A      4.019672  
     498A      4.038462   499A      4.040906   500A      4.050380  
     501A      4.066473   502A      4.075100   503A      4.093297  
     504A      4.099455   505A      4.107714   506A      4.117535  
     507A      4.134717   508A      4.153075   509A      4.167281  
     510A      4.170273   511A      4.184624   512A      4.199973  
     513A      4.206471   514A      4.225754   515A      4.231763  
     516A      4.241957   517A      4.249158   518A      4.252948  
     519A      4.263392   520A      4.283418   521A      4.292959  
     522A      4.299490   523A      4.309650   524A      4.315561  
     525A      4.338659   526A      4.352036   527A      4.354005  
     528A      4.370870   529A      4.385781   530A      4.393501  
     531A      4.410076   532A      4.421408   533A      4.433942  
     534A      4.442020   535A      4.468289   536A      4.469823  
     537A      4.483109   538A      4.493236   539A      4.511680  
     540A      4.536384   541A      4.539005   542A      4.549320  
     543A      4.551065   544A      4.571432   545A      4.591472  
     546A      4.613848   547A      4.620239   548A      4.633807  
     549A      4.647870   550A      4.659059   551A      4.669780  
     552A      4.678370   553A      4.688933   554A      4.706369  
     555A      4.712887   556A      4.728956   557A      4.736279  
     558A      4.749686   559A      4.757756   560A      4.781366  
     561A      4.808348   562A      4.821792   563A      4.831589  
     564A      4.846713   565A      4.856551   566A      4.875948  
     567A      4.882546   568A      4.893719   569A      4.904615  
     570A      4.926744   571A      4.930437   572A      4.952091  
     573A      4.955886   574A      4.971296   575A      4.988721  
     576A      5.007471   577A      5.011144   578A      5.018709  
     579A      5.050125   580A      5.074946   581A      5.082951  
     582A      5.094441   583A      5.104181   584A      5.119011  
     585A      5.144745   586A      5.154031   587A      5.182605  
     588A      5.192213   589A      5.196921   590A      5.216156  
     591A      5.225996   592A      5.233375   593A      5.239369  
     594A      5.255365   595A      5.262002   596A      5.291347  
     597A      5.302294   598A      5.312636   599A      5.317800  
     600A      5.330121   601A      5.335683   602A      5.352558  
     603A      5.368514   604A      5.377852   605A      5.385106  
     606A      5.407993   607A      5.415333   608A      5.440952  
     609A      5.447729   610A      5.459312   611A      5.468039  
     612A      5.471331   613A      5.477176   614A      5.501188  
     615A      5.531118   616A      5.560330   617A      5.570947  
     618A      5.582199   619A      5.606200   620A      5.618623  
     621A      5.634702   622A      5.655803   623A      5.668430  
     624A      5.680870   625A      5.690112   626A      5.694909  
     627A      5.725330   628A      5.747566   629A      5.758685  
     630A      5.781223   631A      5.791440   632A      5.824520  
     633A      5.848166   634A      5.877057   635A      5.884068  
     636A      5.909264   637A      5.933555   638A      5.955308  
     639A      6.001766   640A      6.018296   641A      6.039603  
     642A      6.074406   643A      6.116422   644A      6.136166  
     645A      6.156107   646A      6.183638   647A      6.202300  
     648A      6.211293   649A      6.230356   650A      6.248871  
     651A      6.256813   652A      6.280809   653A      6.324571  
     654A      6.370393   655A      6.411298   656A      6.439664  
     657A      6.491340   658A      6.568603   659A      6.645646  
     660A      6.658564   661A      6.703028   662A      6.724404  
     663A      6.778270   664A      6.780137   665A      6.787962  
     666A      6.853001   667A      6.871482   668A      6.936500  
     669A      6.959626   670A      6.992255   671A      7.130187  
     672A      7.196165   673A      7.275137   674A      7.360529  
     675A      7.407667   676A      7.532475   677A      7.607511  
     678A      7.851108   679A      7.948468   680A      8.032651  
     681A      8.215702   682A      8.453080   683A     16.099065  
     684A     17.928662   685A     17.964501   686A     17.966056  
     687A     18.636123   688A     19.305149   689A     19.363547  
     690A     20.219673  

    Final Occupation by Irrep:
              A 
    DOCC [    32 ]

  @DF-RHF Final Energy:  -348.15368086200300

   => Energetics <=

    Nuclear Repulsion Energy =            397.3482927210569642
    One-Electron Energy =               -1260.2655441959468590
    Two-Electron Energy =                 514.7635706128868378
    Total Energy =                       -348.1536808620030570

Computation Completed

*** tstop() called on c402-103.stampede2.tacc.utexas.edu at Sun Feb 28 16:53:09 2021
Module time:
	user time   =     602.03 seconds =      10.03 minutes
	system time =      41.73 seconds =       0.70 minutes
	total time  =         36 seconds =       0.60 minutes
Total time:
	user time   =     602.03 seconds =      10.03 minutes
	system time =      41.73 seconds =       0.70 minutes
	total time  =         36 seconds =       0.60 minutes
   => Loading Basis Set <=

    Name: (AUG-CC-PVTZ AUX)
    Role: RIFIT
    Keyword: DF_BASIS_MP2
    atoms 1    entry O          line   264 file /home1/07844/xy3866/miniconda3/envs/p4env/share/psi4/basis/aug-cc-pvtz-ri.gbs 
    atoms 2-8  entry C          line   148 file /home1/07844/xy3866/miniconda3/envs/p4env/share/psi4/basis/aug-cc-pvtz-ri.gbs 
    atoms 9-22 entry H          line    30 file /home1/07844/xy3866/miniconda3/envs/p4env/share/psi4/basis/aug-cc-pvtz-ri.gbs 


*** tstart() called on c402-103.stampede2.tacc.utexas.edu
*** at Sun Feb 28 16:53:10 2021


  //>>>>>>>>>>>>>>>>>>>>>>>>>>>>>>>>>>>//
  //               DFMP2               //
  //<<<<<<<<<<<<<<<<<<<<<<<<<<<<<<<<<<<//

	 --------------------------------------------------------
	                          DF-MP2                         
	      2nd-Order Density-Fitted Moller-Plesset Theory     
	              RMP2 Wavefunction,  32 Threads             
	                                                         
	        Rob Parrish, Justin Turney, Andy Simmonett,      
	           Ed Hohenstein, and C. David Sherrill          
	 --------------------------------------------------------

   => Auxiliary Basis Set <=

  Basis Set: (AUG-CC-PVTZ AUX)
    Blend: AUG-CC-PVTZ-RI
    Number of shells: 420
    Number of basis functions: 1492
    Number of Cartesian functions: 1858
    Spherical Harmonics?: true
    Max angular momentum: 4

	 --------------------------------------------------------
	                 NBF =   690, NAUX =  1492
	 --------------------------------------------------------
	   CLASS    FOCC     OCC    AOCC    AVIR     VIR    FVIR
	   PAIRS       0      32      32     658     658       0
	 --------------------------------------------------------

  DFHelper Memory: AOs need 5.145 GiB; user supplied 22.352 GiB. Using in-core AOs.


         ------------------------------------------------------------
                                     CPHF                           
                                  Rob Parrish                       
         ------------------------------------------------------------

  ==> Geometry <==

    Molecular point group: c1
    Full point group: C1

    Geometry (in Angstrom), charge = 0, multiplicity = 1:

       Center              X                  Y                   Z               Mass       
    ------------   -----------------  -----------------  -----------------  -----------------
         O            0.008265302687    -0.610228419650    -0.014325127501    15.994914619570
         C            0.944617302687     0.414165580350    -0.470916127501    12.000000000000
         C           -1.006680797313     0.393003380350     0.578161072499    12.000000000000
         C            0.008268302687     1.543086580350    -0.014286127501    12.000000000000
         C            2.279986302687     0.289770580350     0.229081872499    12.000000000000
         C           -2.263465697313     0.289780580350    -0.257610127501    12.000000000000
         C            2.950613302687    -1.047935419650    -0.066508127501    12.000000000000
         C           -2.934076697313    -1.047938419650     0.037954872499    12.000000000000
         H            1.077567302687     0.344724580350    -1.560356127501     1.007825032230
         H           -1.060972697313     0.344677580350     1.531780872499     1.007825032230
         H            0.410539302687     2.175758580350     0.781516872499     1.007825032230
         H           -0.394014697313     2.175746580350    -0.810092127501     1.007825032230
         H            2.110418302687     0.396680580350     1.307327872499     1.007825032230
         H            2.920020302687     1.125697580350    -0.084147127501     1.007825032230
         H           -2.093939697313     0.396732580350    -1.335859127501     1.007825032230
         H           -2.903490697313     1.125692580350     0.055674872499     1.007825032230
         H            2.292858302687    -1.866195419650     0.235220872499     1.007825032230
         H            3.157973302687    -1.153009419650    -1.136106127501     1.007825032230
         H            3.897149302687    -1.146003419650     0.472325872499     1.007825032230
         H           -3.141376697313    -1.153063419650     1.107558872499     1.007825032230
         H           -3.880644697313    -1.145981419650    -0.500830127501     1.007825032230
         H           -2.276339697313    -1.866185419650    -0.263850127501     1.007825032230

  Nuclear repulsion =  397.348292721056964
  Reference energy  = -348.153680862003000

  ==> Basis Set <==

  Basis Set: AUG-CC-PVTZ
    Blend: AUG-CC-PVTZ
    Number of shells: 238
    Number of basis functions: 690
    Number of Cartesian functions: 790
    Spherical Harmonics?: true
    Max angular momentum: 3

  ==> CGRSolver (by Rob Parrish) <==

   Number of roots    =         1
   Preconditioning    =    JACOBI
   Convergence cutoff =     1E-06
   Maximum iterations =       100

  ==> CPHFRHamiltonian (by Rob Parrish) <== 

  ==> MemDFJK: Density-Fitted J/K Matrices <==

    J tasked:                   Yes
    K tasked:                   Yes
    wK tasked:                   No
    OpenMP threads:              32
    Memory [MiB]:             22888
    Algorithm:                 Core
    Schwarz Cutoff:           1E-12
    Mask sparsity (%):       6.0344
    Fitting Condition:        1E-10

   => Auxiliary Basis Set <=

  Basis Set: (AUG-CC-PVTZ AUX)
    Blend: AUG-CC-PVTZ-JKFIT
    Number of shells: 436
    Number of basis functions: 1476
    Number of Cartesian functions: 1818
    Spherical Harmonics?: true
    Max angular momentum: 4

  ==> CPHF Iterations <==

  => Iterations <=

             Iter  Converged  Remaining    Residual
  CGR           1          0          1   9.410E-02
  CGR           2          0          1   2.232E-02
  CGR           3          0          1   7.569E-03
  CGR           4          0          1   2.149E-03
  CGR           5          0          1   7.217E-04
  CGR           6          0          1   2.614E-04
  CGR           7          0          1   7.718E-05
  CGR           8          0          1   2.574E-05
  CGR           9          0          1   8.558E-06
  CGR          10          0          1   2.701E-06
  CGR          11          1          0   6.451E-07

    CGRSolver converged.

	-----------------------------------------------------------
	 ==================> DF-MP2 Energies <==================== 
	-----------------------------------------------------------
	 Reference Energy          =    -348.1536808620030001 [Eh]
	 Singles Energy            =      -0.0000000000000000 [Eh]
	 Same-Spin Energy          =      -0.3611148412653943 [Eh]
	 Opposite-Spin Energy      =      -1.2643351240219254 [Eh]
	 Correlation Energy        =      -1.6254499652873198 [Eh]
	 Total Energy              =    -349.7791308272903166 [Eh]
	-----------------------------------------------------------
	 ================> DF-SCS-MP2 Energies <================== 
	-----------------------------------------------------------
	 SCS Same-Spin Scale       =       0.3333333333333333 [-]
	 SCS Opposite-Spin Scale   =       1.2000000000000000 [-]
	 SCS Same-Spin Energy      =      -0.1203716137551314 [Eh]
	 SCS Opposite-Spin Energy  =      -1.5172021488263103 [Eh]
	 SCS Correlation Energy    =      -1.6375737625814417 [Eh]
	 SCS Total Energy          =    -349.7912546245844396 [Eh]
	-----------------------------------------------------------



Properties will be evaluated at  -0.000000,   0.000000,   0.000000 [a0]

Properties computed using the MP2 density matrix

  Nuclear Dipole Moment: [e a0]
     X:     0.1085      Y:    -0.2324      Z:    -0.1874

  Electronic Dipole Moment: [e a0]
     X:    -0.2262      Y:     0.9153      Z:     0.2595

  Dipole Moment: [e a0]
     X:    -0.1177      Y:     0.6829      Z:     0.0721     Total:     0.6967

  Dipole Moment: [D]
     X:    -0.2991      Y:     1.7358      Z:     0.1832     Total:     1.7709


*** tstop() called on c402-103.stampede2.tacc.utexas.edu at Sun Feb 28 16:56:27 2021
Module time:
	user time   =    1855.80 seconds =      30.93 minutes
	system time =      58.01 seconds =       0.97 minutes
	total time  =        197 seconds =       3.28 minutes
Total time:
	user time   =    2458.89 seconds =      40.98 minutes
	system time =      99.76 seconds =       1.66 minutes
	total time  =        234 seconds =       3.90 minutes

    Psi4 stopped on: Sunday, 28 February 2021 04:56PM
    Psi4 wall time for execution: 0:03:54.78

*** Psi4 exiting successfully. Buy a developer a beer!
