137239                                                                  
Freq      RMP2-FC                                                     6-31G(d)            
Number of atoms                            I               29
Info1-9                                    I   N=           9
          41          39        1002           0           0         100
           6           2           1
Charge                                     I                0
Multiplicity                               I                1
Number of electrons                        I              112
Number of alpha electrons                  I               56
Number of beta electrons                   I               56
Number of basis functions                  I              266
Number of independent functions            I              266
Number of point charges in /Mol/           I                0
Number of translation vectors              I                0
Atomic numbers                             I   N=          29
           8           7           6           6           6           6
           6           6           6           6           6           6
           6           6           6           6           1           1
           1           1           1           1           1           1
           1           1           1           1           1
Nuclear charges                            R   N=          29
  8.00000000E+00  7.00000000E+00  6.00000000E+00  6.00000000E+00  6.00000000E+00
  6.00000000E+00  6.00000000E+00  6.00000000E+00  6.00000000E+00  6.00000000E+00
  6.00000000E+00  6.00000000E+00  6.00000000E+00  6.00000000E+00  6.00000000E+00
  6.00000000E+00  1.00000000E+00  1.00000000E+00  1.00000000E+00  1.00000000E+00
  1.00000000E+00  1.00000000E+00  1.00000000E+00  1.00000000E+00  1.00000000E+00
  1.00000000E+00  1.00000000E+00  1.00000000E+00  1.00000000E+00
Current cartesian coordinates              R   N=          87
 -1.22734341E-01 -3.78086966E+00 -8.64023908E-01  4.64375395E+00 -2.78721271E+00
  7.63148525E-01  1.53062333E+00  3.97801266E-01 -4.08335348E-01  4.06771331E+00
 -3.29549587E-01  1.50641655E-01 -5.27227066E-01 -1.49260331E+00 -4.94311011E-01
 -3.19665916E+00 -6.51907781E-01 -1.11468768E-01  1.00977681E+00  2.92130033E+00
 -1.06370756E+00  5.92702599E+00  1.58008717E+00  2.22961850E-01  2.88695887E+00
  4.75727640E+00 -1.06099813E+00  5.34855892E+00  4.06582605E+00 -4.01141341E-01
 -3.84305812E+00  1.21010304E+00  1.66193499E+00 -5.10486877E+00 -1.92033534E+00
 -1.44185476E+00 -6.37891130E+00  1.80572745E+00  2.07399057E+00 -7.63020707E+00
 -1.28544603E+00 -1.05404462E+00  7.23306680E+00 -3.63619759E+00  1.00495731E+00
 -8.27306464E+00  5.77679845E-01  7.05935084E-01 -9.06011413E-01  3.42721668E+00
 -1.60069007E+00  7.86448363E+00  1.09439658E+00  6.88117808E-01  3.36390305E+00
 -4.05556400E+00  1.07412978E-01  2.44884397E+00  6.69082621E+00 -1.59448675E+00
  6.84160704E+00  5.47929007E+00 -3.63958459E-01 -2.37004589E+00  2.14922074E+00
  2.74235815E+00 -4.57421386E+00 -3.39834446E+00 -2.76589564E+00 -6.87756963E+00
  3.23023189E+00  3.46864590E+00 -9.10310915E+00 -2.25170852E+00 -2.11219737E+00
  8.37750833E+00 -3.24704777E+00 -6.84812137E-01  7.20682854E+00 -5.67282358E+00
  1.32748277E+00  8.15071992E+00 -2.74795491E+00  2.63181909E+00 -1.02457149E+01
  1.06113577E+00  1.01899575E+00
Force Field                                I                0
Int Atom Types                             I   N=          29
           0           0           0           0           0           0
           0           0           0           0           0           0
           0           0           0           0           0           0
           0           0           0           0           0           0
           0           0           0           0           0
MM charges                                 R   N=          29
  0.00000000E+00  0.00000000E+00  0.00000000E+00  0.00000000E+00  0.00000000E+00
  0.00000000E+00  0.00000000E+00  0.00000000E+00  0.00000000E+00  0.00000000E+00
  0.00000000E+00  0.00000000E+00  0.00000000E+00  0.00000000E+00  0.00000000E+00
  0.00000000E+00  0.00000000E+00  0.00000000E+00  0.00000000E+00  0.00000000E+00
  0.00000000E+00  0.00000000E+00  0.00000000E+00  0.00000000E+00  0.00000000E+00
  0.00000000E+00  0.00000000E+00  0.00000000E+00  0.00000000E+00
Integer atomic weights                     I   N=          29
          16          14          12          12          12          12
          12          12          12          12          12          12
          12          12          12          12           1           1
           1           1           1           1           1           1
           1           1           1           1           1
Real atomic weights                        R   N=          29
  1.59949146E+01  1.40030740E+01  1.20000000E+01  1.20000000E+01  1.20000000E+01
  1.20000000E+01  1.20000000E+01  1.20000000E+01  1.20000000E+01  1.20000000E+01
  1.20000000E+01  1.20000000E+01  1.20000000E+01  1.20000000E+01  1.20000000E+01
  1.20000000E+01  1.00782504E+00  1.00782504E+00  1.00782504E+00  1.00782504E+00
  1.00782504E+00  1.00782504E+00  1.00782504E+00  1.00782504E+00  1.00782504E+00
  1.00782504E+00  1.00782504E+00  1.00782504E+00  1.00782504E+00
Atom fragment info                         I   N=          29
           0           0           0           0           0           0
           0           0           0           0           0           0
           0           0           0           0           0           0
           0           0           0           0           0           0
           0           0           0           0           0
Atom residue num                           I   N=          29
           0           0           0           0           0           0
           0           0           0           0           0           0
           0           0           0           0           0           0
           0           0           0           0           0           0
           0           0           0           0           0
Nuclear spins                              I   N=          29
           0           2           0           0           0           0
           0           0           0           0           0           0
           0           0           0           0           1           1
           1           1           1           1           1           1
           1           1           1           1           1
Nuclear ZEff                               R   N=          29
 -5.60000000E+00 -4.55000000E+00 -3.60000000E+00 -3.60000000E+00 -3.60000000E+00
 -3.60000000E+00 -3.60000000E+00 -3.60000000E+00 -3.60000000E+00 -3.60000000E+00
 -3.60000000E+00 -3.60000000E+00 -3.60000000E+00 -3.60000000E+00 -3.60000000E+00
 -3.60000000E+00 -1.00000000E+00 -1.00000000E+00 -1.00000000E+00 -1.00000000E+00
 -1.00000000E+00 -1.00000000E+00 -1.00000000E+00 -1.00000000E+00 -1.00000000E+00
 -1.00000000E+00 -1.00000000E+00 -1.00000000E+00 -1.00000000E+00
Nuclear QMom                               R   N=          29
  0.00000000E+00  2.04400000E+00  0.00000000E+00  0.00000000E+00  0.00000000E+00
  0.00000000E+00  0.00000000E+00  0.00000000E+00  0.00000000E+00  0.00000000E+00
  0.00000000E+00  0.00000000E+00  0.00000000E+00  0.00000000E+00  0.00000000E+00
  0.00000000E+00  0.00000000E+00  0.00000000E+00  0.00000000E+00  0.00000000E+00
  0.00000000E+00  0.00000000E+00  0.00000000E+00  0.00000000E+00  0.00000000E+00
  0.00000000E+00  0.00000000E+00  0.00000000E+00  0.00000000E+00
Nuclear GFac                               R   N=          29
  0.00000000E+00  4.03761000E-01  0.00000000E+00  0.00000000E+00  0.00000000E+00
  0.00000000E+00  0.00000000E+00  0.00000000E+00  0.00000000E+00  0.00000000E+00
  0.00000000E+00  0.00000000E+00  0.00000000E+00  0.00000000E+00  0.00000000E+00
  0.00000000E+00  2.79284600E+00  2.79284600E+00  2.79284600E+00  2.79284600E+00
  2.79284600E+00  2.79284600E+00  2.79284600E+00  2.79284600E+00  2.79284600E+00
  2.79284600E+00  2.79284600E+00  2.79284600E+00  2.79284600E+00
MicOpt                                     I   N=          29
          -1          -1          -1          -1          -1          -1
          -1          -1          -1          -1          -1          -1
          -1          -1          -1          -1          -1          -1
          -1          -1          -1          -1          -1          -1
          -1          -1          -1          -1          -1
Number of contracted shells                I               90
Number of primitive shells                 I              228
Pure/Cartesian d shells                    I                1
Pure/Cartesian f shells                    I                0
Highest angular momentum                   I                2
Largest degree of contraction              I                6
Shell types                                I   N=          90
           0          -1          -1           2           0          -1
          -1           2           0          -1          -1           2
           0          -1          -1           2           0          -1
          -1           2           0          -1          -1           2
           0          -1          -1           2           0          -1
          -1           2           0          -1          -1           2
           0          -1          -1           2           0          -1
          -1           2           0          -1          -1           2
           0          -1          -1           2           0          -1
          -1           2           0          -1          -1           2
           0          -1          -1           2           0           0
           0           0           0           0           0           0
           0           0           0           0           0           0
           0           0           0           0           0           0
           0           0           0           0           0           0
Number of primitives per shell             I   N=          90
           6           3           1           1           6           3
           1           1           6           3           1           1
           6           3           1           1           6           3
           1           1           6           3           1           1
           6           3           1           1           6           3
           1           1           6           3           1           1
           6           3           1           1           6           3
           1           1           6           3           1           1
           6           3           1           1           6           3
           1           1           6           3           1           1
           6           3           1           1           3           1
           3           1           3           1           3           1
           3           1           3           1           3           1
           3           1           3           1           3           1
           3           1           3           1           3           1
Shell to atom map                          I   N=          90
           1           1           1           1           2           2
           2           2           3           3           3           3
           4           4           4           4           5           5
           5           5           6           6           6           6
           7           7           7           7           8           8
           8           8           9           9           9           9
          10          10          10          10          11          11
          11          11          12          12          12          12
          13          13          13          13          14          14
          14          14          15          15          15          15
          16          16          16          16          17          17
          18          18          19          19          20          20
          21          21          22          22          23          23
          24          24          25          25          26          26
          27          27          28          28          29          29
Primitive exponents                        R   N=         228
  5.48467166E+03  8.25234946E+02  1.88046958E+02  5.29645000E+01  1.68975704E+01
  5.79963534E+00  1.55396162E+01  3.59993359E+00  1.01376175E+00  2.70005823E-01
  8.00000000E-01  4.17351146E+03  6.27457911E+02  1.42902093E+02  4.02343293E+01
  1.28202129E+01  4.39043701E+00  1.16263619E+01  2.71627981E+00  7.72218397E-01
  2.12031498E-01  8.00000000E-01  3.04752488E+03  4.57369518E+02  1.03948685E+02
  2.92101553E+01  9.28666296E+00  3.16392696E+00  7.86827235E+00  1.88128854E+00
  5.44249258E-01  1.68714478E-01  8.00000000E-01  3.04752488E+03  4.57369518E+02
  1.03948685E+02  2.92101553E+01  9.28666296E+00  3.16392696E+00  7.86827235E+00
  1.88128854E+00  5.44249258E-01  1.68714478E-01  8.00000000E-01  3.04752488E+03
  4.57369518E+02  1.03948685E+02  2.92101553E+01  9.28666296E+00  3.16392696E+00
  7.86827235E+00  1.88128854E+00  5.44249258E-01  1.68714478E-01  8.00000000E-01
  3.04752488E+03  4.57369518E+02  1.03948685E+02  2.92101553E+01  9.28666296E+00
  3.16392696E+00  7.86827235E+00  1.88128854E+00  5.44249258E-01  1.68714478E-01
  8.00000000E-01  3.04752488E+03  4.57369518E+02  1.03948685E+02  2.92101553E+01
  9.28666296E+00  3.16392696E+00  7.86827235E+00  1.88128854E+00  5.44249258E-01
  1.68714478E-01  8.00000000E-01  3.04752488E+03  4.57369518E+02  1.03948685E+02
  2.92101553E+01  9.28666296E+00  3.16392696E+00  7.86827235E+00  1.88128854E+00
  5.44249258E-01  1.68714478E-01  8.00000000E-01  3.04752488E+03  4.57369518E+02
  1.03948685E+02  2.92101553E+01  9.28666296E+00  3.16392696E+00  7.86827235E+00
  1.88128854E+00  5.44249258E-01  1.68714478E-01  8.00000000E-01  3.04752488E+03
  4.57369518E+02  1.03948685E+02  2.92101553E+01  9.28666296E+00  3.16392696E+00
  7.86827235E+00  1.88128854E+00  5.44249258E-01  1.68714478E-01  8.00000000E-01
  3.04752488E+03  4.57369518E+02  1.03948685E+02  2.92101553E+01  9.28666296E+00
  3.16392696E+00  7.86827235E+00  1.88128854E+00  5.44249258E-01  1.68714478E-01
  8.00000000E-01  3.04752488E+03  4.57369518E+02  1.03948685E+02  2.92101553E+01
  9.28666296E+00  3.16392696E+00  7.86827235E+00  1.88128854E+00  5.44249258E-01
  1.68714478E-01  8.00000000E-01  3.04752488E+03  4.57369518E+02  1.03948685E+02
  2.92101553E+01  9.28666296E+00  3.16392696E+00  7.86827235E+00  1.88128854E+00
  5.44249258E-01  1.68714478E-01  8.00000000E-01  3.04752488E+03  4.57369518E+02
  1.03948685E+02  2.92101553E+01  9.28666296E+00  3.16392696E+00  7.86827235E+00
  1.88128854E+00  5.44249258E-01  1.68714478E-01  8.00000000E-01  3.04752488E+03
  4.57369518E+02  1.03948685E+02  2.92101553E+01  9.28666296E+00  3.16392696E+00
  7.86827235E+00  1.88128854E+00  5.44249258E-01  1.68714478E-01  8.00000000E-01
  3.04752488E+03  4.57369518E+02  1.03948685E+02  2.92101553E+01  9.28666296E+00
  3.16392696E+00  7.86827235E+00  1.88128854E+00  5.44249258E-01  1.68714478E-01
  8.00000000E-01  1.87311370E+01  2.82539436E+00  6.40121692E-01  1.61277759E-01
  1.87311370E+01  2.82539436E+00  6.40121692E-01  1.61277759E-01  1.87311370E+01
  2.82539436E+00  6.40121692E-01  1.61277759E-01  1.87311370E+01  2.82539436E+00
  6.40121692E-01  1.61277759E-01  1.87311370E+01  2.82539436E+00  6.40121692E-01
  1.61277759E-01  1.87311370E+01  2.82539436E+00  6.40121692E-01  1.61277759E-01
  1.87311370E+01  2.82539436E+00  6.40121692E-01  1.61277759E-01  1.87311370E+01
  2.82539436E+00  6.40121692E-01  1.61277759E-01  1.87311370E+01  2.82539436E+00
  6.40121692E-01  1.61277759E-01  1.87311370E+01  2.82539436E+00  6.40121692E-01
  1.61277759E-01  1.87311370E+01  2.82539436E+00  6.40121692E-01  1.61277759E-01
  1.87311370E+01  2.82539436E+00  6.40121692E-01  1.61277759E-01  1.87311370E+01
  2.82539436E+00  6.40121692E-01  1.61277759E-01
Contraction coefficients                   R   N=         228
  1.83107443E-03  1.39501722E-02  6.84450781E-02  2.32714336E-01  4.70192898E-01
  3.58520853E-01 -1.10777550E-01 -1.48026263E-01  1.13076702E+00  1.00000000E+00
  1.00000000E+00  1.83477216E-03  1.39946270E-02  6.85865518E-02  2.32240873E-01
  4.69069948E-01  3.60455199E-01 -1.14961182E-01 -1.69117479E-01  1.14585195E+00
  1.00000000E+00  1.00000000E+00  1.83473713E-03  1.40373228E-02  6.88426223E-02
  2.32184443E-01  4.67941348E-01  3.62311985E-01 -1.19332420E-01 -1.60854152E-01
  1.14345644E+00  1.00000000E+00  1.00000000E+00  1.83473713E-03  1.40373228E-02
  6.88426223E-02  2.32184443E-01  4.67941348E-01  3.62311985E-01 -1.19332420E-01
 -1.60854152E-01  1.14345644E+00  1.00000000E+00  1.00000000E+00  1.83473713E-03
  1.40373228E-02  6.88426223E-02  2.32184443E-01  4.67941348E-01  3.62311985E-01
 -1.19332420E-01 -1.60854152E-01  1.14345644E+00  1.00000000E+00  1.00000000E+00
  1.83473713E-03  1.40373228E-02  6.88426223E-02  2.32184443E-01  4.67941348E-01
  3.62311985E-01 -1.19332420E-01 -1.60854152E-01  1.14345644E+00  1.00000000E+00
  1.00000000E+00  1.83473713E-03  1.40373228E-02  6.88426223E-02  2.32184443E-01
  4.67941348E-01  3.62311985E-01 -1.19332420E-01 -1.60854152E-01  1.14345644E+00
  1.00000000E+00  1.00000000E+00  1.83473713E-03  1.40373228E-02  6.88426223E-02
  2.32184443E-01  4.67941348E-01  3.62311985E-01 -1.19332420E-01 -1.60854152E-01
  1.14345644E+00  1.00000000E+00  1.00000000E+00  1.83473713E-03  1.40373228E-02
  6.88426223E-02  2.32184443E-01  4.67941348E-01  3.62311985E-01 -1.19332420E-01
 -1.60854152E-01  1.14345644E+00  1.00000000E+00  1.00000000E+00  1.83473713E-03
  1.40373228E-02  6.88426223E-02  2.32184443E-01  4.67941348E-01  3.62311985E-01
 -1.19332420E-01 -1.60854152E-01  1.14345644E+00  1.00000000E+00  1.00000000E+00
  1.83473713E-03  1.40373228E-02  6.88426223E-02  2.32184443E-01  4.67941348E-01
  3.62311985E-01 -1.19332420E-01 -1.60854152E-01  1.14345644E+00  1.00000000E+00
  1.00000000E+00  1.83473713E-03  1.40373228E-02  6.88426223E-02  2.32184443E-01
  4.67941348E-01  3.62311985E-01 -1.19332420E-01 -1.60854152E-01  1.14345644E+00
  1.00000000E+00  1.00000000E+00  1.83473713E-03  1.40373228E-02  6.88426223E-02
  2.32184443E-01  4.67941348E-01  3.62311985E-01 -1.19332420E-01 -1.60854152E-01
  1.14345644E+00  1.00000000E+00  1.00000000E+00  1.83473713E-03  1.40373228E-02
  6.88426223E-02  2.32184443E-01  4.67941348E-01  3.62311985E-01 -1.19332420E-01
 -1.60854152E-01  1.14345644E+00  1.00000000E+00  1.00000000E+00  1.83473713E-03
  1.40373228E-02  6.88426223E-02  2.32184443E-01  4.67941348E-01  3.62311985E-01
 -1.19332420E-01 -1.60854152E-01  1.14345644E+00  1.00000000E+00  1.00000000E+00
  1.83473713E-03  1.40373228E-02  6.88426223E-02  2.32184443E-01  4.67941348E-01
  3.62311985E-01 -1.19332420E-01 -1.60854152E-01  1.14345644E+00  1.00000000E+00
  1.00000000E+00  3.34946043E-02  2.34726953E-01  8.13757326E-01  1.00000000E+00
  3.34946043E-02  2.34726953E-01  8.13757326E-01  1.00000000E+00  3.34946043E-02
  2.34726953E-01  8.13757326E-01  1.00000000E+00  3.34946043E-02  2.34726953E-01
  8.13757326E-01  1.00000000E+00  3.34946043E-02  2.34726953E-01  8.13757326E-01
  1.00000000E+00  3.34946043E-02  2.34726953E-01  8.13757326E-01  1.00000000E+00
  3.34946043E-02  2.34726953E-01  8.13757326E-01  1.00000000E+00  3.34946043E-02
  2.34726953E-01  8.13757326E-01  1.00000000E+00  3.34946043E-02  2.34726953E-01
  8.13757326E-01  1.00000000E+00  3.34946043E-02  2.34726953E-01  8.13757326E-01
  1.00000000E+00  3.34946043E-02  2.34726953E-01  8.13757326E-01  1.00000000E+00
  3.34946043E-02  2.34726953E-01  8.13757326E-01  1.00000000E+00  3.34946043E-02
  2.34726953E-01  8.13757326E-01  1.00000000E+00
P(S=P) Contraction coefficients            R   N=         228
  0.00000000E+00  0.00000000E+00  0.00000000E+00  0.00000000E+00  0.00000000E+00
  0.00000000E+00  7.08742682E-02  3.39752839E-01  7.27158577E-01  1.00000000E+00
  0.00000000E+00  0.00000000E+00  0.00000000E+00  0.00000000E+00  0.00000000E+00
  0.00000000E+00  0.00000000E+00  6.75797439E-02  3.23907296E-01  7.40895140E-01
  1.00000000E+00  0.00000000E+00  0.00000000E+00  0.00000000E+00  0.00000000E+00
  0.00000000E+00  0.00000000E+00  0.00000000E+00  6.89990666E-02  3.16423961E-01
  7.44308291E-01  1.00000000E+00  0.00000000E+00  0.00000000E+00  0.00000000E+00
  0.00000000E+00  0.00000000E+00  0.00000000E+00  0.00000000E+00  6.89990666E-02
  3.16423961E-01  7.44308291E-01  1.00000000E+00  0.00000000E+00  0.00000000E+00
  0.00000000E+00  0.00000000E+00  0.00000000E+00  0.00000000E+00  0.00000000E+00
  6.89990666E-02  3.16423961E-01  7.44308291E-01  1.00000000E+00  0.00000000E+00
  0.00000000E+00  0.00000000E+00  0.00000000E+00  0.00000000E+00  0.00000000E+00
  0.00000000E+00  6.89990666E-02  3.16423961E-01  7.44308291E-01  1.00000000E+00
  0.00000000E+00  0.00000000E+00  0.00000000E+00  0.00000000E+00  0.00000000E+00
  0.00000000E+00  0.00000000E+00  6.89990666E-02  3.16423961E-01  7.44308291E-01
  1.00000000E+00  0.00000000E+00  0.00000000E+00  0.00000000E+00  0.00000000E+00
  0.00000000E+00  0.00000000E+00  0.00000000E+00  6.89990666E-02  3.16423961E-01
  7.44308291E-01  1.00000000E+00  0.00000000E+00  0.00000000E+00  0.00000000E+00
  0.00000000E+00  0.00000000E+00  0.00000000E+00  0.00000000E+00  6.89990666E-02
  3.16423961E-01  7.44308291E-01  1.00000000E+00  0.00000000E+00  0.00000000E+00
  0.00000000E+00  0.00000000E+00  0.00000000E+00  0.00000000E+00  0.00000000E+00
  6.89990666E-02  3.16423961E-01  7.44308291E-01  1.00000000E+00  0.00000000E+00
  0.00000000E+00  0.00000000E+00  0.00000000E+00  0.00000000E+00  0.00000000E+00
  0.00000000E+00  6.89990666E-02  3.16423961E-01  7.44308291E-01  1.00000000E+00
  0.00000000E+00  0.00000000E+00  0.00000000E+00  0.00000000E+00  0.00000000E+00
  0.00000000E+00  0.00000000E+00  6.89990666E-02  3.16423961E-01  7.44308291E-01
  1.00000000E+00  0.00000000E+00  0.00000000E+00  0.00000000E+00  0.00000000E+00
  0.00000000E+00  0.00000000E+00  0.00000000E+00  6.89990666E-02  3.16423961E-01
  7.44308291E-01  1.00000000E+00  0.00000000E+00  0.00000000E+00  0.00000000E+00
  0.00000000E+00  0.00000000E+00  0.00000000E+00  0.00000000E+00  6.89990666E-02
  3.16423961E-01  7.44308291E-01  1.00000000E+00  0.00000000E+00  0.00000000E+00
  0.00000000E+00  0.00000000E+00  0.00000000E+00  0.00000000E+00  0.00000000E+00
  6.89990666E-02  3.16423961E-01  7.44308291E-01  1.00000000E+00  0.00000000E+00
  0.00000000E+00  0.00000000E+00  0.00000000E+00  0.00000000E+00  0.00000000E+00
  0.00000000E+00  6.89990666E-02  3.16423961E-01  7.44308291E-01  1.00000000E+00
  0.00000000E+00  0.00000000E+00  0.00000000E+00  0.00000000E+00  0.00000000E+00
  0.00000000E+00  0.00000000E+00  0.00000000E+00  0.00000000E+00  0.00000000E+00
  0.00000000E+00  0.00000000E+00  0.00000000E+00  0.00000000E+00  0.00000000E+00
  0.00000000E+00  0.00000000E+00  0.00000000E+00  0.00000000E+00  0.00000000E+00
  0.00000000E+00  0.00000000E+00  0.00000000E+00  0.00000000E+00  0.00000000E+00
  0.00000000E+00  0.00000000E+00  0.00000000E+00  0.00000000E+00  0.00000000E+00
  0.00000000E+00  0.00000000E+00  0.00000000E+00  0.00000000E+00  0.00000000E+00
  0.00000000E+00  0.00000000E+00  0.00000000E+00  0.00000000E+00  0.00000000E+00
  0.00000000E+00  0.00000000E+00  0.00000000E+00  0.00000000E+00  0.00000000E+00
  0.00000000E+00  0.00000000E+00  0.00000000E+00  0.00000000E+00  0.00000000E+00
  0.00000000E+00  0.00000000E+00  0.00000000E+00
Coordinates of each shell                  R   N=         270
 -1.22734341E-01 -3.78086966E+00 -8.64023908E-01 -1.22734341E-01 -3.78086966E+00
 -8.64023908E-01 -1.22734341E-01 -3.78086966E+00 -8.64023908E-01 -1.22734341E-01
 -3.78086966E+00 -8.64023908E-01  4.64375395E+00 -2.78721271E+00  7.63148525E-01
  4.64375395E+00 -2.78721271E+00  7.63148525E-01  4.64375395E+00 -2.78721271E+00
  7.63148525E-01  4.64375395E+00 -2.78721271E+00  7.63148525E-01  1.53062333E+00
  3.97801266E-01 -4.08335348E-01  1.53062333E+00  3.97801266E-01 -4.08335348E-01
  1.53062333E+00  3.97801266E-01 -4.08335348E-01  1.53062333E+00  3.97801266E-01
 -4.08335348E-01  4.06771331E+00 -3.29549587E-01  1.50641655E-01  4.06771331E+00
 -3.29549587E-01  1.50641655E-01  4.06771331E+00 -3.29549587E-01  1.50641655E-01
  4.06771331E+00 -3.29549587E-01  1.50641655E-01 -5.27227066E-01 -1.49260331E+00
 -4.94311011E-01 -5.27227066E-01 -1.49260331E+00 -4.94311011E-01 -5.27227066E-01
 -1.49260331E+00 -4.94311011E-01 -5.27227066E-01 -1.49260331E+00 -4.94311011E-01
 -3.19665916E+00 -6.51907781E-01 -1.11468768E-01 -3.19665916E+00 -6.51907781E-01
 -1.11468768E-01 -3.19665916E+00 -6.51907781E-01 -1.11468768E-01 -3.19665916E+00
 -6.51907781E-01 -1.11468768E-01  1.00977681E+00  2.92130033E+00 -1.06370756E+00
  1.00977681E+00  2.92130033E+00 -1.06370756E+00  1.00977681E+00  2.92130033E+00
 -1.06370756E+00  1.00977681E+00  2.92130033E+00 -1.06370756E+00  5.92702599E+00
  1.58008717E+00  2.22961850E-01  5.92702599E+00  1.58008717E+00  2.22961850E-01
  5.92702599E+00  1.58008717E+00  2.22961850E-01  5.92702599E+00  1.58008717E+00
  2.22961850E-01  2.88695887E+00  4.75727640E+00 -1.06099813E+00  2.88695887E+00
  4.75727640E+00 -1.06099813E+00  2.88695887E+00  4.75727640E+00 -1.06099813E+00
  2.88695887E+00  4.75727640E+00 -1.06099813E+00  5.34855892E+00  4.06582605E+00
 -4.01141341E-01  5.34855892E+00  4.06582605E+00 -4.01141341E-01  5.34855892E+00
  4.06582605E+00 -4.01141341E-01  5.34855892E+00  4.06582605E+00 -4.01141341E-01
 -3.84305812E+00  1.21010304E+00  1.66193499E+00 -3.84305812E+00  1.21010304E+00
  1.66193499E+00 -3.84305812E+00  1.21010304E+00  1.66193499E+00 -3.84305812E+00
  1.21010304E+00  1.66193499E+00 -5.10486877E+00 -1.92033534E+00 -1.44185476E+00
 -5.10486877E+00 -1.92033534E+00 -1.44185476E+00 -5.10486877E+00 -1.92033534E+00
 -1.44185476E+00 -5.10486877E+00 -1.92033534E+00 -1.44185476E+00 -6.37891130E+00
  1.80572745E+00  2.07399057E+00 -6.37891130E+00  1.80572745E+00  2.07399057E+00
 -6.37891130E+00  1.80572745E+00  2.07399057E+00 -6.37891130E+00  1.80572745E+00
  2.07399057E+00 -7.63020707E+00 -1.28544603E+00 -1.05404462E+00 -7.63020707E+00
 -1.28544603E+00 -1.05404462E+00 -7.63020707E+00 -1.28544603E+00 -1.05404462E+00
 -7.63020707E+00 -1.28544603E+00 -1.05404462E+00  7.23306680E+00 -3.63619759E+00
  1.00495731E+00  7.23306680E+00 -3.63619759E+00  1.00495731E+00  7.23306680E+00
 -3.63619759E+00  1.00495731E+00  7.23306680E+00 -3.63619759E+00  1.00495731E+00
 -8.27306464E+00  5.77679845E-01  7.05935084E-01 -8.27306464E+00  5.77679845E-01
  7.05935084E-01 -8.27306464E+00  5.77679845E-01  7.05935084E-01 -8.27306464E+00
  5.77679845E-01  7.05935084E-01 -9.06011413E-01  3.42721668E+00 -1.60069007E+00
 -9.06011413E-01  3.42721668E+00 -1.60069007E+00  7.86448363E+00  1.09439658E+00
  6.88117808E-01  7.86448363E+00  1.09439658E+00  6.88117808E-01  3.36390305E+00
 -4.05556400E+00  1.07412978E-01  3.36390305E+00 -4.05556400E+00  1.07412978E-01
  2.44884397E+00  6.69082621E+00 -1.59448675E+00  2.44884397E+00  6.69082621E+00
 -1.59448675E+00  6.84160704E+00  5.47929007E+00 -3.63958459E-01  6.84160704E+00
  5.47929007E+00 -3.63958459E-01 -2.37004589E+00  2.14922074E+00  2.74235815E+00
 -2.37004589E+00  2.14922074E+00  2.74235815E+00 -4.57421386E+00 -3.39834446E+00
 -2.76589564E+00 -4.57421386E+00 -3.39834446E+00 -2.76589564E+00 -6.87756963E+00
  3.23023189E+00  3.46864590E+00 -6.87756963E+00  3.23023189E+00  3.46864590E+00
 -9.10310915E+00 -2.25170852E+00 -2.11219737E+00 -9.10310915E+00 -2.25170852E+00
 -2.11219737E+00  8.37750833E+00 -3.24704777E+00 -6.84812137E-01  8.37750833E+00
 -3.24704777E+00 -6.84812137E-01  7.20682854E+00 -5.67282358E+00  1.32748277E+00
  7.20682854E+00 -5.67282358E+00  1.32748277E+00  8.15071992E+00 -2.74795491E+00
  2.63181909E+00  8.15071992E+00 -2.74795491E+00  2.63181909E+00 -1.02457149E+01
  1.06113577E+00  1.01899575E+00 -1.02457149E+01  1.06113577E+00  1.01899575E+00
Constraint Structure                       R   N=          87
 -1.22734341E-01 -3.78086966E+00 -8.64023908E-01  4.64375395E+00 -2.78721271E+00
  7.63148525E-01  1.53062333E+00  3.97801266E-01 -4.08335348E-01  4.06771331E+00
 -3.29549587E-01  1.50641655E-01 -5.27227066E-01 -1.49260331E+00 -4.94311011E-01
 -3.19665916E+00 -6.51907781E-01 -1.11468768E-01  1.00977681E+00  2.92130033E+00
 -1.06370756E+00  5.92702599E+00  1.58008717E+00  2.22961850E-01  2.88695887E+00
  4.75727640E+00 -1.06099813E+00  5.34855892E+00  4.06582605E+00 -4.01141341E-01
 -3.84305812E+00  1.21010304E+00  1.66193499E+00 -5.10486877E+00 -1.92033534E+00
 -1.44185476E+00 -6.37891130E+00  1.80572745E+00  2.07399057E+00 -7.63020707E+00
 -1.28544603E+00 -1.05404462E+00  7.23306680E+00 -3.63619759E+00  1.00495731E+00
 -8.27306464E+00  5.77679845E-01  7.05935084E-01 -9.06011413E-01  3.42721668E+00
 -1.60069007E+00  7.86448363E+00  1.09439658E+00  6.88117808E-01  3.36390305E+00
 -4.05556400E+00  1.07412978E-01  2.44884397E+00  6.69082621E+00 -1.59448675E+00
  6.84160704E+00  5.47929007E+00 -3.63958459E-01 -2.37004589E+00  2.14922074E+00
  2.74235815E+00 -4.57421386E+00 -3.39834446E+00 -2.76589564E+00 -6.87756963E+00
  3.23023189E+00  3.46864590E+00 -9.10310915E+00 -2.25170852E+00 -2.11219737E+00
  8.37750833E+00 -3.24704777E+00 -6.84812137E-01  7.20682854E+00 -5.67282358E+00
  1.32748277E+00  8.15071992E+00 -2.74795491E+00  2.63181909E+00 -1.02457149E+01
  1.06113577E+00  1.01899575E+00
Num ILSW                                   I              100
ILSW                                       I   N=         100
           0           1           0           0           2           0
           0           0           0           0           0          -1
           0           0           0           0           0           0