111                                                                     
Freq      RMP2-FC                                                     6-31G(d)            
Number of atoms                            I               14
Info1-9                                    I   N=           9
          26          24        1002           0           0         100
           6           2           1
Charge                                     I                1
Multiplicity                               I                1
Number of electrons                        I               34
Number of alpha electrons                  I               17
Number of beta electrons                   I               17
Number of basis functions                  I               80
Number of independent functions            I               80
Number of point charges in /Mol/           I                0
Number of translation vectors              I                0
Atomic numbers                             I   N=          14
           7           6           6           6           1           1
           1           1           1           1           1           1
           1           1
Nuclear charges                            R   N=          14
  7.00000000E+00  6.00000000E+00  6.00000000E+00  6.00000000E+00  1.00000000E+00
  1.00000000E+00  1.00000000E+00  1.00000000E+00  1.00000000E+00  1.00000000E+00
  1.00000000E+00  1.00000000E+00  1.00000000E+00  1.00000000E+00
Current cartesian coordinates              R   N=          42
  3.44210089E-06  2.59885510E+00  1.66590362E-01 -2.11738095E-07 -1.45321692E-01
 -7.39085490E-01 -2.40849404E+00 -1.38963543E+00  1.95162648E-01  2.40849038E+00
 -1.38964166E+00  1.95162609E-01 -7.72037583E-08 -5.98910886E-03 -2.80092111E+00
 -1.57051688E+00  3.56237175E+00 -4.54755971E-01  1.57052588E+00  3.56236788E+00
 -4.54756630E-01  3.93988086E-06  2.67683543E+00  2.11004529E+00 -2.47514044E+00
 -3.32743067E+00 -5.11325527E-01 -2.45560589E+00 -1.47209072E+00  2.26122851E+00
 -4.10241155E+00 -4.20456435E-01 -4.86494377E-01  2.47513122E+00 -3.32743740E+00
 -5.11324639E-01  2.45560254E+00 -1.47209611E+00  2.26122852E+00  4.10241042E+00
 -4.20467646E-01 -4.86495200E-01
Force Field                                I                0
Int Atom Types                             I   N=          14
           0           0           0           0           0           0
           0           0           0           0           0           0
           0           0
MM charges                                 R   N=          14
  0.00000000E+00  0.00000000E+00  0.00000000E+00  0.00000000E+00  0.00000000E+00
  0.00000000E+00  0.00000000E+00  0.00000000E+00  0.00000000E+00  0.00000000E+00
  0.00000000E+00  0.00000000E+00  0.00000000E+00  0.00000000E+00
Integer atomic weights                     I   N=          14
          14          12          12          12           1           1
           1           1           1           1           1           1
           1           1
Real atomic weights                        R   N=          14
  1.40030740E+01  1.20000000E+01  1.20000000E+01  1.20000000E+01  1.00782504E+00
  1.00782504E+00  1.00782504E+00  1.00782504E+00  1.00782504E+00  1.00782504E+00
  1.00782504E+00  1.00782504E+00  1.00782504E+00  1.00782504E+00
Atom fragment info                         I   N=          14
           0           0           0           0           0           0
           0           0           0           0           0           0
           0           0
Atom residue num                           I   N=          14
           0           0           0           0           0           0
           0           0           0           0           0           0
           0           0
Nuclear spins                              I   N=          14
           2           0           0           0           1           1
           1           1           1           1           1           1
           1           1
Nuclear ZEff                               R   N=          14
 -4.55000000E+00 -3.60000000E+00 -3.60000000E+00 -3.60000000E+00 -1.00000000E+00
 -1.00000000E+00 -1.00000000E+00 -1.00000000E+00 -1.00000000E+00 -1.00000000E+00
 -1.00000000E+00 -1.00000000E+00 -1.00000000E+00 -1.00000000E+00
Nuclear QMom                               R   N=          14
  2.04400000E+00  0.00000000E+00  0.00000000E+00  0.00000000E+00  0.00000000E+00
  0.00000000E+00  0.00000000E+00  0.00000000E+00  0.00000000E+00  0.00000000E+00
  0.00000000E+00  0.00000000E+00  0.00000000E+00  0.00000000E+00
Nuclear GFac                               R   N=          14
  4.03761000E-01  0.00000000E+00  0.00000000E+00  0.00000000E+00  2.79284600E+00
  2.79284600E+00  2.79284600E+00  2.79284600E+00  2.79284600E+00  2.79284600E+00
  2.79284600E+00  2.79284600E+00  2.79284600E+00  2.79284600E+00
MicOpt                                     I   N=          14
          -1          -1          -1          -1          -1          -1
          -1          -1          -1          -1          -1          -1
          -1          -1
Number of contracted shells                I               36
Number of primitive shells                 I               84
Pure/Cartesian d shells                    I                1
Pure/Cartesian f shells                    I                0
Highest angular momentum                   I                2
Largest degree of contraction              I                6
Shell types                                I   N=          36
           0          -1          -1           2           0          -1
          -1           2           0          -1          -1           2
           0          -1          -1           2           0           0
           0           0           0           0           0           0
           0           0           0           0           0           0
           0           0           0           0           0           0
Number of primitives per shell             I   N=          36
           6           3           1           1           6           3
           1           1           6           3           1           1
           6           3           1           1           3           1
           3           1           3           1           3           1
           3           1           3           1           3           1
           3           1           3           1           3           1
Shell to atom map                          I   N=          36
           1           1           1           1           2           2
           2           2           3           3           3           3
           4           4           4           4           5           5
           6           6           7           7           8           8
           9           9          10          10          11          11
          12          12          13          13          14          14
Primitive exponents                        R   N=          84
  4.17351146E+03  6.27457911E+02  1.42902093E+02  4.02343293E+01  1.28202129E+01
  4.39043701E+00  1.16263619E+01  2.71627981E+00  7.72218397E-01  2.12031498E-01
  8.00000000E-01  3.04752488E+03  4.57369518E+02  1.03948685E+02  2.92101553E+01
  9.28666296E+00  3.16392696E+00  7.86827235E+00  1.88128854E+00  5.44249258E-01
  1.68714478E-01  8.00000000E-01  3.04752488E+03  4.57369518E+02  1.03948685E+02
  2.92101553E+01  9.28666296E+00  3.16392696E+00  7.86827235E+00  1.88128854E+00
  5.44249258E-01  1.68714478E-01  8.00000000E-01  3.04752488E+03  4.57369518E+02
  1.03948685E+02  2.92101553E+01  9.28666296E+00  3.16392696E+00  7.86827235E+00
  1.88128854E+00  5.44249258E-01  1.68714478E-01  8.00000000E-01  1.87311370E+01
  2.82539436E+00  6.40121692E-01  1.61277759E-01  1.87311370E+01  2.82539436E+00
  6.40121692E-01  1.61277759E-01  1.87311370E+01  2.82539436E+00  6.40121692E-01
  1.61277759E-01  1.87311370E+01  2.82539436E+00  6.40121692E-01  1.61277759E-01
  1.87311370E+01  2.82539436E+00  6.40121692E-01  1.61277759E-01  1.87311370E+01
  2.82539436E+00  6.40121692E-01  1.61277759E-01  1.87311370E+01  2.82539436E+00
  6.40121692E-01  1.61277759E-01  1.87311370E+01  2.82539436E+00  6.40121692E-01
  1.61277759E-01  1.87311370E+01  2.82539436E+00  6.40121692E-01  1.61277759E-01
  1.87311370E+01  2.82539436E+00  6.40121692E-01  1.61277759E-01
Contraction coefficients                   R   N=          84
  1.83477216E-03  1.39946270E-02  6.85865518E-02  2.32240873E-01  4.69069948E-01
  3.60455199E-01 -1.14961182E-01 -1.69117479E-01  1.14585195E+00  1.00000000E+00
  1.00000000E+00  1.83473713E-03  1.40373228E-02  6.88426223E-02  2.32184443E-01
  4.67941348E-01  3.62311985E-01 -1.19332420E-01 -1.60854152E-01  1.14345644E+00
  1.00000000E+00  1.00000000E+00  1.83473713E-03  1.40373228E-02  6.88426223E-02
  2.32184443E-01  4.67941348E-01  3.62311985E-01 -1.19332420E-01 -1.60854152E-01
  1.14345644E+00  1.00000000E+00  1.00000000E+00  1.83473713E-03  1.40373228E-02
  6.88426223E-02  2.32184443E-01  4.67941348E-01  3.62311985E-01 -1.19332420E-01
 -1.60854152E-01  1.14345644E+00  1.00000000E+00  1.00000000E+00  3.34946043E-02
  2.34726953E-01  8.13757326E-01  1.00000000E+00  3.34946043E-02  2.34726953E-01
  8.13757326E-01  1.00000000E+00  3.34946043E-02  2.34726953E-01  8.13757326E-01
  1.00000000E+00  3.34946043E-02  2.34726953E-01  8.13757326E-01  1.00000000E+00
  3.34946043E-02  2.34726953E-01  8.13757326E-01  1.00000000E+00  3.34946043E-02
  2.34726953E-01  8.13757326E-01  1.00000000E+00  3.34946043E-02  2.34726953E-01
  8.13757326E-01  1.00000000E+00  3.34946043E-02  2.34726953E-01  8.13757326E-01
  1.00000000E+00  3.34946043E-02  2.34726953E-01  8.13757326E-01  1.00000000E+00
  3.34946043E-02  2.34726953E-01  8.13757326E-01  1.00000000E+00
P(S=P) Contraction coefficients            R   N=          84
  0.00000000E+00  0.00000000E+00  0.00000000E+00  0.00000000E+00  0.00000000E+00
  0.00000000E+00  6.75797439E-02  3.23907296E-01  7.40895140E-01  1.00000000E+00
  0.00000000E+00  0.00000000E+00  0.00000000E+00  0.00000000E+00  0.00000000E+00
  0.00000000E+00  0.00000000E+00  6.89990666E-02  3.16423961E-01  7.44308291E-01
  1.00000000E+00  0.00000000E+00  0.00000000E+00  0.00000000E+00  0.00000000E+00
  0.00000000E+00  0.00000000E+00  0.00000000E+00  6.89990666E-02  3.16423961E-01
  7.44308291E-01  1.00000000E+00  0.00000000E+00  0.00000000E+00  0.00000000E+00
  0.00000000E+00  0.00000000E+00  0.00000000E+00  0.00000000E+00  6.89990666E-02
  3.16423961E-01  7.44308291E-01  1.00000000E+00  0.00000000E+00  0.00000000E+00
  0.00000000E+00  0.00000000E+00  0.00000000E+00  0.00000000E+00  0.00000000E+00
  0.00000000E+00  0.00000000E+00  0.00000000E+00  0.00000000E+00  0.00000000E+00
  0.00000000E+00  0.00000000E+00  0.00000000E+00  0.00000000E+00  0.00000000E+00
  0.00000000E+00  0.00000000E+00  0.00000000E+00  0.00000000E+00  0.00000000E+00
  0.00000000E+00  0.00000000E+00  0.00000000E+00  0.00000000E+00  0.00000000E+00
  0.00000000E+00  0.00000000E+00  0.00000000E+00  0.00000000E+00  0.00000000E+00
  0.00000000E+00  0.00000000E+00  0.00000000E+00  0.00000000E+00  0.00000000E+00
  0.00000000E+00  0.00000000E+00  0.00000000E+00  0.00000000E+00
Coordinates of each shell                  R   N=         108
  3.44210089E-06  2.59885510E+00  1.66590362E-01  3.44210089E-06  2.59885510E+00
  1.66590362E-01  3.44210089E-06  2.59885510E+00  1.66590362E-01  3.44210089E-06
  2.59885510E+00  1.66590362E-01 -2.11738095E-07 -1.45321692E-01 -7.39085490E-01
 -2.11738095E-07 -1.45321692E-01 -7.39085490E-01 -2.11738095E-07 -1.45321692E-01
 -7.39085490E-01 -2.11738095E-07 -1.45321692E-01 -7.39085490E-01 -2.40849404E+00
 -1.38963543E+00  1.95162648E-01 -2.40849404E+00 -1.38963543E+00  1.95162648E-01
 -2.40849404E+00 -1.38963543E+00  1.95162648E-01 -2.40849404E+00 -1.38963543E+00
  1.95162648E-01  2.40849038E+00 -1.38964166E+00  1.95162609E-01  2.40849038E+00
 -1.38964166E+00  1.95162609E-01  2.40849038E+00 -1.38964166E+00  1.95162609E-01
  2.40849038E+00 -1.38964166E+00  1.95162609E-01 -7.72037583E-08 -5.98910886E-03
 -2.80092111E+00 -7.72037583E-08 -5.98910886E-03 -2.80092111E+00 -1.57051688E+00
  3.56237175E+00 -4.54755971E-01 -1.57051688E+00  3.56237175E+00 -4.54755971E-01
  1.57052588E+00  3.56236788E+00 -4.54756630E-01  1.57052588E+00  3.56236788E+00
 -4.54756630E-01  3.93988086E-06  2.67683543E+00  2.11004529E+00  3.93988086E-06
  2.67683543E+00  2.11004529E+00 -2.47514044E+00 -3.32743067E+00 -5.11325527E-01
 -2.47514044E+00 -3.32743067E+00 -5.11325527E-01 -2.45560589E+00 -1.47209072E+00
  2.26122851E+00 -2.45560589E+00 -1.47209072E+00  2.26122851E+00 -4.10241155E+00
 -4.20456435E-01 -4.86494377E-01 -4.10241155E+00 -4.20456435E-01 -4.86494377E-01
  2.47513122E+00 -3.32743740E+00 -5.11324639E-01  2.47513122E+00 -3.32743740E+00
 -5.11324639E-01  2.45560254E+00 -1.47209611E+00  2.26122852E+00  2.45560254E+00
 -1.47209611E+00  2.26122852E+00  4.10241042E+00 -4.20467646E-01 -4.86495200E-01
  4.10241042E+00 -4.20467646E-01 -4.86495200E-01
Constraint Structure                       R   N=          42
  3.44210089E-06  2.59885510E+00  1.66590362E-01 -2.11738095E-07 -1.45321692E-01
 -7.39085490E-01 -2.40849404E+00 -1.38963543E+00  1.95162648E-01  2.40849038E+00
 -1.38964166E+00  1.95162609E-01 -7.72037583E-08 -5.98910886E-03 -2.80092111E+00
 -1.57051688E+00  3.56237175E+00 -4.54755971E-01  1.57052588E+00  3.56236788E+00
 -4.54756630E-01  3.93988086E-06  2.67683543E+00  2.11004529E+00 -2.47514044E+00
 -3.32743067E+00 -5.11325527E-01 -2.45560589E+00 -1.47209072E+00  2.26122851E+00
 -4.10241155E+00 -4.20456435E-01 -4.86494377E-01  2.47513122E+00 -3.32743740E+00
 -5.11324639E-01  2.45560254E+00 -1.47209611E+00  2.26122852E+00  4.10241042E+00
 -4.20467646E-01 -4.86495200E-01
Num ILSW                                   I              100
ILSW                                       I   N=         100
           0           1           0           0           2           0
           0           0           0           0           0          -1
           0           0           0           0           0           0
           0           0           0           0           1           0
           1           0           0           0           0           0
           0           0      100000           0          -1           0
           0           0           0           0           0           0
           0           0           0           1           1           0
           0           0           1           0           0           0
           0           0           4          40           0           0
           0           0           0           0           0           0
           0           0           0           0           0           0
           0           0           0           0           0           0
           0           0           0           0           0           0
           0           0           0           0           0           0
           0           0           0           0           0           0
           0           0           0           0
Num RLSW                                   I               40
RLSW                                       R   N=          40
  1.00000000E+00  1.00000000E+00  1.00000000E+00  1.00000000E+00  1.00000000E+00
  0.00000000E+00  0.00000000E+00  1.00000000E+00  0.00000000E+00  0.00000000E+00
  0.00000000E+00  0.00000000E+00  1.00000000E+00  0.00000000E+00  0.00000000E+00
  0.00000000E+00  0.00000000E+00  1.00000000E+00  0.00000000E+00  0.00000000E+00
  0.00000000E+00  0.00000000E+00  1.00000000E+00  0.00000000E+00  0.00000000E+00
  0.00000000E+00  0.00000000E+00  1.00000000E+00  0.00000000E+00  0.00000000E+00
  0.00000000E+00  0.00000000E+00  0.00000000E+00  0.00000000E+00  0.00000000E+00
  0.00000000E+00  0.00000000E+00  0.00000000E+00  1.00000000E+00  1.00000000E+00
MxBond                                     I                4
NBond                                      I   N=          14
           4           4           4           4           1           1
           1           1           1           1           1           1
           1           1
IBond                                      I   N=          56
           2           6           7           8           1           3
           4           5           2           9          10          11
           2          12          13          14           2           0
           0           0           1           0           0           0
           1           0           0           0           1           0
           0           0           3           0           0           0
           3           0           0           0           3           0
           0           0           4           0           0           0
           4           0           0           0           4           0
           0           0
RBond                                      R   N=          56
  1.00000000E+00  1.00000000E+00  1.00000000E+00  1.00000000E+00  1.00000000E+00
  1.00000000E+00  1.00000000E+00  1.00000000E+00  1.00000000E+00  1.00000000E+00
  1.00000000E+00  1.00000000E+00  1.00000000E+00  1.00000000E+00  1.00000000E+00
  1.00000000E+00  1.00000000E+00  0.00000000E+00  0.00000000E+00  0.00000000E+00
  1.00000000E+00  0.00000000E+00  0.00000000E+00  0.00000000E+00  1.00000000E+00
  0.00000000E+00  0.00000000E+00  0.00000000E+00  1.00000000E+00  0.00000000E+00
  0.00000000E+00  0.00000000E+00  1.00000000E+00  0.00000000E+00  0.00000000E+00
  0.00000000E+00  1.00000000E+00  0.00000000E+00  0.00000000E+00  0.00000000E+00
  1.00000000E+00  0.00000000E+00  0.00000000E+00  0.00000000E+00  1.00000000E+00
  0.00000000E+00  0.00000000E+00  0.00000000E+00  1.00000000E+00  0.00000000E+00
  0.00000000E+00  0.00000000E+00  1.00000000E+00  0.00000000E+00  0.00000000E+00
  0.00000000E+00
Virial Ratio                               R      2.001909111620176E+00
SCF Energy                                 R     -1.736571726018283E+02
MP2 Energy                                 R     -1.742161561985894E+02
Total Energy                               R     -1.742161561985894E+02
Post-SCF wavefunction norm                 R      1.534908699746912E+00
RMS Force                                  R      4.988594825590736E-07
RMS Density                                R      3.329254722383735E-10
External E-field                           R   N=          35
  0.00000000E+00  0.00000000E+00  0.00000000E+00  0.00000000E+00  0.00000000E+00
  0.00000000E+00  0.00000000E+00  0.00000000E+00  0.00000000E+00  0.00000000E+00
  0.00000000E+00  0.00000000E+00  0.00000000E+00  0.00000000E+00  0.00000000E+00
  0.00000000E+00  0.00000000E+00  0.00000000E+00  0.00000000E+00  0.00000000E+00
  0.00000000E+00  0.00000000E+00  0.00000000E+00  0.00000000E+00  0.00000000E+00
  0.00000000E+00  0.00000000E+00  0.00000000E+00  0.00000000E+00  0.00000000E+00
  0.00000000E+00  0.00000000E+00  0.00000000E+00  0.00000000E+00  0.00000000E+00
IOpCl                                      I                0
IROHF                                      I                0
Alpha Orbital Energies                     R   N=          80
 -1.58966503E+01 -1.14868134E+01 -1.14004585E+01 -1.14004409E+01 -1.50845192E+00
 -1.25102964E+00 -1.12879354E+00 -1.02075498E+00 -9.62022737E-01 -9.54978230E-01
 -8.50991414E-01 -7.98059854E-01 -7.42929896E-01 -7.17406900E-01 -7.13840576E-01
 -6.82110637E-01 -6.81552415E-01 -2.39720556E-02  4.81687873E-02  5.11099085E-02
  7.73177211E-02  1.16561665E-01  1.25987134E-01  1.34703968E-01  1.48687949E-01
  1.74525525E-01  1.75345538E-01  1.95244064E-01  2.09699199E-01  2.43668631E-01
  5.14386115E-01  5.15287589E-01  5.30816287E-01  5.40108278E-01  5.68730858E-01
  7.08495875E-01  7.26873378E-01  7.74211175E-01  7.93831850E-01  8.09259916E-01
  8.20464309E-01  8.90529201E-01  9.08555783E-01  9.31905303E-01  9.57457190E-01
  9.76457705E-01  9.89744512E-01  1.01157960E+00  1.01715708E+00  1.02669694E+00
  1.04586824E+00  1.07354198E+00  1.08275676E+00  1.44081934E+00  1.45956092E+00
  1.52071305E+00  1.54829819E+00  1.74021389E+00  1.77626635E+00  1.84390835E+00
  1.86512302E+00  2.01765971E+00  2.06230323E+00  2.09750546E+00  2.19590031E+00
  2.22039299E+00  2.26925370E+00  2.38112763E+00  2.39152387E+00  2.40410188E+00
  2.42824078E+00  2.58876284E+00  2.64660009E+00  2.66244332E+00  2.82772668E+00
  2.84677510E+00  3.95734035E+00  4.42480757E+00  4.53464701E+00  4.73202038E+00
Alpha MO coefficients                      R   N=        6400
  9.94949730E-01  2.52122204E-02  3.46926123E-10  2.70405811E-04  9.91137826E-05
 -2.33824069E-03  3.54800689E-10  2.49121468E-04  6.12685896E-05 -3.45582412E-03
 -3.56273292E-03 -3.47094290E-03 -1.63213647E-10 -5.33243800E-11 -3.85040954E-05
 -3.11369079E-05 -2.76212616E-05  3.50903082E-10  2.64387434E-04  8.16106494E-05
  1.38446282E-03  6.34537738E-10  5.05205001E-04  2.12604663E-04 -9.01343808E-05
  2.90181941E-05 -8.57171213E-05  1.83844869E-10  6.71002436E-11  5.03322626E-05
 -8.75150339E-06 -1.69174571E-05 -2.82800624E-05 -5.35379004E-05 -1.87336258E-06
 -5.95414046E-05 -9.37574991E-05 -1.16168737E-05  3.75045917E-05 -2.89273276E-05
 -3.20570875E-05 -2.98789017E-05 -1.63312737E-05 -1.17218119E-05  9.45438175E-06
 -8.75150716E-06 -1.69174813E-05  2.82799138E-05 -5.35379825E-05 -1.87335038E-06
 -5.95413186E-05  9.37575033E-05 -1.16170422E-05  3.75045295E-05 -2.89272588E-05
 -3.20571592E-05 -2.98789052E-05  1.63312580E-05  1.17218364E-05  9.45434918E-06
 -7.56076521E-05 -1.16634315E-04  3.26248997E-04  3.80566275E-04  3.26248992E-04
  3.80566246E-04  3.29439858E-04  3.89750144E-04 -2.41653529E-06  7.19123624E-05
  5.74311744E-06 -7.73925257E-05  4.08305336E-06 -8.96392993E-05 -2.41653618E-06
  7.19123814E-05  5.74310208E-06 -7.73925274E-05  4.08305112E-06 -8.96393381E-05
 -2.07467606E-04  1.22554364E-05 -9.29826901E-11 -8.81250107E-05  5.19071169E-06
  4.15177852E-03 -2.13822861E-09 -1.50464150E-03 -4.65375130E-04 -1.23525840E-04
 -6.76088439E-04 -1.63447145E-04 -8.46250907E-10 -3.72305556E-10 -2.81920493E-04
  9.96026579E-01  2.82471713E-02  1.28210095E-09  9.61428076E-04  4.27256543E-04
 -1.94144768E-02 -8.26231416E-10 -5.72848223E-04 -1.67801162E-03 -1.25296925E-03
 -1.46815554E-03 -1.19374195E-03 -3.23104856E-10 -1.16368505E-10 -1.02656026E-04
  3.50079723E-03  2.91923925E-05  1.33578237E-04  5.53277964E-05 -2.95592246E-05
  4.86357091E-03  1.88162725E-03  1.18295212E-03 -4.06550700E-04 -2.97843923E-04
 -1.97014043E-04 -1.49334562E-04 -9.60920869E-05  1.38078437E-04  7.07922991E-05
  3.50079733E-03  2.91923905E-05 -1.33578059E-04  5.53281755E-05 -2.95592059E-05
  4.86357105E-03 -1.88162434E-03  1.18295678E-03 -4.06550808E-04 -2.97843505E-04
 -1.97014482E-04 -1.49334551E-04  9.60923894E-05 -1.38078232E-04  7.07926922E-05
  2.85849969E-04  2.58096929E-03 -1.33589702E-04  3.74581488E-05 -1.33589683E-04
  3.74582810E-05 -1.27164019E-04  1.97340291E-04 -1.20633901E-04 -1.00589837E-05
 -2.13830224E-04 -6.66728565E-05 -1.73947032E-04 -5.51851241E-05 -1.20633903E-04
 -1.00592500E-05 -2.13830231E-04 -6.66727542E-05 -1.73947011E-04 -5.51849532E-05
 -5.46379409E-09 -2.94594736E-08  1.26358186E-04  1.07238114E-08 -3.16665696E-09
  9.85300218E-08 -6.67628746E-04 -5.12348264E-08  2.75388206E-08 -1.16464576E-08
 -5.21511505E-09 -1.59292768E-08  7.72302962E-05 -2.83604090E-05 -1.05409132E-09
 -4.41760732E-07  2.65822213E-08 -5.19379442E-05 -4.64708081E-09  1.65175886E-09
  2.79829738E-07 -1.99420348E-03 -7.54537401E-08 -2.55811487E-09 -4.87958631E-08
 -2.65753775E-08 -1.27908840E-08 -2.09828590E-04  2.05992397E-04  5.96908102E-09
  7.04181357E-01  2.04406762E-02  3.37013014E-04  1.39117621E-04 -1.81530347E-05
 -1.12149414E-02 -9.59676401E-04 -5.78076203E-05 -9.57804074E-05 -1.29407582E-03
 -1.22557825E-03 -1.23627742E-03 -1.75752358E-05  9.42666636E-06  2.84273747E-05
 -7.04065039E-01 -2.04373697E-02  3.36983691E-04 -1.39083873E-04  1.81408575E-05
  1.12133585E-02 -9.59675997E-04  5.77532180E-05  9.58269916E-05  1.29385964E-03
  1.22535446E-03  1.23605144E-03 -1.75756984E-05  9.42226880E-06 -2.84276923E-05
 -1.69613260E-08 -5.99501707E-09 -1.10347208E-04 -3.29721515E-04  1.10342616E-04
  3.29737330E-04 -1.51381969E-08 -1.70417478E-08  1.70353718E-04  1.94524737E-03
  1.84053073E-04  2.08235275E-03  8.95503068E-05  1.47941668E-03 -1.70342574E-04
 -1.94499789E-03 -1.84046347E-04 -2.08208638E-03 -8.95347781E-05 -1.47909187E-03
 -6.61810868E-05 -3.56903620E-04 -1.02716041E-08  1.31656786E-04 -3.81557914E-05
  1.19323313E-03  5.44235046E-08 -6.30034503E-04  3.32543918E-04 -1.43291289E-04
 -6.09791145E-05 -1.92750916E-04 -6.27681093E-09  2.33856188E-09 -1.33352909E-05
 -5.34864342E-03  3.21598007E-04  4.21362151E-09 -5.70215355E-05  1.96922621E-05
  3.38855093E-03  1.63402655E-07 -9.44076105E-04 -2.78171934E-05 -5.85012535E-04
 -3.27505507E-04 -1.54760640E-04  1.77123011E-08 -1.69329990E-08  7.55150790E-05
  7.03977142E-01  2.00119879E-02  1.75293627E-04  2.09894669E-04 -7.29392893E-05
 -9.58128825E-03 -1.86604403E-06 -3.46894645E-04  2.78014233E-04 -1.30786932E-03
 -1.35501338E-03 -1.36780746E-03  1.68782204E-06  2.62776620E-05 -1.88741706E-06
  7.04093474E-01  2.00153648E-02 -1.75348766E-04  2.09918114E-04 -7.29422751E-05
 -9.58314099E-03  2.02359915E-06 -3.46904166E-04  2.77998468E-04 -1.30808312E-03
 -1.35521579E-03 -1.36801176E-03 -1.68505906E-06 -2.62791863E-05 -1.88263451E-06
 -2.05147855E-04 -7.09297610E-05 -2.78207822E-05  9.59635988E-05 -2.78390077E-05
  9.59091737E-05 -1.83144864E-04 -2.07885403E-04  6.77489948E-05  1.50776771E-03
  4.05022863E-05  1.61486963E-03  9.40650361E-05  1.96553408E-03  6.77770594E-05
  1.50808922E-03  4.05327702E-05  1.61521347E-03  9.40798409E-05  1.96577854E-03
 -1.92503820E-01  4.10068992E-01 -2.77338187E-10  8.94099527E-04  2.71594433E-03
  4.18870391E-01  3.83712323E-09  3.71114094E-03  2.62692761E-03  1.40133663E-02
  1.03746900E-02  1.33013034E-02 -5.16610839E-09 -2.19969966E-09 -1.78022563E-03
 -6.64532733E-02  1.21730777E-01  8.92860922E-08  6.63311271E-02  2.44779568E-02
  6.13706641E-02  6.29720566E-09  4.44511055E-03  1.84934690E-03 -2.79174676E-03
  1.61609889E-02 -4.07393898E-05  2.91587817E-08  1.00276816E-08  7.31804001E-03
 -1.78783104E-02  3.39552119E-02  1.68546367E-02  1.48460644E-02 -4.03745300E-03
  1.57048491E-02  2.44432648E-03  1.75101293E-03 -1.46912090E-03  3.11385210E-03
  9.70348826E-04  1.97959112E-04  2.40959271E-03 -1.24921429E-03 -9.50509262E-04
 -1.78783121E-02  3.39552151E-02 -1.68545993E-02  1.48461093E-02 -4.03745250E-03
  1.57048497E-02 -2.44432180E-03  1.75101932E-03 -1.46912102E-03  3.11384128E-03
  9.70359377E-04  1.97959290E-04 -2.40959937E-03  1.24921180E-03 -9.50512163E-04
  2.73184432E-02  1.37314361E-03  1.08891796E-01 -7.02387914E-03  1.08891795E-01
 -7.02387839E-03  1.09867573E-01 -7.50334097E-03  5.28361825E-03 -6.81197190E-04
  7.93966084E-03  2.96065502E-03  7.80622213E-03  2.78213450E-03  5.28361889E-03
 -6.81197310E-04  7.93966308E-03  2.96065811E-03  7.80622151E-03  2.78213237E-03
  5.62550364E-02 -1.20983954E-01 -1.72707638E-07 -1.31426803E-01 -3.25460563E-02
 -1.69150029E-01 -8.28795670E-08 -6.33546758E-02 -1.60071550E-02 -9.29307416E-03
  7.64234204E-03 -6.88968198E-03  2.55105129E-08  8.43669299E-09  6.04921964E-03
 -1.36664290E-01  2.60578532E-01 -7.79791672E-08 -6.29160669E-02  1.88899220E-02
  2.28080982E-01 -1.13068908E-08 -9.45403179E-03  5.47217395E-03  1.18036346E-02
 -5.58295401E-03  4.50971841E-03 -2.63623272E-08 -7.52920345E-09 -6.12926270E-03
 -1.01453762E-01  1.88236925E-01  5.53889327E-02  2.05086326E-02 -1.79153715E-02
  1.55399868E-01  5.75070998E-03  1.99855105E-03 -3.02007181E-03  8.91765819E-03
  3.66197358E-03  3.02661779E-03  3.57775977E-03 -2.90925950E-03 -9.05408388E-04
 -1.01453767E-01  1.88236933E-01 -5.53888823E-02  2.05087765E-02 -1.79153703E-02
  1.55399874E-01 -5.75070558E-03  1.99856625E-03 -3.02006842E-03  8.91764238E-03
  3.66199050E-03  3.02661683E-03 -3.57777518E-03  2.90925760E-03 -9.05415596E-04
  7.74486143E-02  8.03717888E-03 -5.96884858E-02 -2.42596049E-03 -5.96884882E-02
 -2.42596209E-03 -5.24785334E-02 -2.05990462E-03  5.64449027E-02  6.25515167E-03
  5.50571080E-02  7.33630564E-03  5.12194314E-02  4.46477883E-03  5.64449077E-02
  6.25515221E-03  5.50571086E-02  7.33630436E-03  5.12194326E-02  4.46478023E-03
 -2.50546911E-10  4.45132898E-10 -8.24705664E-02  1.11509922E-07 -4.23838186E-09
  1.82134137E-09 -4.90515697E-02  6.57962051E-08 -1.53914408E-09  7.18822909E-10
  1.93382575E-09 -2.44945842E-09 -9.69389576E-04  3.15900463E-03 -3.31683443E-09
 -2.28839827E-09  4.69532391E-09 -1.81403329E-01  2.36689126E-07 -1.74173445E-09
  3.22053210E-09 -4.53977863E-02  6.00443539E-08 -3.15039034E-09  2.42028608E-08
 -2.43038601E-08  7.07387376E-10  1.08179907E-02 -1.19041622E-02  1.52202371E-08
 -1.35905355E-01  2.50637153E-01 -1.11174859E-02  1.10971571E-02 -5.96043758E-03
  2.64036121E-01  2.64875835E-04  8.15978116E-03  2.17788898E-03  3.18366090E-03
  7.24538078E-03  6.80721588E-03 -2.12247794E-03  1.65446701E-03  1.71987295E-04
  1.35905352E-01 -2.50637149E-01 -1.11175135E-02 -1.10971272E-02  5.96043162E-03
 -2.64036112E-01  2.64851686E-04 -8.15978235E-03 -2.17789130E-03 -3.18367011E-03
 -7.24537074E-03 -6.80721625E-03 -2.12248985E-03  1.65446644E-03 -1.71992241E-04
  4.14097535E-09 -7.55207514E-10  3.10537226E-02  3.62826180E-03 -3.10537106E-02
 -3.62825795E-03 -1.01765146E-08 -4.30441954E-09  8.72466559E-02  1.92325440E-02
  8.88603620E-02  1.74247828E-02  9.92446527E-02  2.47713293E-02 -8.72466518E-02
 -1.92325426E-02 -8.88603672E-02 -1.74247859E-02 -9.92446473E-02 -2.47713254E-02
  7.95751893E-03 -1.61749340E-02 -2.58775918E-07 -1.86208492E-01 -2.19815628E-01
 -3.67170509E-02 -1.51407185E-07 -1.07621620E-01 -1.34850608E-01 -1.92541321E-03
  1.24769798E-02 -1.39682557E-02  2.31048813E-08  4.55017725E-09  6.57417541E-03