
    -----------------------------------------------------------------------
          Psi4: An Open-Source Ab Initio Electronic Structure Package
                               Psi4 1.4a3.dev225 

                         Git: Rev {master} 7105e37 


    D. G. A. Smith, L. A. Burns, A. C. Simmonett, R. M. Parrish,
    M. C. Schieber, R. Galvelis, P. Kraus, H. Kruse, R. Di Remigio,
    A. Alenaizan, A. M. James, S. Lehtola, J. P. Misiewicz, M. Scheurer,
    R. A. Shaw, J. B. Schriber, Y. Xie, Z. L. Glick, D. A. Sirianni,
    J. S. O'Brien, J. M. Waldrop, A. Kumar, E. G. Hohenstein,
    B. P. Pritchard, B. R. Brooks, H. F. Schaefer III, A. Yu. Sokolov,
    K. Patkowski, A. E. DePrince III, U. Bozkaya, R. A. King,
    F. A. Evangelista, J. M. Turney, T. D. Crawford, C. D. Sherrill,
    J. Chem. Phys. 152(18) 184108 (2020). https://doi.org/10.1063/5.0006002

                            Additional Code Authors
    E. T. Seidl, C. L. Janssen, E. F. Valeev, M. L. Leininger,
    J. F. Gonthier, R. M. Richard, H. R. McAlexander, M. Saitow, X. Wang,
    P. Verma, and M. H. Lechner

             Previous Authors, Complete List of Code Contributors,
                       and Citations for Specific Modules
    https://github.com/psi4/psi4/blob/master/codemeta.json
    https://github.com/psi4/psi4/graphs/contributors
    http://psicode.org/psi4manual/master/introduction.html#citing-psifour

    -----------------------------------------------------------------------


    Psi4 started on: Saturday, 27 February 2021 06:52PM

    Process ID: 154048
    Host:       c402-053.stampede2.tacc.utexas.edu
    PSIDATADIR: /home1/07844/xy3866/miniconda3/envs/p4env/share/psi4
    Memory:     500.0 MiB
    Threads:    32
    
  ==> Input File <==

--------------------------------------------------------------------------
#psi4
#
memory 32 gb

molecule  {
0 1
  S        1.2258560    -1.1625810    -0.0000180
  N        0.3264180     1.2510610     0.0000150
  C       -1.5027778    -0.4212058    -0.0152594
  C       -0.0728400    -0.0059560    -0.0000040
  C       -2.2053760     0.1167870    -1.2644160
  C       -2.2053680     0.1167230     1.2644280
  C        2.3605110     0.1219000     0.0000040
  C        1.6961240     1.3252530     0.0000200
  H       -1.5697880    -1.5042720    -0.0000380
  H       -2.1392250     1.2073760    -1.2930360
  H       -3.2606770    -0.1742520    -1.2762350
  H       -1.7266260    -0.2804090    -2.1642060
  H       -1.7266100    -0.2805170     2.1641940
  H       -3.2606680    -0.1743180     1.2762400
  H       -2.1392170     1.2073110     1.2931010
  H        3.4272510    -0.0583780     0.0000030
  H        2.1774630     2.2973190     0.0000360
units angstrom
no_reorient  #important for SAPT in psi4, default
symmetry c1  #important for SAPT in psi4, default
}

set PROPERTIES_ORIGIN ["COM"]
properties('MP2/aug-cc-pvtz', properties = ['dipole'])
--------------------------------------------------------------------------

  Memory set to  29.802 GiB by Python driver.
    SCF Algorithm Type (re)set to DF.

*** tstart() called on c402-053.stampede2.tacc.utexas.edu
*** at Sat Feb 27 18:52:24 2021

   => Loading Basis Set <=

    Name: AUG-CC-PVTZ
    Role: ORBITAL
    Keyword: BASIS
    atoms 1    entry S          line   906 file /home1/07844/xy3866/miniconda3/envs/p4env/share/psi4/basis/aug-cc-pvtz.gbs 
    atoms 2    entry N          line   285 file /home1/07844/xy3866/miniconda3/envs/p4env/share/psi4/basis/aug-cc-pvtz.gbs 
    atoms 3-8  entry C          line   239 file /home1/07844/xy3866/miniconda3/envs/p4env/share/psi4/basis/aug-cc-pvtz.gbs 
    atoms 9-17 entry H          line    40 file /home1/07844/xy3866/miniconda3/envs/p4env/share/psi4/basis/aug-cc-pvtz.gbs 


         ---------------------------------------------------------
                                   SCF
               by Justin Turney, Rob Parrish, Andy Simmonett
                          and Daniel G. A. Smith
                              RHF Reference
                       32 Threads,  30517 MiB Core
         ---------------------------------------------------------

  ==> Geometry <==

    Molecular point group: c1
    Full point group: C1

    Geometry (in Angstrom), charge = 0, multiplicity = 1:

       Center              X                  Y                   Z               Mass       
    ------------   -----------------  -----------------  -----------------  -----------------
         S            1.144710037055    -1.144067789932     0.001422701859    31.972071174400
         N            0.245272037055     1.269574210068     0.001455701859    14.003074004430
         C           -1.583923762945    -0.402692589932    -0.013818698141    12.000000000000
         C           -0.153985962945     0.012557210068     0.001436701859    12.000000000000
         C           -2.286521962945     0.135300210068    -1.262975298141    12.000000000000
         C           -2.286513962945     0.135236210068     1.265868701859    12.000000000000
         C            2.279365037055     0.140413210068     0.001444701859    12.000000000000
         C            1.614978037055     1.343766210068     0.001460701859    12.000000000000
         H           -1.650933962945    -1.485758789932     0.001402701859     1.007825032230
         H           -2.220370962945     1.225889210068    -1.291595298141     1.007825032230
         H           -3.341822962945    -0.155738789932    -1.274794298141     1.007825032230
         H           -1.807771962945    -0.261895789932    -2.162765298141     1.007825032230
         H           -1.807755962945    -0.262003789932     2.165634701859     1.007825032230
         H           -3.341813962945    -0.155804789932     1.277680701859     1.007825032230
         H           -2.220362962945     1.225824210068     1.294541701859     1.007825032230
         H            3.346105037055    -0.039864789932     0.001443701859     1.007825032230
         H            2.096317037055     2.315832210068     0.001476701859     1.007825032230

  Running in c1 symmetry.

  Rotational constants: A =      0.10949  B =      0.04170  C =      0.03752 [cm^-1]
  Rotational constants: A =   3282.30511  B =   1250.12501  C =   1124.81295 [MHz]
  Nuclear repulsion =  437.598954718375410

  Charge       = 0
  Multiplicity = 1
  Electrons    = 68
  Nalpha       = 34
  Nbeta        = 34

  ==> Algorithm <==

  SCF Algorithm Type is DF.
  DIIS enabled.
  MOM disabled.
  Fractional occupation disabled.
  Guess Type is SAD.
  Energy threshold   = 1.00e-10
  Density threshold  = 1.00e-10
  Integral threshold = 1.00e-12

  ==> Primary Basis <==

  Basis Set: AUG-CC-PVTZ
    Blend: AUG-CC-PVTZ
    Number of shells: 195
    Number of basis functions: 579
    Number of Cartesian functions: 669
    Spherical Harmonics?: true
    Max angular momentum: 3

   => Loading Basis Set <=

    Name: (AUG-CC-PVTZ AUX)
    Role: JKFIT
    Keyword: DF_BASIS_SCF
    atoms 1    entry S          line   730 file /home1/07844/xy3866/miniconda3/envs/p4env/share/psi4/basis/aug-cc-pvtz-jkfit.gbs 
    atoms 2    entry N          line   224 file /home1/07844/xy3866/miniconda3/envs/p4env/share/psi4/basis/aug-cc-pvtz-jkfit.gbs 
    atoms 3-8  entry C          line   162 file /home1/07844/xy3866/miniconda3/envs/p4env/share/psi4/basis/aug-cc-pvtz-jkfit.gbs 
    atoms 9-17 entry H          line    70 file /home1/07844/xy3866/miniconda3/envs/p4env/share/psi4/basis/aug-cc-pvtz-jkfit.gbs 

  ==> Integral Setup <==

  DFHelper Memory: AOs need 3.191 GiB; user supplied 22.352 GiB. Using in-core AOs.

  ==> MemDFJK: Density-Fitted J/K Matrices <==

    J tasked:                   Yes
    K tasked:                   Yes
    wK tasked:                   No
    OpenMP threads:              32
    Memory [MiB]:             22888
    Algorithm:                 Core
    Schwarz Cutoff:           1E-12
    Mask sparsity (%):       5.7827
    Fitting Condition:        1E-10

   => Auxiliary Basis Set <=

  Basis Set: (AUG-CC-PVTZ AUX)
    Blend: AUG-CC-PVTZ-JKFIT
    Number of shells: 378
    Number of basis functions: 1288
    Number of Cartesian functions: 1592
    Spherical Harmonics?: true
    Max angular momentum: 4

  Minimum eigenvalue in the overlap matrix is 2.4661190942E-06.
  Reciprocal condition number of the overlap matrix is 1.2739401356E-07.
    Using symmetric orthogonalization.

  ==> Pre-Iterations <==

  SCF Guess: Superposition of Atomic Densities via on-the-fly atomic UHF (no occupation information).

   -------------------------
    Irrep   Nso     Nmo    
   -------------------------
     A        579     579 
   -------------------------
    Total     579     579
   -------------------------

  ==> Iterations <==

                           Total Energy        Delta E     RMS |[F,P]|

   @DF-RHF iter SAD:  -684.21294545649380   -6.84213e+02   0.00000e+00 
   @DF-RHF iter   1:  -684.23020598273229   -1.72605e-02   1.20589e-03 DIIS
   @DF-RHF iter   2:  -684.42980383907673   -1.99598e-01   7.58532e-04 DIIS
   @DF-RHF iter   3:  -684.52527393208118   -9.54701e-02   1.61081e-04 DIIS
   @DF-RHF iter   4:  -684.53155769493026   -6.28376e-03   7.06508e-05 DIIS
   @DF-RHF iter   5:  -684.53284201628082   -1.28432e-03   1.63120e-05 DIIS
   @DF-RHF iter   6:  -684.53300063229688   -1.58616e-04   7.54564e-06 DIIS
   @DF-RHF iter   7:  -684.53304864051358   -4.80082e-05   3.06391e-06 DIIS
   @DF-RHF iter   8:  -684.53305624307495   -7.60256e-06   1.15847e-06 DIIS
   @DF-RHF iter   9:  -684.53305711086932   -8.67794e-07   3.80882e-07 DIIS
   @DF-RHF iter  10:  -684.53305717943329   -6.85640e-08   1.73936e-07 DIIS
   @DF-RHF iter  11:  -684.53305719093203   -1.14987e-08   5.66738e-08 DIIS
   @DF-RHF iter  12:  -684.53305719275841   -1.82638e-09   2.99888e-08 DIIS
   @DF-RHF iter  13:  -684.53305719317984   -4.21437e-10   9.07738e-09 DIIS
   @DF-RHF iter  14:  -684.53305719324294   -6.30962e-11   3.50520e-09 DIIS
   @DF-RHF iter  15:  -684.53305719325260   -9.66338e-12   1.46399e-09 DIIS
   @DF-RHF iter  16:  -684.53305719325385   -1.25056e-12   5.99824e-10 DIIS
   @DF-RHF iter  17:  -684.53305719325272    1.13687e-12   1.66673e-10 DIIS
   @DF-RHF iter  18:  -684.53305719325306   -3.41061e-13   6.60666e-11 DIIS
  Energy and wave function converged.


  ==> Post-Iterations <==

    Orbital Energies [Eh]
    ---------------------

    Doubly Occupied:                                                      

       1A    -91.993647     2A    -15.564113     3A    -11.310038  
       4A    -11.269013     5A    -11.260368     6A    -11.248643  
       7A    -11.220337     8A    -11.219409     9A     -8.994339  
      10A     -6.675242    11A     -6.674722    12A     -6.674013  
      13A     -1.275012    14A     -1.093737    15A     -1.061297  
      16A     -0.980429    17A     -0.933689    18A     -0.842951  
      19A     -0.793155    20A     -0.717250    21A     -0.683949  
      22A     -0.623990    23A     -0.601017    24A     -0.586792  
      25A     -0.567232    26A     -0.545159    27A     -0.531041  
      28A     -0.505190    29A     -0.501893    30A     -0.487240  
      31A     -0.480559    32A     -0.422074    33A     -0.386862  
      34A     -0.327354  

    Virtual:                                                              

      35A      0.028636    36A      0.031846    37A      0.038785  
      38A      0.040593    39A      0.046767    40A      0.052782  
      41A      0.062071    42A      0.063970    43A      0.066659  
      44A      0.082837    45A      0.098070    46A      0.099814  
      47A      0.100693    48A      0.102971    49A      0.110031  
      50A      0.113972    51A      0.118562    52A      0.125098  
      53A      0.128088    54A      0.130092    55A      0.134264  
      56A      0.136645    57A      0.141149    58A      0.152115  
      59A      0.153548    60A      0.154001    61A      0.160382  
      62A      0.164620    63A      0.169484    64A      0.174657  
      65A      0.184408    66A      0.187100    67A      0.190513  
      68A      0.192564    69A      0.200576    70A      0.215296  
      71A      0.226299    72A      0.231175    73A      0.231557  
      74A      0.247012    75A      0.250881    76A      0.255785  
      77A      0.265862    78A      0.270904    79A      0.277318  
      80A      0.283053    81A      0.286509    82A      0.292778  
      83A      0.301794    84A      0.304873    85A      0.316254  
      86A      0.320518    87A      0.326956    88A      0.327928  
      89A      0.331861    90A      0.341602    91A      0.352253  
      92A      0.354875    93A      0.357556    94A      0.365691  
      95A      0.366698    96A      0.375108    97A      0.376555  
      98A      0.380406    99A      0.383396   100A      0.388185  
     101A      0.393973   102A      0.402005   103A      0.416164  
     104A      0.417499   105A      0.419284   106A      0.423145  
     107A      0.430190   108A      0.437460   109A      0.439963  
     110A      0.440530   111A      0.440655   112A      0.453826  
     113A      0.456687   114A      0.464446   115A      0.464570  
     116A      0.470632   117A      0.475153   118A      0.476923  
     119A      0.487158   120A      0.489022   121A      0.496270  
     122A      0.504034   123A      0.506865   124A      0.512542  
     125A      0.515361   126A      0.517336   127A      0.526410  
     128A      0.529185   129A      0.533853   130A      0.539143  
     131A      0.544797   132A      0.549582   133A      0.552679  
     134A      0.554888   135A      0.569284   136A      0.583717  
     137A      0.585371   138A      0.588550   139A      0.593130  
     140A      0.597818   141A      0.605108   142A      0.610958  
     143A      0.623795   144A      0.631499   145A      0.636736  
     146A      0.640420   147A      0.645098   148A      0.652057  
     149A      0.656570   150A      0.666864   151A      0.669233  
     152A      0.677013   153A      0.698963   154A      0.717769  
     155A      0.719990   156A      0.724766   157A      0.747678  
     158A      0.750812   159A      0.759045   160A      0.765623  
     161A      0.768002   162A      0.778050   163A      0.784943  
     164A      0.799685   165A      0.806927   166A      0.811741  
     167A      0.816251   168A      0.825903   169A      0.844141  
     170A      0.846099   171A      0.851331   172A      0.856294  
     173A      0.864521   174A      0.871829   175A      0.873574  
     176A      0.880947   177A      0.887899   178A      0.891692  
     179A      0.905903   180A      0.910689   181A      0.914789  
     182A      0.923672   183A      0.932658   184A      0.940906  
     185A      0.942254   186A      0.944716   187A      0.958972  
     188A      0.963226   189A      0.967560   190A      0.969310  
     191A      0.975859   192A      0.978095   193A      0.986335  
     194A      0.994446   195A      0.997588   196A      1.001794  
     197A      1.013806   198A      1.024968   199A      1.032516  
     200A      1.037920   201A      1.051306   202A      1.055828  
     203A      1.059053   204A      1.065596   205A      1.071254  
     206A      1.073389   207A      1.076358   208A      1.089401  
     209A      1.095171   210A      1.103709   211A      1.107034  
     212A      1.112488   213A      1.114825   214A      1.126895  
     215A      1.137543   216A      1.145105   217A      1.151409  
     218A      1.159452   219A      1.160695   220A      1.167334  
     221A      1.175970   222A      1.183707   223A      1.186946  
     224A      1.194540   225A      1.200801   226A      1.203127  
     227A      1.212743   228A      1.216995   229A      1.226801  
     230A      1.235242   231A      1.235870   232A      1.253264  
     233A      1.255921   234A      1.273418   235A      1.278634  
     236A      1.285683   237A      1.287642   238A      1.305358  
     239A      1.307866   240A      1.313041   241A      1.340379  
     242A      1.342681   243A      1.344823   244A      1.360374  
     245A      1.365412   246A      1.386841   247A      1.387365  
     248A      1.401533   249A      1.404105   250A      1.405646  
     251A      1.423931   252A      1.424638   253A      1.448183  
     254A      1.459039   255A      1.463975   256A      1.488372  
     257A      1.491466   258A      1.494394   259A      1.501809  
     260A      1.511789   261A      1.512466   262A      1.533151  
     263A      1.549248   264A      1.550508   265A      1.561555  
     266A      1.566038   267A      1.570215   268A      1.585252  
     269A      1.600761   270A      1.615498   271A      1.617503  
     272A      1.629787   273A      1.636396   274A      1.644106  
     275A      1.660961   276A      1.666174   277A      1.682101  
     278A      1.690934   279A      1.693143   280A      1.702980  
     281A      1.706525   282A      1.718246   283A      1.729025  
     284A      1.729949   285A      1.735091   286A      1.745398  
     287A      1.746403   288A      1.756959   289A      1.765866  
     290A      1.769966   291A      1.796933   292A      1.800247  
     293A      1.815571   294A      1.831039   295A      1.839962  
     296A      1.853524   297A      1.856704   298A      1.867222  
     299A      1.877655   300A      1.887293   301A      1.897903  
     302A      1.905612   303A      1.914082   304A      1.915883  
     305A      1.922766   306A      1.940797   307A      1.956551  
     308A      1.958458   309A      1.975442   310A      1.981797  
     311A      1.994814   312A      2.005177   313A      2.016007  
     314A      2.022862   315A      2.024329   316A      2.033204  
     317A      2.037493   318A      2.054422   319A      2.088260  
     320A      2.091419   321A      2.112431   322A      2.119995  
     323A      2.132293   324A      2.151988   325A      2.154931  
     326A      2.167699   327A      2.175817   328A      2.177781  
     329A      2.183550   330A      2.201397   331A      2.206542  
     332A      2.240306   333A      2.248126   334A      2.251036  
     335A      2.269660   336A      2.287747   337A      2.289956  
     338A      2.294050   339A      2.296875   340A      2.302664  
     341A      2.320066   342A      2.325458   343A      2.369758  
     344A      2.377567   345A      2.384248   346A      2.394096  
     347A      2.398137   348A      2.405827   349A      2.428402  
     350A      2.435701   351A      2.437901   352A      2.452652  
     353A      2.475622   354A      2.500065   355A      2.517996  
     356A      2.527863   357A      2.532283   358A      2.541434  
     359A      2.578646   360A      2.587273   361A      2.618325  
     362A      2.620482   363A      2.637678   364A      2.656378  
     365A      2.680366   366A      2.697857   367A      2.714055  
     368A      2.760707   369A      2.777734   370A      2.800100  
     371A      2.837744   372A      2.842665   373A      2.872735  
     374A      2.915327   375A      2.932968   376A      2.949283  
     377A      2.980637   378A      3.005808   379A      3.059002  
     380A      3.102782   381A      3.144468   382A      3.170879  
     383A      3.223460   384A      3.229422   385A      3.252152  
     386A      3.291104   387A      3.297039   388A      3.312852  
     389A      3.357124   390A      3.371766   391A      3.393359  
     392A      3.420289   393A      3.430953   394A      3.438714  
     395A      3.470823   396A      3.482059   397A      3.515056  
     398A      3.521973   399A      3.530409   400A      3.536217  
     401A      3.546081   402A      3.580739   403A      3.594917  
     404A      3.614069   405A      3.617545   406A      3.627796  
     407A      3.644965   408A      3.652674   409A      3.685965  
     410A      3.697678   411A      3.707037   412A      3.709915  
     413A      3.725034   414A      3.725916   415A      3.745401  
     416A      3.760191   417A      3.776956   418A      3.779591  
     419A      3.784690   420A      3.793365   421A      3.812785  
     422A      3.814776   423A      3.828078   424A      3.843645  
     425A      3.847077   426A      3.887621   427A      3.895047  
     428A      3.897379   429A      3.913146   430A      3.924931  
     431A      3.937969   432A      3.943481   433A      3.945656  
     434A      3.954550   435A      3.961457   436A      3.992171  
     437A      4.007386   438A      4.014483   439A      4.027013  
     440A      4.030146   441A      4.042934   442A      4.051152  
     443A      4.058235   444A      4.066766   445A      4.087368  
     446A      4.111731   447A      4.116750   448A      4.124341  
     449A      4.138110   450A      4.158307   451A      4.186458  
     452A      4.194843   453A      4.200129   454A      4.224381  
     455A      4.234231   456A      4.251024   457A      4.266388  
     458A      4.271767   459A      4.284718   460A      4.293896  
     461A      4.303596   462A      4.308968   463A      4.323200  
     464A      4.327038   465A      4.353779   466A      4.383502  
     467A      4.390509   468A      4.398695   469A      4.418237  
     470A      4.431776   471A      4.439812   472A      4.473412  
     473A      4.490727   474A      4.509250   475A      4.524488  
     476A      4.537386   477A      4.553087   478A      4.565485  
     479A      4.595492   480A      4.632344   481A      4.636086  
     482A      4.673423   483A      4.679704   484A      4.693701  
     485A      4.704189   486A      4.738877   487A      4.749180  
     488A      4.787009   489A      4.800111   490A      4.813621  
     491A      4.844586   492A      4.847936   493A      4.867902  
     494A      4.870526   495A      4.899933   496A      4.910989  
     497A      4.918526   498A      4.930580   499A      4.940017  
     500A      4.952141   501A      4.993065   502A      4.995390  
     503A      5.003650   504A      5.036235   505A      5.069782  
     506A      5.114385   507A      5.123130   508A      5.137960  
     509A      5.160813   510A      5.172992   511A      5.199642  
     512A      5.217524   513A      5.234597   514A      5.242904  
     515A      5.268098   516A      5.293585   517A      5.302425  
     518A      5.319164   519A      5.326190   520A      5.338260  
     521A      5.382659   522A      5.385191   523A      5.414738  
     524A      5.448377   525A      5.478507   526A      5.483895  
     527A      5.494013   528A      5.511592   529A      5.533528  
     530A      5.547349   531A      5.575966   532A      5.579939  
     533A      5.594063   534A      5.656369   535A      5.680456  
     536A      5.702641   537A      5.716291   538A      5.761594  
     539A      5.762777   540A      5.817642   541A      5.843185  
     542A      5.849114   543A      5.873337   544A      5.881736  
     545A      5.888678   546A      5.936364   547A      5.948796  
     548A      5.976431   549A      6.049792   550A      6.118920  
     551A      6.137051   552A      6.144896   553A      6.162722  
     554A      6.201517   555A      6.229668   556A      6.242716  
     557A      6.298968   558A      6.318271   559A      6.350562  
     560A      6.364495   561A      6.568325   562A      6.605904  
     563A      6.712217   564A      6.761092   565A      6.816886  
     566A      6.843902   567A      6.885982   568A      6.900327  
     569A      6.940965   570A      7.007920   571A      7.109493  
     572A      8.875856   573A     15.872222   574A     16.340820  
     575A     16.620475   576A     17.990224   577A     17.997170  
     578A     18.850168   579A     19.608965  

    Final Occupation by Irrep:
              A 
    DOCC [    34 ]

  @DF-RHF Final Energy:  -684.53305719325306

   => Energetics <=

    Nuclear Repulsion Energy =            437.5989547183754098
    One-Electron Energy =               -1806.1605174203216393
    Two-Electron Energy =                 684.0285055086932289
    Total Energy =                       -684.5330571932530574

Computation Completed

*** tstop() called on c402-053.stampede2.tacc.utexas.edu at Sat Feb 27 18:52:55 2021
Module time:
	user time   =     505.99 seconds =       8.43 minutes
	system time =      38.23 seconds =       0.64 minutes
	total time  =         31 seconds =       0.52 minutes
Total time:
	user time   =     505.99 seconds =       8.43 minutes
	system time =      38.23 seconds =       0.64 minutes
	total time  =         31 seconds =       0.52 minutes
   => Loading Basis Set <=

    Name: (AUG-CC-PVTZ AUX)
    Role: RIFIT
    Keyword: DF_BASIS_MP2
    atoms 1    entry S          line   666 file /home1/07844/xy3866/miniconda3/envs/p4env/share/psi4/basis/aug-cc-pvtz-ri.gbs 
    atoms 2    entry N          line   206 file /home1/07844/xy3866/miniconda3/envs/p4env/share/psi4/basis/aug-cc-pvtz-ri.gbs 
    atoms 3-8  entry C          line   148 file /home1/07844/xy3866/miniconda3/envs/p4env/share/psi4/basis/aug-cc-pvtz-ri.gbs 
    atoms 9-17 entry H          line    30 file /home1/07844/xy3866/miniconda3/envs/p4env/share/psi4/basis/aug-cc-pvtz-ri.gbs 


*** tstart() called on c402-053.stampede2.tacc.utexas.edu
*** at Sat Feb 27 18:52:56 2021


  //>>>>>>>>>>>>>>>>>>>>>>>>>>>>>>>>>>>//
  //               DFMP2               //
  //<<<<<<<<<<<<<<<<<<<<<<<<<<<<<<<<<<<//

	 --------------------------------------------------------
	                          DF-MP2                         
	      2nd-Order Density-Fitted Moller-Plesset Theory     
	              RMP2 Wavefunction,  32 Threads             
	                                                         
	        Rob Parrish, Justin Turney, Andy Simmonett,      
	           Ed Hohenstein, and C. David Sherrill          
	 --------------------------------------------------------

   => Auxiliary Basis Set <=

  Basis Set: (AUG-CC-PVTZ AUX)
    Blend: AUG-CC-PVTZ-RI
    Number of shells: 359
    Number of basis functions: 1303
    Number of Cartesian functions: 1638
    Spherical Harmonics?: true
    Max angular momentum: 4

	 --------------------------------------------------------
	                 NBF =   579, NAUX =  1303
	 --------------------------------------------------------
	   CLASS    FOCC     OCC    AOCC    AVIR     VIR    FVIR
	   PAIRS       0      34      34     545     545       0
	 --------------------------------------------------------

  DFHelper Memory: AOs need 3.265 GiB; user supplied 22.352 GiB. Using in-core AOs.


         ------------------------------------------------------------
                                     CPHF                           
                                  Rob Parrish                       
         ------------------------------------------------------------

  ==> Geometry <==

    Molecular point group: c1
    Full point group: C1

    Geometry (in Angstrom), charge = 0, multiplicity = 1:

       Center              X                  Y                   Z               Mass       
    ------------   -----------------  -----------------  -----------------  -----------------
         S            1.144710037055    -1.144067789932     0.001422701859    31.972071174400
         N            0.245272037055     1.269574210068     0.001455701859    14.003074004430
         C           -1.583923762945    -0.402692589932    -0.013818698141    12.000000000000
         C           -0.153985962945     0.012557210068     0.001436701859    12.000000000000
         C           -2.286521962945     0.135300210068    -1.262975298141    12.000000000000
         C           -2.286513962945     0.135236210068     1.265868701859    12.000000000000
         C            2.279365037055     0.140413210068     0.001444701859    12.000000000000
         C            1.614978037055     1.343766210068     0.001460701859    12.000000000000
         H           -1.650933962945    -1.485758789932     0.001402701859     1.007825032230
         H           -2.220370962945     1.225889210068    -1.291595298141     1.007825032230
         H           -3.341822962945    -0.155738789932    -1.274794298141     1.007825032230
         H           -1.807771962945    -0.261895789932    -2.162765298141     1.007825032230
         H           -1.807755962945    -0.262003789932     2.165634701859     1.007825032230
         H           -3.341813962945    -0.155804789932     1.277680701859     1.007825032230
         H           -2.220362962945     1.225824210068     1.294541701859     1.007825032230
         H            3.346105037055    -0.039864789932     0.001443701859     1.007825032230
         H            2.096317037055     2.315832210068     0.001476701859     1.007825032230

  Nuclear repulsion =  437.598954718375410
  Reference energy  = -684.533057193253057

  ==> Basis Set <==

  Basis Set: AUG-CC-PVTZ
    Blend: AUG-CC-PVTZ
    Number of shells: 195
    Number of basis functions: 579
    Number of Cartesian functions: 669
    Spherical Harmonics?: true
    Max angular momentum: 3

  ==> CGRSolver (by Rob Parrish) <==

   Number of roots    =         1
   Preconditioning    =    JACOBI
   Convergence cutoff =     1E-06
   Maximum iterations =       100

  ==> CPHFRHamiltonian (by Rob Parrish) <== 

  ==> MemDFJK: Density-Fitted J/K Matrices <==

    J tasked:                   Yes
    K tasked:                   Yes
    wK tasked:                   No
    OpenMP threads:              32
    Memory [MiB]:             22888
    Algorithm:                 Core
    Schwarz Cutoff:           1E-12
    Mask sparsity (%):       3.4906
    Fitting Condition:        1E-10

   => Auxiliary Basis Set <=

  Basis Set: (AUG-CC-PVTZ AUX)
    Blend: AUG-CC-PVTZ-JKFIT
    Number of shells: 378
    Number of basis functions: 1288
    Number of Cartesian functions: 1592
    Spherical Harmonics?: true
    Max angular momentum: 4

  ==> CPHF Iterations <==

  => Iterations <=

             Iter  Converged  Remaining    Residual
  CGR           1          0          1   1.299E-01
  CGR           2          0          1   4.757E-02
  CGR           3          0          1   2.606E-02
  CGR           4          0          1   8.980E-03
  CGR           5          0          1   2.926E-03
  CGR           6          0          1   1.240E-03
  CGR           7          0          1   5.037E-04
  CGR           8          0          1   2.095E-04
  CGR           9          0          1   6.626E-05
  CGR          10          0          1   2.034E-05
  CGR          11          0          1   9.189E-06
  CGR          12          0          1   3.240E-06
  CGR          13          1          0   9.865E-07

    CGRSolver converged.

	-----------------------------------------------------------
	 ==================> DF-MP2 Energies <==================== 
	-----------------------------------------------------------
	 Reference Energy          =    -684.5330571932530574 [Eh]
	 Singles Energy            =      -0.0000000000000000 [Eh]
	 Same-Spin Energy          =      -0.3769176168760072 [Eh]
	 Opposite-Spin Energy      =      -1.1968544589709311 [Eh]
	 Correlation Energy        =      -1.5737720758469385 [Eh]
	 Total Energy              =    -686.1068292690999897 [Eh]
	-----------------------------------------------------------
	 ================> DF-SCS-MP2 Energies <================== 
	-----------------------------------------------------------
	 SCS Same-Spin Scale       =       0.3333333333333333 [-]
	 SCS Opposite-Spin Scale   =       1.2000000000000000 [-]
	 SCS Same-Spin Energy      =      -0.1256392056253357 [Eh]
	 SCS Opposite-Spin Energy  =      -1.4362253507651173 [Eh]
	 SCS Correlation Energy    =      -1.5618645563904530 [Eh]
	 SCS Total Energy          =    -686.0949217496435040 [Eh]
	-----------------------------------------------------------



Properties will be evaluated at  -0.000000,   0.000000,   0.000000 [a0]

Properties computed using the MP2 density matrix

  Nuclear Dipole Moment: [e a0]
     X:   -10.2343      Y:     2.2221      Z:     0.0122

  Electronic Dipole Moment: [e a0]
     X:    10.4261      Y:    -2.6755      Z:    -0.0163

  Dipole Moment: [e a0]
     X:     0.1918      Y:    -0.4534      Z:    -0.0041     Total:     0.4923

  Dipole Moment: [D]
     X:     0.4875      Y:    -1.1524      Z:    -0.0104     Total:     1.2513


*** tstop() called on c402-053.stampede2.tacc.utexas.edu at Sat Feb 27 18:56:13 2021
Module time:
	user time   =    1371.16 seconds =      22.85 minutes
	system time =      48.87 seconds =       0.81 minutes
	total time  =        197 seconds =       3.28 minutes
Total time:
	user time   =    1877.99 seconds =      31.30 minutes
	system time =      87.12 seconds =       1.45 minutes
	total time  =        229 seconds =       3.82 minutes

    Psi4 stopped on: Saturday, 27 February 2021 06:56PM
    Psi4 wall time for execution: 0:03:49.97

*** Psi4 exiting successfully. Buy a developer a beer!
