182320                                                                  
Freq      RMP2-FC                                                     6-31G(d)            
Number of atoms                            I               18
Info1-9                                    I   N=           9
          30          28        1002           0           0         100
           6           2           1
Charge                                     I                0
Multiplicity                               I                1
Number of electrons                        I               66
Number of alpha electrons                  I               33
Number of beta electrons                   I               33
Number of basis functions                  I              153
Number of independent functions            I              153
Number of point charges in /Mol/           I                0
Number of translation vectors              I                0
Atomic numbers                             I   N=          18
           8           7           6           6           6           6
           6           6           6           1           1           1
           1           1           1           1           1           1
Nuclear charges                            R   N=          18
  8.00000000E+00  7.00000000E+00  6.00000000E+00  6.00000000E+00  6.00000000E+00
  6.00000000E+00  6.00000000E+00  6.00000000E+00  6.00000000E+00  1.00000000E+00
  1.00000000E+00  1.00000000E+00  1.00000000E+00  1.00000000E+00  1.00000000E+00
  1.00000000E+00  1.00000000E+00  1.00000000E+00
Current cartesian coordinates              R   N=          54
 -4.06002204E+00 -3.35789268E+00 -1.06508748E-02 -2.23175339E-01 -1.40421097E+00
 -4.74638600E-01  1.37947400E+00  6.31126041E-01 -5.59020512E-01  4.12312212E+00
  7.69480148E-02 -1.01141187E+00  3.90162368E-01  2.98622597E+00 -1.42066704E-01
  5.37313420E+00 -1.25285803E+00  1.23770846E+00 -2.83867603E+00 -1.36619849E+00
 -1.43402743E-02 -2.24231758E+00  3.22725472E+00  3.45673550E-01 -3.79712485E+00
  1.16200401E+00  4.15450606E-01  4.31842300E+00 -1.08465747E+00 -2.71913147E+00
  5.08625647E+00  1.86600436E+00 -1.39727090E+00  4.62507881E-01 -3.17317858E+00
 -7.94444688E-01  1.61534403E+00  4.62847421E+00 -1.95122411E-01  7.37783746E+00
 -1.58693586E+00  8.63823221E-01  4.48629472E+00 -3.07862842E+00  1.62595664E+00
  5.20921830E+00 -9.21247898E-02  2.93825557E+00 -3.03274271E+00  5.09739515E+00
  6.71252612E-01 -5.80738073E+00  1.32925619E+00  7.82399072E-01
Force Field                                I                0
Int Atom Types                             I   N=          18
           0           0           0           0           0           0
           0           0           0           0           0           0
           0           0           0           0           0           0
MM charges                                 R   N=          18
  0.00000000E+00  0.00000000E+00  0.00000000E+00  0.00000000E+00  0.00000000E+00
  0.00000000E+00  0.00000000E+00  0.00000000E+00  0.00000000E+00  0.00000000E+00
  0.00000000E+00  0.00000000E+00  0.00000000E+00  0.00000000E+00  0.00000000E+00
  0.00000000E+00  0.00000000E+00  0.00000000E+00
Integer atomic weights                     I   N=          18
          16          14          12          12          12          12
          12          12          12           1           1           1
           1           1           1           1           1           1
Real atomic weights                        R   N=          18
  1.59949146E+01  1.40030740E+01  1.20000000E+01  1.20000000E+01  1.20000000E+01
  1.20000000E+01  1.20000000E+01  1.20000000E+01  1.20000000E+01  1.00782504E+00
  1.00782504E+00  1.00782504E+00  1.00782504E+00  1.00782504E+00  1.00782504E+00
  1.00782504E+00  1.00782504E+00  1.00782504E+00
Atom fragment info                         I   N=          18
           0           0           0           0           0           0
           0           0           0           0           0           0
           0           0           0           0           0           0
Atom residue num                           I   N=          18
           0           0           0           0           0           0
           0           0           0           0           0           0
           0           0           0           0           0           0
Nuclear spins                              I   N=          18
           0           2           0           0           0           0
           0           0           0           1           1           1
           1           1           1           1           1           1
Nuclear ZEff                               R   N=          18
 -5.60000000E+00 -4.55000000E+00 -3.60000000E+00 -3.60000000E+00 -3.60000000E+00
 -3.60000000E+00 -3.60000000E+00 -3.60000000E+00 -3.60000000E+00 -1.00000000E+00
 -1.00000000E+00 -1.00000000E+00 -1.00000000E+00 -1.00000000E+00 -1.00000000E+00
 -1.00000000E+00 -1.00000000E+00 -1.00000000E+00
Nuclear QMom                               R   N=          18
  0.00000000E+00  2.04400000E+00  0.00000000E+00  0.00000000E+00  0.00000000E+00
  0.00000000E+00  0.00000000E+00  0.00000000E+00  0.00000000E+00  0.00000000E+00
  0.00000000E+00  0.00000000E+00  0.00000000E+00  0.00000000E+00  0.00000000E+00
  0.00000000E+00  0.00000000E+00  0.00000000E+00
Nuclear GFac                               R   N=          18
  0.00000000E+00  4.03761000E-01  0.00000000E+00  0.00000000E+00  0.00000000E+00
  0.00000000E+00  0.00000000E+00  0.00000000E+00  0.00000000E+00  2.79284600E+00
  2.79284600E+00  2.79284600E+00  2.79284600E+00  2.79284600E+00  2.79284600E+00
  2.79284600E+00  2.79284600E+00  2.79284600E+00
MicOpt                                     I   N=          18
          -1          -1          -1          -1          -1          -1
          -1          -1          -1          -1          -1          -1
          -1          -1          -1          -1          -1          -1
Number of contracted shells                I               54
Number of primitive shells                 I              135
Pure/Cartesian d shells                    I                1
Pure/Cartesian f shells                    I                0
Highest angular momentum                   I                2
Largest degree of contraction              I                6
Shell types                                I   N=          54
           0          -1          -1           2           0          -1
          -1           2           0          -1          -1           2
           0          -1          -1           2           0          -1
          -1           2           0          -1          -1           2
           0          -1          -1           2           0          -1
          -1           2           0          -1          -1           2
           0           0           0           0           0           0
           0           0           0           0           0           0
           0           0           0           0           0           0
Number of primitives per shell             I   N=          54
           6           3           1           1           6           3
           1           1           6           3           1           1
           6           3           1           1           6           3
           1           1           6           3           1           1
           6           3           1           1           6           3
           1           1           6           3           1           1
           3           1           3           1           3           1
           3           1           3           1           3           1
           3           1           3           1           3           1
Shell to atom map                          I   N=          54
           1           1           1           1           2           2
           2           2           3           3           3           3
           4           4           4           4           5           5
           5           5           6           6           6           6
           7           7           7           7           8           8
           8           8           9           9           9           9
          10          10          11          11          12          12
          13          13          14          14          15          15
          16          16          17          17          18          18
Primitive exponents                        R   N=         135
  5.48467166E+03  8.25234946E+02  1.88046958E+02  5.29645000E+01  1.68975704E+01
  5.79963534E+00  1.55396162E+01  3.59993359E+00  1.01376175E+00  2.70005823E-01
  8.00000000E-01  4.17351146E+03  6.27457911E+02  1.42902093E+02  4.02343293E+01
  1.28202129E+01  4.39043701E+00  1.16263619E+01  2.71627981E+00  7.72218397E-01
  2.12031498E-01  8.00000000E-01  3.04752488E+03  4.57369518E+02  1.03948685E+02
  2.92101553E+01  9.28666296E+00  3.16392696E+00  7.86827235E+00  1.88128854E+00
  5.44249258E-01  1.68714478E-01  8.00000000E-01  3.04752488E+03  4.57369518E+02
  1.03948685E+02  2.92101553E+01  9.28666296E+00  3.16392696E+00  7.86827235E+00
  1.88128854E+00  5.44249258E-01  1.68714478E-01  8.00000000E-01  3.04752488E+03
  4.57369518E+02  1.03948685E+02  2.92101553E+01  9.28666296E+00  3.16392696E+00
  7.86827235E+00  1.88128854E+00  5.44249258E-01  1.68714478E-01  8.00000000E-01
  3.04752488E+03  4.57369518E+02  1.03948685E+02  2.92101553E+01  9.28666296E+00
  3.16392696E+00  7.86827235E+00  1.88128854E+00  5.44249258E-01  1.68714478E-01
  8.00000000E-01  3.04752488E+03  4.57369518E+02  1.03948685E+02  2.92101553E+01
  9.28666296E+00  3.16392696E+00  7.86827235E+00  1.88128854E+00  5.44249258E-01
  1.68714478E-01  8.00000000E-01  3.04752488E+03  4.57369518E+02  1.03948685E+02
  2.92101553E+01  9.28666296E+00  3.16392696E+00  7.86827235E+00  1.88128854E+00
  5.44249258E-01  1.68714478E-01  8.00000000E-01  3.04752488E+03  4.57369518E+02
  1.03948685E+02  2.92101553E+01  9.28666296E+00  3.16392696E+00  7.86827235E+00
  1.88128854E+00  5.44249258E-01  1.68714478E-01  8.00000000E-01  1.87311370E+01
  2.82539436E+00  6.40121692E-01  1.61277759E-01  1.87311370E+01  2.82539436E+00
  6.40121692E-01  1.61277759E-01  1.87311370E+01  2.82539436E+00  6.40121692E-01
  1.61277759E-01  1.87311370E+01  2.82539436E+00  6.40121692E-01  1.61277759E-01
  1.87311370E+01  2.82539436E+00  6.40121692E-01  1.61277759E-01  1.87311370E+01
  2.82539436E+00  6.40121692E-01  1.61277759E-01  1.87311370E+01  2.82539436E+00
  6.40121692E-01  1.61277759E-01  1.87311370E+01  2.82539436E+00  6.40121692E-01
  1.61277759E-01  1.87311370E+01  2.82539436E+00  6.40121692E-01  1.61277759E-01
Contraction coefficients                   R   N=         135
  1.83107443E-03  1.39501722E-02  6.84450781E-02  2.32714336E-01  4.70192898E-01
  3.58520853E-01 -1.10777550E-01 -1.48026263E-01  1.13076702E+00  1.00000000E+00
  1.00000000E+00  1.83477216E-03  1.39946270E-02  6.85865518E-02  2.32240873E-01
  4.69069948E-01  3.60455199E-01 -1.14961182E-01 -1.69117479E-01  1.14585195E+00
  1.00000000E+00  1.00000000E+00  1.83473713E-03  1.40373228E-02  6.88426223E-02
  2.32184443E-01  4.67941348E-01  3.62311985E-01 -1.19332420E-01 -1.60854152E-01
  1.14345644E+00  1.00000000E+00  1.00000000E+00  1.83473713E-03  1.40373228E-02
  6.88426223E-02  2.32184443E-01  4.67941348E-01  3.62311985E-01 -1.19332420E-01
 -1.60854152E-01  1.14345644E+00  1.00000000E+00  1.00000000E+00  1.83473713E-03
  1.40373228E-02  6.88426223E-02  2.32184443E-01  4.67941348E-01  3.62311985E-01
 -1.19332420E-01 -1.60854152E-01  1.14345644E+00  1.00000000E+00  1.00000000E+00
  1.83473713E-03  1.40373228E-02  6.88426223E-02  2.32184443E-01  4.67941348E-01
  3.62311985E-01 -1.19332420E-01 -1.60854152E-01  1.14345644E+00  1.00000000E+00
  1.00000000E+00  1.83473713E-03  1.40373228E-02  6.88426223E-02  2.32184443E-01
  4.67941348E-01  3.62311985E-01 -1.19332420E-01 -1.60854152E-01  1.14345644E+00
  1.00000000E+00  1.00000000E+00  1.83473713E-03  1.40373228E-02  6.88426223E-02
  2.32184443E-01  4.67941348E-01  3.62311985E-01 -1.19332420E-01 -1.60854152E-01
  1.14345644E+00  1.00000000E+00  1.00000000E+00  1.83473713E-03  1.40373228E-02
  6.88426223E-02  2.32184443E-01  4.67941348E-01  3.62311985E-01 -1.19332420E-01
 -1.60854152E-01  1.14345644E+00  1.00000000E+00  1.00000000E+00  3.34946043E-02
  2.34726953E-01  8.13757326E-01  1.00000000E+00  3.34946043E-02  2.34726953E-01
  8.13757326E-01  1.00000000E+00  3.34946043E-02  2.34726953E-01  8.13757326E-01
  1.00000000E+00  3.34946043E-02  2.34726953E-01  8.13757326E-01  1.00000000E+00
  3.34946043E-02  2.34726953E-01  8.13757326E-01  1.00000000E+00  3.34946043E-02
  2.34726953E-01  8.13757326E-01  1.00000000E+00  3.34946043E-02  2.34726953E-01
  8.13757326E-01  1.00000000E+00  3.34946043E-02  2.34726953E-01  8.13757326E-01
  1.00000000E+00  3.34946043E-02  2.34726953E-01  8.13757326E-01  1.00000000E+00
P(S=P) Contraction coefficients            R   N=         135
  0.00000000E+00  0.00000000E+00  0.00000000E+00  0.00000000E+00  0.00000000E+00
  0.00000000E+00  7.08742682E-02  3.39752839E-01  7.27158577E-01  1.00000000E+00
  0.00000000E+00  0.00000000E+00  0.00000000E+00  0.00000000E+00  0.00000000E+00
  0.00000000E+00  0.00000000E+00  6.75797439E-02  3.23907296E-01  7.40895140E-01
  1.00000000E+00  0.00000000E+00  0.00000000E+00  0.00000000E+00  0.00000000E+00
  0.00000000E+00  0.00000000E+00  0.00000000E+00  6.89990666E-02  3.16423961E-01
  7.44308291E-01  1.00000000E+00  0.00000000E+00  0.00000000E+00  0.00000000E+00
  0.00000000E+00  0.00000000E+00  0.00000000E+00  0.00000000E+00  6.89990666E-02
  3.16423961E-01  7.44308291E-01  1.00000000E+00  0.00000000E+00  0.00000000E+00
  0.00000000E+00  0.00000000E+00  0.00000000E+00  0.00000000E+00  0.00000000E+00
  6.89990666E-02  3.16423961E-01  7.44308291E-01  1.00000000E+00  0.00000000E+00
  0.00000000E+00  0.00000000E+00  0.00000000E+00  0.00000000E+00  0.00000000E+00
  0.00000000E+00  6.89990666E-02  3.16423961E-01  7.44308291E-01  1.00000000E+00
  0.00000000E+00  0.00000000E+00  0.00000000E+00  0.00000000E+00  0.00000000E+00
  0.00000000E+00  0.00000000E+00  6.89990666E-02  3.16423961E-01  7.44308291E-01
  1.00000000E+00  0.00000000E+00  0.00000000E+00  0.00000000E+00  0.00000000E+00
  0.00000000E+00  0.00000000E+00  0.00000000E+00  6.89990666E-02  3.16423961E-01
  7.44308291E-01  1.00000000E+00  0.00000000E+00  0.00000000E+00  0.00000000E+00
  0.00000000E+00  0.00000000E+00  0.00000000E+00  0.00000000E+00  6.89990666E-02
  3.16423961E-01  7.44308291E-01  1.00000000E+00  0.00000000E+00  0.00000000E+00
  0.00000000E+00  0.00000000E+00  0.00000000E+00  0.00000000E+00  0.00000000E+00
  0.00000000E+00  0.00000000E+00  0.00000000E+00  0.00000000E+00  0.00000000E+00
  0.00000000E+00  0.00000000E+00  0.00000000E+00  0.00000000E+00  0.00000000E+00
  0.00000000E+00  0.00000000E+00  0.00000000E+00  0.00000000E+00  0.00000000E+00
  0.00000000E+00  0.00000000E+00  0.00000000E+00  0.00000000E+00  0.00000000E+00
  0.00000000E+00  0.00000000E+00  0.00000000E+00  0.00000000E+00  0.00000000E+00
  0.00000000E+00  0.00000000E+00  0.00000000E+00  0.00000000E+00  0.00000000E+00
Coordinates of each shell                  R   N=         162
 -4.06002204E+00 -3.35789268E+00 -1.06508748E-02 -4.06002204E+00 -3.35789268E+00
 -1.06508748E-02 -4.06002204E+00 -3.35789268E+00 -1.06508748E-02 -4.06002204E+00
 -3.35789268E+00 -1.06508748E-02 -2.23175339E-01 -1.40421097E+00 -4.74638600E-01
 -2.23175339E-01 -1.40421097E+00 -4.74638600E-01 -2.23175339E-01 -1.40421097E+00
 -4.74638600E-01 -2.23175339E-01 -1.40421097E+00 -4.74638600E-01  1.37947400E+00
  6.31126041E-01 -5.59020512E-01  1.37947400E+00  6.31126041E-01 -5.59020512E-01
  1.37947400E+00  6.31126041E-01 -5.59020512E-01  1.37947400E+00  6.31126041E-01
 -5.59020512E-01  4.12312212E+00  7.69480148E-02 -1.01141187E+00  4.12312212E+00
  7.69480148E-02 -1.01141187E+00  4.12312212E+00  7.69480148E-02 -1.01141187E+00
  4.12312212E+00  7.69480148E-02 -1.01141187E+00  3.90162368E-01  2.98622597E+00
 -1.42066704E-01  3.90162368E-01  2.98622597E+00 -1.42066704E-01  3.90162368E-01
  2.98622597E+00 -1.42066704E-01  3.90162368E-01  2.98622597E+00 -1.42066704E-01
  5.37313420E+00 -1.25285803E+00  1.23770846E+00  5.37313420E+00 -1.25285803E+00
  1.23770846E+00  5.37313420E+00 -1.25285803E+00  1.23770846E+00  5.37313420E+00
 -1.25285803E+00  1.23770846E+00 -2.83867603E+00 -1.36619849E+00 -1.43402743E-02
 -2.83867603E+00 -1.36619849E+00 -1.43402743E-02 -2.83867603E+00 -1.36619849E+00
 -1.43402743E-02 -2.83867603E+00 -1.36619849E+00 -1.43402743E-02 -2.24231758E+00
  3.22725472E+00  3.45673550E-01 -2.24231758E+00  3.22725472E+00  3.45673550E-01
 -2.24231758E+00  3.22725472E+00  3.45673550E-01 -2.24231758E+00  3.22725472E+00
  3.45673550E-01 -3.79712485E+00  1.16200401E+00  4.15450606E-01 -3.79712485E+00
  1.16200401E+00  4.15450606E-01 -3.79712485E+00  1.16200401E+00  4.15450606E-01
 -3.79712485E+00  1.16200401E+00  4.15450606E-01  4.31842300E+00 -1.08465747E+00
 -2.71913147E+00  4.31842300E+00 -1.08465747E+00 -2.71913147E+00  5.08625647E+00
  1.86600436E+00 -1.39727090E+00  5.08625647E+00  1.86600436E+00 -1.39727090E+00
  4.62507881E-01 -3.17317858E+00 -7.94444688E-01  4.62507881E-01 -3.17317858E+00
 -7.94444688E-01  1.61534403E+00  4.62847421E+00 -1.95122411E-01  1.61534403E+00
  4.62847421E+00 -1.95122411E-01  7.37783746E+00 -1.58693586E+00  8.63823221E-01
  7.37783746E+00 -1.58693586E+00  8.63823221E-01  4.48629472E+00 -3.07862842E+00
  1.62595664E+00  4.48629472E+00 -3.07862842E+00  1.62595664E+00  5.20921830E+00
 -9.21247898E-02  2.93825557E+00  5.20921830E+00 -9.21247898E-02  2.93825557E+00
 -3.03274271E+00  5.09739515E+00  6.71252612E-01 -3.03274271E+00  5.09739515E+00
  6.71252612E-01 -5.80738073E+00  1.32925619E+00  7.82399072E-01 -5.80738073E+00
  1.32925619E+00  7.82399072E-01
Constraint Structure                       R   N=          54
 -4.06002204E+00 -3.35789268E+00 -1.06508748E-02 -2.23175339E-01 -1.40421097E+00
 -4.74638600E-01  1.37947400E+00  6.31126041E-01 -5.59020512E-01  4.12312212E+00
  7.69480148E-02 -1.01141187E+00  3.90162368E-01  2.98622597E+00 -1.42066704E-01
  5.37313420E+00 -1.25285803E+00  1.23770846E+00 -2.83867603E+00 -1.36619849E+00
 -1.43402743E-02 -2.24231758E+00  3.22725472E+00  3.45673550E-01 -3.79712485E+00
  1.16200401E+00  4.15450606E-01  4.31842300E+00 -1.08465747E+00 -2.71913147E+00
  5.08625647E+00  1.86600436E+00 -1.39727090E+00  4.62507881E-01 -3.17317858E+00
 -7.94444688E-01  1.61534403E+00  4.62847421E+00 -1.95122411E-01  7.37783746E+00
 -1.58693586E+00  8.63823221E-01  4.48629472E+00 -3.07862842E+00  1.62595664E+00
  5.20921830E+00 -9.21247898E-02  2.93825557E+00 -3.03274271E+00  5.09739515E+00
  6.71252612E-01 -5.80738073E+00  1.32925619E+00  7.82399072E-01
Num ILSW                                   I              100
ILSW                                       I   N=         100
           0           1           0           0           2           0
           0           0           0           0           0          -1
           0           0           0           0           0           0
           0           0           0           0           1           0
           1           0           0           0           0           0
           0           0      100000           0          -1           0
           0           0           0           0           0           0
           0           0           0           1           1           0
           0           0           1           0           0           0
           0           0           4          40           0           0
           0           0           0           0           0           0
           0           0           0           0           0           0
           0           0           0           0           0           0
           0           0           0           0           0           0
           0           0           0           0           0           0
           0           0           0           0           0           0
           0           0           0           0
Num RLSW                                   I               40
RLSW                                       R   N=          40
  1.00000000E+00  1.00000000E+00  1.00000000E+00  1.00000000E+00  1.00000000E+00
  0.00000000E+00  0.00000000E+00  1.00000000E+00  0.00000000E+00  0.00000000E+00
  0.00000000E+00  0.00000000E+00  1.00000000E+00  0.00000000E+00  0.00000000E+00
  0.00000000E+00  0.00000000E+00  1.00000000E+00  0.00000000E+00  0.00000000E+00
  0.00000000E+00  0.00000000E+00  1.00000000E+00  0.00000000E+00  0.00000000E+00
  0.00000000E+00  0.00000000E+00  1.00000000E+00  0.00000000E+00  0.00000000E+00
  0.00000000E+00  0.00000000E+00  0.00000000E+00  0.00000000E+00  0.00000000E+00
  0.00000000E+00  0.00000000E+00  0.00000000E+00  1.00000000E+00  1.00000000E+00
MxBond                                     I                4
NBond                                      I   N=          18
           1           3           3           4           3           4
           3           3           3           1           1           1
           1           1           1           1           1           1
IBond                                      I   N=          72
           7           0           0           0           3           7
          12           0           2           4           5           0
           3           6          10          11           3           8
          13           0           4          14          15          16
           1           2           9           0           5           9
          17           0           7           8          18           0
           4           0           0           0           4           0
           0           0           2           0           0           0
           5           0           0           0           6           0
           0           0           6           0           0           0
           6           0           0           0           8           0
           0           0           9           0           0           0
RBond                                      R   N=          72
  2.00000000E+00  0.00000000E+00  0.00000000E+00  0.00000000E+00  1.00000000E+00
  1.00000000E+00  1.00000000E+00  0.00000000E+00  1.00000000E+00  1.00000000E+00
  2.00000000E+00  0.00000000E+00  1.00000000E+00  1.00000000E+00  1.00000000E+00
  1.00000000E+00  2.00000000E+00  1.00000000E+00  1.00000000E+00  0.00000000E+00
  1.00000000E+00  1.00000000E+00  1.00000000E+00  1.00000000E+00  2.00000000E+00
  1.00000000E+00  1.00000000E+00  0.00000000E+00  1.00000000E+00  2.00000000E+00
  1.00000000E+00  0.00000000E+00  1.00000000E+00  2.00000000E+00  1.00000000E+00
  0.00000000E+00  1.00000000E+00  0.00000000E+00  0.00000000E+00  0.00000000E+00
  1.00000000E+00  0.00000000E+00  0.00000000E+00  0.00000000E+00  1.00000000E+00
  0.00000000E+00  0.00000000E+00  0.00000000E+00  1.00000000E+00  0.00000000E+00
  0.00000000E+00  0.00000000E+00  1.00000000E+00  0.00000000E+00  0.00000000E+00
  0.00000000E+00  1.00000000E+00  0.00000000E+00  0.00000000E+00  0.00000000E+00
  1.00000000E+00  0.00000000E+00  0.00000000E+00  0.00000000E+00  1.00000000E+00
  0.00000000E+00  0.00000000E+00  0.00000000E+00  1.00000000E+00  0.00000000E+00
  0.00000000E+00  0.00000000E+00
Virial Ratio                               R      2.002382123403511E+00
SCF Energy                                 R     -3.996391204081869E+02
MP2 Energy                                 R     -4.008693353958014E+02
Total Energy                               R     -4.008693353958014E+02
Post-SCF wavefunction norm                 R      1.682531742724104E+00
RMS Force                                  R      1.904887558307025E-07
RMS Density                                R      1.951751520567677E-09
External E-field                           R   N=          35
  0.00000000E+00  0.00000000E+00  0.00000000E+00  0.00000000E+00  0.00000000E+00
  0.00000000E+00  0.00000000E+00  0.00000000E+00  0.00000000E+00  0.00000000E+00
  0.00000000E+00  0.00000000E+00  0.00000000E+00  0.00000000E+00  0.00000000E+00
  0.00000000E+00  0.00000000E+00  0.00000000E+00  0.00000000E+00  0.00000000E+00
  0.00000000E+00  0.00000000E+00  0.00000000E+00  0.00000000E+00  0.00000000E+00
  0.00000000E+00  0.00000000E+00  0.00000000E+00  0.00000000E+00  0.00000000E+00
  0.00000000E+00  0.00000000E+00  0.00000000E+00  0.00000000E+00  0.00000000E+00
IOpCl                                      I                0
IROHF                                      I                0
Alpha Orbital Energies                     R   N=         153
 -2.05069116E+01 -1.56218356E+01 -1.13493139E+01 -1.13134840E+01 -1.12684789E+01
 -1.12608906E+01 -1.12421517E+01 -1.12349375E+01 -1.12313338E+01 -1.36063696E+00
 -1.26814854E+00 -1.09841466E+00 -1.08545222E+00 -1.00156014E+00 -8.99973249E-01
 -8.63124300E-01 -8.30533711E-01 -7.33973246E-01 -6.87471206E-01 -6.58631129E-01
 -6.34408744E-01 -6.23939494E-01 -6.05501747E-01 -5.93460902E-01 -5.59698005E-01
 -5.48290395E-01 -5.38924411E-01 -5.22394229E-01 -5.08345371E-01 -4.61576237E-01
 -4.14351345E-01 -4.11496388E-01 -2.99901239E-01  1.02783339E-01  1.74598386E-01
  2.03974028E-01  2.42731545E-01  2.56301978E-01  2.76797180E-01  2.87900651E-01
  3.03879446E-01  3.16651967E-01  3.27043414E-01  3.35339289E-01  3.43162218E-01
  3.86750918E-01  4.06192857E-01  4.36875587E-01  4.54193860E-01  4.96330518E-01
  5.16801043E-01  5.25286504E-01  6.41181606E-01  6.94665104E-01  7.00194890E-01
  7.10352024E-01  7.29927358E-01  7.49815016E-01  7.64268584E-01  7.88759927E-01
  7.96894682E-01  8.20396149E-01  8.29654224E-01  8.35029848E-01  8.69251670E-01
  8.73545354E-01  9.10170108E-01  9.40647988E-01  9.44809661E-01  9.88644526E-01
  1.02036360E+00  1.03812382E+00  1.05704393E+00  1.08723391E+00  1.09713915E+00
  1.11446913E+00  1.11830801E+00  1.13953675E+00  1.14548335E+00  1.15846118E+00
  1.17460152E+00  1.19433498E+00  1.20410209E+00  1.21021730E+00  1.23218765E+00
  1.24195230E+00  1.27675384E+00  1.33133857E+00  1.34982034E+00  1.37054068E+00
  1.44523839E+00  1.47606789E+00  1.51043204E+00  1.56611073E+00  1.59739177E+00
  1.62363564E+00  1.66150834E+00  1.66429923E+00  1.72040254E+00  1.74947097E+00
  1.75841148E+00  1.77130860E+00  1.80467110E+00  1.93102215E+00  1.97092864E+00
  2.01795887E+00  2.03703626E+00  2.06495398E+00  2.12257087E+00  2.13556619E+00
  2.16033826E+00  2.20223344E+00  2.23216596E+00  2.24211512E+00  2.28049009E+00
  2.29334129E+00  2.30298081E+00  2.30818981E+00  2.40905596E+00  2.44800854E+00
  2.45824619E+00  2.47149248E+00  2.52232469E+00  2.56751270E+00  2.58820877E+00
  2.61422904E+00  2.62909262E+00  2.64725596E+00  2.68657934E+00  2.73699100E+00
  2.76251438E+00  2.89670421E+00  2.93233148E+00  2.93785149E+00  2.98552509E+00
  2.99798348E+00  3.05361154E+00  3.11967543E+00  3.15500371E+00  3.19435771E+00
  3.24571655E+00  3.37644017E+00  3.55192074E+00  3.77308086E+00  4.41846025E+00
  4.47783169E+00  4.54384544E+00  4.57631002E+00  4.67367145E+00  4.71689271E+00
  4.85043570E+00  4.96530497E+00  5.13072197E+00
Alpha MO coefficients                      R   N=       23409
  9.94689512E-01  2.09535885E-02  8.39559139E-04  1.29269477E-03 -1.03724048E-05
  4.58594402E-03 -4.16309831E-06 -3.85564547E-05 -3.23037490E-06 -3.85084215E-03
 -3.74045033E-03 -4.08036519E-03  1.33835959E-04 -3.34602366E-05  1.87889197E-05
 -1.15206748E-05 -3.54885733E-05  4.16867903E-05  1.79923485E-05 -5.11139994E-06
  1.73187267E-04 -1.70874003E-04 -3.32496833E-05  2.49785730E-05 -4.44059486E-05
 -2.68183845E-05 -4.89890706E-05 -8.66233264E-05 -1.04709233E-05  1.80530069E-05
  6.23814556E-06  2.66948321E-05 -3.31069738E-05 -2.05838798E-05  3.64320937E-06
 -1.14344442E-04  2.81954932E-04 -1.86063896E-04 -6.51632729E-05 -9.63715884E-07
  3.72861209E-05  1.23956448E-05  1.97917542E-05  5.10919189E-06 -1.17924494E-06
  2.14725643E-06  1.18767930E-05  7.91550391E-06  3.10913974E-06 -1.47881506E-06
 -2.01005558E-04  7.95739900E-05 -1.30767853E-05 -6.13859882E-06 -1.33827451E-06
  2.57130584E-06  2.07485744E-06 -2.68805186E-06 -9.96252291E-08  4.62914239E-07
 -3.35588153E-07 -3.06687362E-06 -3.65185301E-06 -1.12823677E-05 -3.52953893E-07
  2.86512102E-04 -2.73822873E-05 -1.45551915E-04 -1.14547736E-05 -7.86967439E-06
  5.15366110E-06  3.52524093E-06  1.10371508E-05  3.62936860E-06 -1.62081662E-06
  8.55568723E-07  3.72387258E-06 -6.80003914E-07  5.55690537E-07 -6.15461169E-07
 -1.02337271E-05  4.09480626E-06  3.43682566E-06 -4.16291299E-06 -9.05805107E-07
  2.66645634E-06  1.65076110E-06  1.22358566E-07  1.04371554E-06 -1.13326537E-07
 -6.59609600E-06  5.21740245E-04 -2.59762940E-08 -1.37242717E-05 -1.25306221E-06
 -4.44067520E-04  1.77120553E-04  6.23748120E-04  3.44303033E-05 -2.44530215E-04
 -5.84776619E-04 -5.36890031E-05 -3.75142424E-04 -9.36175421E-07  9.84443250E-07
  4.71464986E-06  2.88347555E-05 -1.62009331E-05 -1.66225625E-05  1.30891589E-06
 -1.52240163E-04 -2.15825201E-05  1.21423758E-04  1.63225344E-05  2.19793970E-05
 -6.03151157E-06  9.80133533E-06  2.02532128E-05 -3.82728222E-07 -5.49678637E-06
  9.83155729E-08  1.70167431E-06  1.93387509E-05  3.82838924E-06 -2.83847668E-06
 -1.28227695E-04 -7.88842693E-06  9.86113821E-05  1.09332341E-05  4.21696761E-05
 -4.26206415E-05 -1.20972045E-05 -6.65725083E-05 -1.86034243E-05  8.37106141E-06
  3.05115382E-06  6.88542030E-06  6.90826233E-06  7.03365092E-06 -8.69695249E-06
 -2.09822347E-05 -1.27921790E-06  2.71731284E-05  1.38165485E-06 -6.99133406E-06
 -2.17743553E-06  1.29707690E-05  1.39396144E-07  4.18315516E-06  1.02535662E-07
 -4.24222415E-05  5.99978520E-08 -5.29452853E-06 -3.94240818E-05 -2.13582071E-04