12665                                                                   
Freq      RMP2-FC                                                     6-31G(d)            
Number of atoms                            I               16
Info1-9                                    I   N=           9
          28          26        1002           0           0         100
           6           2           1
Charge                                     I                0
Multiplicity                               I                1
Number of electrons                        I               54
Number of alpha electrons                  I               27
Number of beta electrons                   I               27
Number of basis functions                  I              123
Number of independent functions            I              123
Number of point charges in /Mol/           I                0
Number of translation vectors              I                0
Atomic numbers                             I   N=          16
           8           7           6           6           6           6
           6           1           1           1           1           1
           1           1           1           1
Nuclear charges                            R   N=          16
  8.00000000E+00  7.00000000E+00  6.00000000E+00  6.00000000E+00  6.00000000E+00
  6.00000000E+00  6.00000000E+00  1.00000000E+00  1.00000000E+00  1.00000000E+00
  1.00000000E+00  1.00000000E+00  1.00000000E+00  1.00000000E+00  1.00000000E+00
  1.00000000E+00
Current cartesian coordinates              R   N=          48
  4.48117098E+00 -8.16285591E-02  6.59049140E-02  7.47502715E-01 -2.19699638E+00
 -1.11439936E-01 -3.30485971E+00 -2.00059065E-02 -5.81410362E-01 -2.03914389E+00
  2.27973172E+00  6.05756991E-01 -1.97156545E+00 -2.41204118E+00  2.90758170E-01
  7.03923991E-01  2.44452902E+00 -2.75461893E-01  2.15508886E+00 -1.93482032E-02
 -3.75806242E-02 -5.30532618E+00 -1.31610620E-01 -6.02091908E-02 -3.20492323E+00
  1.13310110E-01 -2.64679630E+00 -2.10594669E+00  2.10791373E+00  2.67176803E+00
 -3.04975179E+00  4.01906192E+00  1.17348039E-01 -2.39118244E+00 -2.74407213E+00
  2.29982230E+00 -2.65518016E+00 -4.05709607E+00 -7.63083357E-01  1.77912008E+00
  3.87374034E+00  7.59489991E-01  7.71829791E-01  2.98369390E+00 -2.27740713E+00
  1.81881093E+00 -3.77013077E+00  1.39534165E-01
Force Field                                I                0
Int Atom Types                             I   N=          16
           0           0           0           0           0           0
           0           0           0           0           0           0
           0           0           0           0
MM charges                                 R   N=          16
  0.00000000E+00  0.00000000E+00  0.00000000E+00  0.00000000E+00  0.00000000E+00
  0.00000000E+00  0.00000000E+00  0.00000000E+00  0.00000000E+00  0.00000000E+00
  0.00000000E+00  0.00000000E+00  0.00000000E+00  0.00000000E+00  0.00000000E+00
  0.00000000E+00
Integer atomic weights                     I   N=          16
          16          14          12          12          12          12
          12           1           1           1           1           1
           1           1           1           1
Real atomic weights                        R   N=          16
  1.59949146E+01  1.40030740E+01  1.20000000E+01  1.20000000E+01  1.20000000E+01
  1.20000000E+01  1.20000000E+01  1.00782504E+00  1.00782504E+00  1.00782504E+00
  1.00782504E+00  1.00782504E+00  1.00782504E+00  1.00782504E+00  1.00782504E+00
  1.00782504E+00
Atom fragment info                         I   N=          16
           0           0           0           0           0           0
           0           0           0           0           0           0
           0           0           0           0
Atom residue num                           I   N=          16
           0           0           0           0           0           0
           0           0           0           0           0           0
           0           0           0           0
Nuclear spins                              I   N=          16
           0           2           0           0           0           0
           0           1           1           1           1           1
           1           1           1           1
Nuclear ZEff                               R   N=          16
 -5.60000000E+00 -4.55000000E+00 -3.60000000E+00 -3.60000000E+00 -3.60000000E+00
 -3.60000000E+00 -3.60000000E+00 -1.00000000E+00 -1.00000000E+00 -1.00000000E+00
 -1.00000000E+00 -1.00000000E+00 -1.00000000E+00 -1.00000000E+00 -1.00000000E+00
 -1.00000000E+00
Nuclear QMom                               R   N=          16
  0.00000000E+00  2.04400000E+00  0.00000000E+00  0.00000000E+00  0.00000000E+00
  0.00000000E+00  0.00000000E+00  0.00000000E+00  0.00000000E+00  0.00000000E+00
  0.00000000E+00  0.00000000E+00  0.00000000E+00  0.00000000E+00  0.00000000E+00
  0.00000000E+00
Nuclear GFac                               R   N=          16
  0.00000000E+00  4.03761000E-01  0.00000000E+00  0.00000000E+00  0.00000000E+00
  0.00000000E+00  0.00000000E+00  2.79284600E+00  2.79284600E+00  2.79284600E+00
  2.79284600E+00  2.79284600E+00  2.79284600E+00  2.79284600E+00  2.79284600E+00
  2.79284600E+00
MicOpt                                     I   N=          16
          -1          -1          -1          -1          -1          -1
          -1          -1          -1          -1          -1          -1
          -1          -1          -1          -1
Number of contracted shells                I               46
Number of primitive shells                 I              113
Pure/Cartesian d shells                    I                1
Pure/Cartesian f shells                    I                0
Highest angular momentum                   I                2
Largest degree of contraction              I                6
Shell types                                I   N=          46
           0          -1          -1           2           0          -1
          -1           2           0          -1          -1           2
           0          -1          -1           2           0          -1
          -1           2           0          -1          -1           2
           0          -1          -1           2           0           0
           0           0           0           0           0           0
           0           0           0           0           0           0
           0           0           0           0
Number of primitives per shell             I   N=          46
           6           3           1           1           6           3
           1           1           6           3           1           1
           6           3           1           1           6           3
           1           1           6           3           1           1
           6           3           1           1           3           1
           3           1           3           1           3           1
           3           1           3           1           3           1
           3           1           3           1
Shell to atom map                          I   N=          46
           1           1           1           1           2           2
           2           2           3           3           3           3
           4           4           4           4           5           5
           5           5           6           6           6           6
           7           7           7           7           8           8
           9           9          10          10          11          11
          12          12          13          13          14          14
          15          15          16          16
Primitive exponents                        R   N=         113
  5.48467166E+03  8.25234946E+02  1.88046958E+02  5.29645000E+01  1.68975704E+01
  5.79963534E+00  1.55396162E+01  3.59993359E+00  1.01376175E+00  2.70005823E-01
  8.00000000E-01  4.17351146E+03  6.27457911E+02  1.42902093E+02  4.02343293E+01
  1.28202129E+01  4.39043701E+00  1.16263619E+01  2.71627981E+00  7.72218397E-01
  2.12031498E-01  8.00000000E-01  3.04752488E+03  4.57369518E+02  1.03948685E+02
  2.92101553E+01  9.28666296E+00  3.16392696E+00  7.86827235E+00  1.88128854E+00
  5.44249258E-01  1.68714478E-01  8.00000000E-01  3.04752488E+03  4.57369518E+02
  1.03948685E+02  2.92101553E+01  9.28666296E+00  3.16392696E+00  7.86827235E+00
  1.88128854E+00  5.44249258E-01  1.68714478E-01  8.00000000E-01  3.04752488E+03
  4.57369518E+02  1.03948685E+02  2.92101553E+01  9.28666296E+00  3.16392696E+00
  7.86827235E+00  1.88128854E+00  5.44249258E-01  1.68714478E-01  8.00000000E-01
  3.04752488E+03  4.57369518E+02  1.03948685E+02  2.92101553E+01  9.28666296E+00
  3.16392696E+00  7.86827235E+00  1.88128854E+00  5.44249258E-01  1.68714478E-01
  8.00000000E-01  3.04752488E+03  4.57369518E+02  1.03948685E+02  2.92101553E+01
  9.28666296E+00  3.16392696E+00  7.86827235E+00  1.88128854E+00  5.44249258E-01
  1.68714478E-01  8.00000000E-01  1.87311370E+01  2.82539436E+00  6.40121692E-01
  1.61277759E-01  1.87311370E+01  2.82539436E+00  6.40121692E-01  1.61277759E-01
  1.87311370E+01  2.82539436E+00  6.40121692E-01  1.61277759E-01  1.87311370E+01
  2.82539436E+00  6.40121692E-01  1.61277759E-01  1.87311370E+01  2.82539436E+00
  6.40121692E-01  1.61277759E-01  1.87311370E+01  2.82539436E+00  6.40121692E-01
  1.61277759E-01  1.87311370E+01  2.82539436E+00  6.40121692E-01  1.61277759E-01
  1.87311370E+01  2.82539436E+00  6.40121692E-01  1.61277759E-01  1.87311370E+01
  2.82539436E+00  6.40121692E-01  1.61277759E-01
Contraction coefficients                   R   N=         113
  1.83107443E-03  1.39501722E-02  6.84450781E-02  2.32714336E-01  4.70192898E-01
  3.58520853E-01 -1.10777550E-01 -1.48026263E-01  1.13076702E+00  1.00000000E+00
  1.00000000E+00  1.83477216E-03  1.39946270E-02  6.85865518E-02  2.32240873E-01
  4.69069948E-01  3.60455199E-01 -1.14961182E-01 -1.69117479E-01  1.14585195E+00
  1.00000000E+00  1.00000000E+00  1.83473713E-03  1.40373228E-02  6.88426223E-02
  2.32184443E-01  4.67941348E-01  3.62311985E-01 -1.19332420E-01 -1.60854152E-01
  1.14345644E+00  1.00000000E+00  1.00000000E+00  1.83473713E-03  1.40373228E-02
  6.88426223E-02  2.32184443E-01  4.67941348E-01  3.62311985E-01 -1.19332420E-01
 -1.60854152E-01  1.14345644E+00  1.00000000E+00  1.00000000E+00  1.83473713E-03
  1.40373228E-02  6.88426223E-02  2.32184443E-01  4.67941348E-01  3.62311985E-01
 -1.19332420E-01 -1.60854152E-01  1.14345644E+00  1.00000000E+00  1.00000000E+00
  1.83473713E-03  1.40373228E-02  6.88426223E-02  2.32184443E-01  4.67941348E-01
  3.62311985E-01 -1.19332420E-01 -1.60854152E-01  1.14345644E+00  1.00000000E+00
  1.00000000E+00  1.83473713E-03  1.40373228E-02  6.88426223E-02  2.32184443E-01
  4.67941348E-01  3.62311985E-01 -1.19332420E-01 -1.60854152E-01  1.14345644E+00
  1.00000000E+00  1.00000000E+00  3.34946043E-02  2.34726953E-01  8.13757326E-01
  1.00000000E+00  3.34946043E-02  2.34726953E-01  8.13757326E-01  1.00000000E+00
  3.34946043E-02  2.34726953E-01  8.13757326E-01  1.00000000E+00  3.34946043E-02
  2.34726953E-01  8.13757326E-01  1.00000000E+00  3.34946043E-02  2.34726953E-01
  8.13757326E-01  1.00000000E+00  3.34946043E-02  2.34726953E-01  8.13757326E-01
  1.00000000E+00  3.34946043E-02  2.34726953E-01  8.13757326E-01  1.00000000E+00
  3.34946043E-02  2.34726953E-01  8.13757326E-01  1.00000000E+00  3.34946043E-02
  2.34726953E-01  8.13757326E-01  1.00000000E+00
P(S=P) Contraction coefficients            R   N=         113
  0.00000000E+00  0.00000000E+00  0.00000000E+00  0.00000000E+00  0.00000000E+00
  0.00000000E+00  7.08742682E-02  3.39752839E-01  7.27158577E-01  1.00000000E+00
  0.00000000E+00  0.00000000E+00  0.00000000E+00  0.00000000E+00  0.00000000E+00
  0.00000000E+00  0.00000000E+00  6.75797439E-02  3.23907296E-01  7.40895140E-01
  1.00000000E+00  0.00000000E+00  0.00000000E+00  0.00000000E+00  0.00000000E+00
  0.00000000E+00  0.00000000E+00  0.00000000E+00  6.89990666E-02  3.16423961E-01
  7.44308291E-01  1.00000000E+00  0.00000000E+00  0.00000000E+00  0.00000000E+00
  0.00000000E+00  0.00000000E+00  0.00000000E+00  0.00000000E+00  6.89990666E-02
  3.16423961E-01  7.44308291E-01  1.00000000E+00  0.00000000E+00  0.00000000E+00
  0.00000000E+00  0.00000000E+00  0.00000000E+00  0.00000000E+00  0.00000000E+00
  6.89990666E-02  3.16423961E-01  7.44308291E-01  1.00000000E+00  0.00000000E+00
  0.00000000E+00  0.00000000E+00  0.00000000E+00  0.00000000E+00  0.00000000E+00
  0.00000000E+00  6.89990666E-02  3.16423961E-01  7.44308291E-01  1.00000000E+00
  0.00000000E+00  0.00000000E+00  0.00000000E+00  0.00000000E+00  0.00000000E+00
  0.00000000E+00  0.00000000E+00  6.89990666E-02  3.16423961E-01  7.44308291E-01
  1.00000000E+00  0.00000000E+00  0.00000000E+00  0.00000000E+00  0.00000000E+00
  0.00000000E+00  0.00000000E+00  0.00000000E+00  0.00000000E+00  0.00000000E+00
  0.00000000E+00  0.00000000E+00  0.00000000E+00  0.00000000E+00  0.00000000E+00
  0.00000000E+00  0.00000000E+00  0.00000000E+00  0.00000000E+00  0.00000000E+00
  0.00000000E+00  0.00000000E+00  0.00000000E+00  0.00000000E+00  0.00000000E+00
  0.00000000E+00  0.00000000E+00  0.00000000E+00  0.00000000E+00  0.00000000E+00
  0.00000000E+00  0.00000000E+00  0.00000000E+00  0.00000000E+00  0.00000000E+00
  0.00000000E+00  0.00000000E+00  0.00000000E+00
Coordinates of each shell                  R   N=         138
  4.48117098E+00 -8.16285591E-02  6.59049140E-02  4.48117098E+00 -8.16285591E-02
  6.59049140E-02  4.48117098E+00 -8.16285591E-02  6.59049140E-02  4.48117098E+00
 -8.16285591E-02  6.59049140E-02  7.47502715E-01 -2.19699638E+00 -1.11439936E-01
  7.47502715E-01 -2.19699638E+00 -1.11439936E-01  7.47502715E-01 -2.19699638E+00
 -1.11439936E-01  7.47502715E-01 -2.19699638E+00 -1.11439936E-01 -3.30485971E+00
 -2.00059065E-02 -5.81410362E-01 -3.30485971E+00 -2.00059065E-02 -5.81410362E-01
 -3.30485971E+00 -2.00059065E-02 -5.81410362E-01 -3.30485971E+00 -2.00059065E-02
 -5.81410362E-01 -2.03914389E+00  2.27973172E+00  6.05756991E-01 -2.03914389E+00
  2.27973172E+00  6.05756991E-01 -2.03914389E+00  2.27973172E+00  6.05756991E-01
 -2.03914389E+00  2.27973172E+00  6.05756991E-01 -1.97156545E+00 -2.41204118E+00
  2.90758170E-01 -1.97156545E+00 -2.41204118E+00  2.90758170E-01 -1.97156545E+00
 -2.41204118E+00  2.90758170E-01 -1.97156545E+00 -2.41204118E+00  2.90758170E-01
  7.03923991E-01  2.44452902E+00 -2.75461893E-01  7.03923991E-01  2.44452902E+00
 -2.75461893E-01  7.03923991E-01  2.44452902E+00 -2.75461893E-01  7.03923991E-01
  2.44452902E+00 -2.75461893E-01  2.15508886E+00 -1.93482032E-02 -3.75806242E-02
  2.15508886E+00 -1.93482032E-02 -3.75806242E-02  2.15508886E+00 -1.93482032E-02
 -3.75806242E-02  2.15508886E+00 -1.93482032E-02 -3.75806242E-02 -5.30532618E+00
 -1.31610620E-01 -6.02091908E-02 -5.30532618E+00 -1.31610620E-01 -6.02091908E-02
 -3.20492323E+00  1.13310110E-01 -2.64679630E+00 -3.20492323E+00  1.13310110E-01
 -2.64679630E+00 -2.10594669E+00  2.10791373E+00  2.67176803E+00 -2.10594669E+00
  2.10791373E+00  2.67176803E+00 -3.04975179E+00  4.01906192E+00  1.17348039E-01
 -3.04975179E+00  4.01906192E+00  1.17348039E-01 -2.39118244E+00 -2.74407213E+00
  2.29982230E+00 -2.39118244E+00 -2.74407213E+00  2.29982230E+00 -2.65518016E+00
 -4.05709607E+00 -7.63083357E-01 -2.65518016E+00 -4.05709607E+00 -7.63083357E-01
  1.77912008E+00  3.87374034E+00  7.59489991E-01  1.77912008E+00  3.87374034E+00
  7.59489991E-01  7.71829791E-01  2.98369390E+00 -2.27740713E+00  7.71829791E-01
  2.98369390E+00 -2.27740713E+00  1.81881093E+00 -3.77013077E+00  1.39534165E-01
  1.81881093E+00 -3.77013077E+00  1.39534165E-01
Constraint Structure                       R   N=          48
  4.48117098E+00 -8.16285591E-02  6.59049140E-02  7.47502715E-01 -2.19699638E+00
 -1.11439936E-01 -3.30485971E+00 -2.00059065E-02 -5.81410362E-01 -2.03914389E+00
  2.27973172E+00  6.05756991E-01 -1.97156545E+00 -2.41204118E+00  2.90758170E-01
  7.03923991E-01  2.44452902E+00 -2.75461893E-01  2.15508886E+00 -1.93482032E-02
 -3.75806242E-02 -5.30532618E+00 -1.31610620E-01 -6.02091908E-02 -3.20492323E+00
  1.13310110E-01 -2.64679630E+00 -2.10594669E+00  2.10791373E+00  2.67176803E+00
 -3.04975179E+00  4.01906192E+00  1.17348039E-01 -2.39118244E+00 -2.74407213E+00
  2.29982230E+00 -2.65518016E+00 -4.05709607E+00 -7.63083357E-01  1.77912008E+00
  3.87374034E+00  7.59489991E-01  7.71829791E-01  2.98369390E+00 -2.27740713E+00
  1.81881093E+00 -3.77013077E+00  1.39534165E-01
Num ILSW                                   I              100
ILSW                                       I   N=         100
           0           1           0           0           2           0
           0           0           0           0           0          -1
           0           0           0           0           0           0
           0           0           0           0           1           0
           1           0           0           0           0           0
           0           0      100000           0          -1           0
           0           0           0           0           0           0
           0           0           0           1           1           0
           0           0           1           0           0           0
           0           0           4          40           0           0
           0           0           0           0           0           0
           0           0           0           0           0           0
           0           0           0           0           0           0
           0           0           0           0           0           0
           0           0           0           0           0           0
           0           0           0           0           0           0
           0           0           0           0
Num RLSW                                   I               40
RLSW                                       R   N=          40
  1.00000000E+00  1.00000000E+00  1.00000000E+00  1.00000000E+00  1.00000000E+00
  0.00000000E+00  0.00000000E+00  1.00000000E+00  0.00000000E+00  0.00000000E+00
  0.00000000E+00  0.00000000E+00  1.00000000E+00  0.00000000E+00  0.00000000E+00
  0.00000000E+00  0.00000000E+00  1.00000000E+00  0.00000000E+00  0.00000000E+00
  0.00000000E+00  0.00000000E+00  1.00000000E+00  0.00000000E+00  0.00000000E+00
  0.00000000E+00  0.00000000E+00  1.00000000E+00  0.00000000E+00  0.00000000E+00
  0.00000000E+00  0.00000000E+00  0.00000000E+00  0.00000000E+00  0.00000000E+00
  0.00000000E+00  0.00000000E+00  0.00000000E+00  1.00000000E+00  1.00000000E+00
MxBond                                     I                4
NBond                                      I   N=          16
           1           3           4           4           4           4
           3           1           1           1           1           1
           1           1           1           1
IBond                                      I   N=          64
           7           0           0           0           5           7
          16           0           4           5           8           9
           3           6          10          11           2           3
          12          13           4           7          14          15
           1           2           6           0           3           0
           0           0           3           0           0           0
           4           0           0           0           4           0
           0           0           5           0           0           0
           5           0           0           0           6           0
           0           0           6           0           0           0
           2           0           0           0
RBond                                      R   N=          64
  2.00000000E+00  0.00000000E+00  0.00000000E+00  0.00000000E+00  1.00000000E+00
  1.00000000E+00  1.00000000E+00  0.00000000E+00  1.00000000E+00  1.00000000E+00
  1.00000000E+00  1.00000000E+00  1.00000000E+00  1.00000000E+00  1.00000000E+00
  1.00000000E+00  1.00000000E+00  1.00000000E+00  1.00000000E+00  1.00000000E+00
  1.00000000E+00  1.00000000E+00  1.00000000E+00  1.00000000E+00  2.00000000E+00
  1.00000000E+00  1.00000000E+00  0.00000000E+00  1.00000000E+00  0.00000000E+00
  0.00000000E+00  0.00000000E+00  1.00000000E+00  0.00000000E+00  0.00000000E+00
  0.00000000E+00  1.00000000E+00  0.00000000E+00  0.00000000E+00  0.00000000E+00
  1.00000000E+00  0.00000000E+00  0.00000000E+00  0.00000000E+00  1.00000000E+00
  0.00000000E+00  0.00000000E+00  0.00000000E+00  1.00000000E+00  0.00000000E+00
  0.00000000E+00  0.00000000E+00  1.00000000E+00  0.00000000E+00  0.00000000E+00
  0.00000000E+00  1.00000000E+00  0.00000000E+00  0.00000000E+00  0.00000000E+00
  1.00000000E+00  0.00000000E+00  0.00000000E+00  0.00000000E+00
Virial Ratio                               R      2.002186484398375E+00
SCF Energy                                 R     -3.239133105640657E+02
MP2 Energy                                 R     -3.248950315553686E+02
Total Energy                               R     -3.248950315553686E+02
Post-SCF wavefunction norm                 R      1.620807200265514E+00
RMS Force                                  R      8.672681849921024E-07
RMS Density                                R      2.302301436810515E-09
External E-field                           R   N=          35
  0.00000000E+00  0.00000000E+00  0.00000000E+00  0.00000000E+00  0.00000000E+00
  0.00000000E+00  0.00000000E+00  0.00000000E+00  0.00000000E+00  0.00000000E+00
  0.00000000E+00  0.00000000E+00  0.00000000E+00  0.00000000E+00  0.00000000E+00
  0.00000000E+00  0.00000000E+00  0.00000000E+00  0.00000000E+00  0.00000000E+00
  0.00000000E+00  0.00000000E+00  0.00000000E+00  0.00000000E+00  0.00000000E+00
  0.00000000E+00  0.00000000E+00  0.00000000E+00  0.00000000E+00  0.00000000E+00
  0.00000000E+00  0.00000000E+00  0.00000000E+00  0.00000000E+00  0.00000000E+00
IOpCl                                      I                0
IROHF                                      I                0
Alpha Orbital Energies                     R   N=         123
 -2.05127144E+01 -1.55832902E+01 -1.13460798E+01 -1.12779259E+01 -1.12404508E+01
 -1.12395433E+01 -1.12370853E+01 -1.36059092E+00 -1.22855504E+00 -1.08728067E+00
 -1.01736251E+00 -8.95318119E-01 -8.41854685E-01 -7.52865779E-01 -6.90387785E-01
 -6.48620226E-01 -6.34817624E-01 -6.10944776E-01 -5.92845947E-01 -5.85118705E-01
 -5.67768107E-01 -5.02177366E-01 -4.94660702E-01 -4.84467111E-01 -4.82203662E-01
 -4.03949652E-01 -3.79331227E-01  1.85897882E-01  2.20171029E-01  2.55728466E-01
  2.63205877E-01  2.70297539E-01  3.02649832E-01  3.05629877E-01  3.15863907E-01
  3.30691166E-01  3.41550390E-01  3.68892572E-01  3.89187801E-01  4.08639126E-01
  4.30732030E-01  4.53619598E-01  5.11605019E-01  6.11422118E-01  7.01481181E-01
  7.19709070E-01  7.31194453E-01  7.46596815E-01  7.60876639E-01  8.38854417E-01
  8.56801846E-01  8.78355866E-01  9.02930271E-01  9.16686439E-01  9.55905517E-01
  9.78065763E-01  9.91303618E-01  1.03464721E+00  1.06660913E+00  1.08528228E+00
  1.10930956E+00  1.12585585E+00  1.12933864E+00  1.13944057E+00  1.16335129E+00
  1.18314549E+00  1.19151998E+00  1.20580467E+00  1.21466002E+00  1.21984830E+00
  1.26121863E+00  1.30361154E+00  1.35660468E+00  1.39324025E+00  1.40396608E+00
  1.55841857E+00  1.57638232E+00  1.63732121E+00  1.68946233E+00  1.70416316E+00
  1.78234731E+00  1.82775939E+00  1.88627065E+00  1.94632909E+00  2.01774361E+00
  2.05518554E+00  2.08882037E+00  2.10924884E+00  2.13817669E+00  2.17333834E+00
  2.18189500E+00  2.21986563E+00  2.24666471E+00  2.28000074E+00  2.31044392E+00
  2.32300179E+00  2.36754225E+00  2.43350669E+00  2.49484018E+00  2.52518723E+00
  2.58123057E+00  2.60795895E+00  2.67991487E+00  2.70339990E+00  2.72214275E+00
  2.73547462E+00  2.82425305E+00  2.89917499E+00  2.93153653E+00  2.97662682E+00
  2.98932407E+00  3.06479745E+00  3.07258217E+00  3.29527976E+00  3.39281743E+00
  3.49106964E+00  4.34580017E+00  4.44877316E+00  4.59179116E+00  4.70136222E+00
  4.84725624E+00  4.93276062E+00  5.01862696E+00
Alpha MO coefficients                      R   N=       15129
  9.94686536E-01  2.09520488E-02 -1.52316544E-03  1.20164713E-05 -6.86199300E-05
  4.62918661E-03  1.63002080E-05 -1.85333304E-05  7.19279481E-06 -3.66242844E-03
 -3.91846813E-03 -4.11609602E-03 -8.81415227E-06  2.00917672E-05 -8.41446358E-06
 -8.15786349E-06 -2.63949024E-05 -4.08300746E-05 -1.13680356E-05 -5.85514454E-06
  6.87556828E-05  1.45806378E-04  2.52408219E-05  2.40878556E-05 -9.11127704E-05
  5.36644164E-05 -4.77195278E-05 -3.39904605E-05  8.91523261E-07  3.86245264E-07
  4.36684786E-06  1.68222882E-05  1.53127114E-05 -1.05540787E-06 -4.28477754E-06
 -3.07812764E-05 -6.40975776E-05 -1.27680200E-05  6.48702030E-05  8.40637733E-06
  3.44171783E-06  1.01959358E-05  6.74940526E-07  1.46685821E-06 -1.56230798E-06
  2.53384406E-06  1.52666157E-05  6.73427330E-06 -2.57158892E-06  1.09786044E-06
 -3.27975700E-05 -2.95991752E-05  3.43116717E-05 -4.91088091E-05  2.17322673E-06
  1.15969398E-07  8.52573293E-06  1.19899792E-05 -3.75787102E-06 -1.18121773E-06
  4.85871803E-06  1.18125953E-05  2.65146198E-05  6.33119863E-06 -8.35982022E-07
  6.50387327E-06  2.23001388E-05 -6.25616971E-05 -6.14845301E-05  3.45714521E-05
  1.56790290E-06  1.38060699E-05 -1.14358486E-05 -8.08159348E-06  3.97763511E-06
 -7.68391648E-07  1.70151291E-05 -2.51047247E-05  1.28840168E-05 -4.50337640E-06
 -1.91336837E-04 -4.31215406E-05  1.19492949E-04  1.77456385E-05 -5.30031608E-05
  1.79743864E-05 -2.15737331E-05  3.28881656E-05 -7.42232500E-06 -3.13778640E-06
 -6.12532433E-06  4.94115702E-04 -3.55309899E-06 -6.25128626E-06 -1.37563604E-06
 -3.70428967E-04 -6.66207619E-04  2.04049534E-04 -5.07985694E-05 -7.67156893E-04
 -4.38432402E-05 -5.01558399E-05  9.98224245E-06 -3.63448516E-05  6.65163415E-07
 -6.86052858E-06 -3.51022392E-05  1.25347829E-05  3.45172691E-05  8.61132599E-06
  2.84320027E-05 -1.68658989E-06 -3.31567497E-05  7.64054382E-06  2.42178520E-05
 -8.46635799E-06 -3.10688466E-05  1.41696211E-05 -4.30588733E-05  1.82299363E-05
 -1.59619291E-05 -2.22854740E-05 -3.51686529E-05 -2.18010609E-05 -1.39718256E-04
  2.59435017E-05 -1.00647178E-05  2.53838424E-07  8.12112349E-04 -1.75639165E-04
  3.31137480E-04 -4.20493184E-05 -5.91506884E-05 -6.93375498E-05 -1.09814080E-04
 -7.20137178E-05  1.05609041E-05 -6.04782529E-06  9.94973369E-01  2.53178727E-02
 -1.32024673E-05  1.13488832E-04  4.30737102E-04 -3.68999132E-03  1.56530747E-04
 -8.88122737E-04 -4.28719896E-04 -3.47638132E-03 -3.43691312E-03 -3.28732497E-03
  2.17896518E-05  3.75556815E-05 -1.35172807E-05 -4.44876494E-06 -6.73620615E-06
 -5.49231012E-05  5.05721762E-05  1.03277963E-06 -2.36832567E-04 -3.04609816E-06
  3.77434086E-06 -5.66555625E-05 -1.65533664E-05 -2.46526581E-05 -2.25691578E-05
  1.91234259E-05 -4.63095275E-06 -1.52643911E-06  3.82106003E-06  2.66180926E-05
  1.79229532E-05 -3.21514057E-05  2.34870922E-05  2.69575829E-04 -3.38697644E-05
  3.11964261E-04 -2.35062255E-04  1.09211188E-05 -9.36528000E-06 -4.56543007E-06
  1.79318645E-05 -4.50614562E-06 -3.10742719E-06 -2.00386483E-05  1.05984881E-04
  2.63528455E-04  1.17650210E-05 -4.03246708E-05  1.47248364E-03  5.55412048E-04
  3.39787579E-04  6.03897185E-05 -1.14439682E-04 -9.68665488E-05 -8.48723256E-05
  4.07155832E-05  1.37827379E-05 -2.38894314E-05 -8.03750261E-06 -3.29038511E-05
 -2.85312360E-05  6.06145493E-05  5.62497919E-06  7.93073112E-05  5.59368569E-04
  2.03184809E-05 -6.54688506E-06  2.58329689E-05 -6.05352145E-05 -2.93182463E-05
 -2.24944623E-05  1.50626726E-05  4.73255465E-06  1.06717700E-05  1.68152702E-04
 -1.19678166E-04 -1.79966412E-04 -1.97163143E-06  1.28291185E-03 -1.32878930E-03
 -1.30760344E-03  8.78435242E-05 -9.99953001E-05 -1.34905636E-04 -7.71550977E-05
 -2.71368674E-05 -2.00767783E-06 -1.56640205E-05  3.48168815E-06  1.02287208E-04
  4.97109574E-06 -4.21278473E-05  5.05206457E-05  3.80768897E-05 -4.38034116E-05
 -1.87786532E-04 -1.28421709E-04 -9.89660172E-05 -5.18875427E-05 -1.49526619E-05
 -3.02590289E-05 -4.65643512E-05  7.41244573E-06 -4.94722558E-05  2.64214467E-04
  2.19562626E-04 -1.65293727E-04  9.91771553E-04 -2.91768545E-04 -3.22494026E-05
 -5.73640998E-06 -5.53340474E-03  2.32006628E-03  4.90309173E-04  4.46309064E-05
  1.57617489E-04  4.52413060E-04  6.28185278E-04 -9.88177398E-05 -1.26434478E-05
  6.49358499E-06 -2.97892247E-04  1.79690293E-04  1.08828960E-04 -5.96305838E-05
  2.72022796E-05  1.54505491E-03 -2.33627002E-03  4.25572238E-05 -2.54695275E-04
 -4.06282047E-04 -5.99333999E-04  2.84911685E-05 -3.64019241E-04 -3.91928335E-05
 -2.32643883E-05 -3.78130157E-05 -2.02466408E-05 -1.05160133E-04  1.78687906E-05
  4.32740732E-05 -2.83354739E-04  2.24237387E-04  3.20295626E-05 -7.23031618E-04
 -5.70206016E-05  3.34701175E-05 -4.22227556E-05 -2.18199800E-05 -2.44722632E-05
  2.23986969E-05 -7.63262165E-05 -2.11176596E-04 -1.46589252E-04  8.15564074E-05
 -4.31287914E-05 -5.58683482E-05  1.14645012E-04 -5.35332529E-04  5.78532401E-04
  8.76281156E-08 -6.36373557E-06 -8.77592656E-05 -2.54165184E-05 -1.63687738E-05
 -2.59764684E-05 -2.05760535E-04 -2.28642681E-04 -1.88720065E-04 -1.27852165E-04
 -4.29622838E-05 -8.23421262E-04 -4.40714437E-04  8.61009621E-04  7.79220781E-04
 -5.53135935E-06 -3.14925146E-05 -1.17308672E-04  4.33316281E-05  1.84380691E-06
 -4.09661493E-05  2.68559149E-03  6.11085625E-05  3.07346979E-05 -6.60683804E-06
 -1.94129048E-05  5.10560624E-03  3.78808326E-04 -2.40856620E-03  1.57467573E-04
 -3.31941854E-04 -3.73711466E-04 -1.35229571E-04  1.99786668E-04 -2.75929951E-05
  2.18881762E-05  9.95886905E-01  2.62981996E-02 -6.78383142E-05 -5.29684726E-04
 -3.43160107E-05 -6.59704008E-03  5.73145556E-03 -3.03251234E-03  4.85650605E-04