64387819                                                                
Freq      RMP2-FC                                                     6-31G(d)            
Number of atoms                            I               24
Info1-9                                    I   N=           9
          36          34        1002           0           0         100
           6           2           1
Charge                                     I                0
Multiplicity                               I                1
Number of electrons                        I               92
Number of alpha electrons                  I               46
Number of beta electrons                   I               46
Number of basis functions                  I              217
Number of independent functions            I              217
Number of point charges in /Mol/           I                0
Number of translation vectors              I                0
Atomic numbers                             I   N=          24
           7           7           7           6           6           6
           6           6           6           6           6           6
           6           1           1           1           1           1
           1           1           1           1           1           1
Nuclear charges                            R   N=          24
  7.00000000E+00  7.00000000E+00  7.00000000E+00  6.00000000E+00  6.00000000E+00
  6.00000000E+00  6.00000000E+00  6.00000000E+00  6.00000000E+00  6.00000000E+00
  6.00000000E+00  6.00000000E+00  6.00000000E+00  1.00000000E+00  1.00000000E+00
  1.00000000E+00  1.00000000E+00  1.00000000E+00  1.00000000E+00  1.00000000E+00
  1.00000000E+00  1.00000000E+00  1.00000000E+00  1.00000000E+00
Current cartesian coordinates              R   N=          72
 -3.01085795E+00 -1.46693262E+00 -1.88430069E-06 -2.34965278E+00  2.69099344E+00
  2.04612870E-06  1.87597549E+00 -2.74663300E+00  5.46436732E-06 -1.23997748E+00
  4.17243412E-01  1.32051564E-05  1.44497166E+00 -2.20814003E-01  3.98034179E-06
  3.39669076E+00  1.60181357E+00  3.63605858E-06 -5.36451078E+00 -3.87380892E-01
 -1.72601605E-05 -4.88971450E+00  2.18982897E+00 -1.08139467E-05  5.87010826E+00
  6.73217755E-01 -6.71692034E-06  2.89839300E+00  4.39808172E+00  5.74919520E-06
 -7.75511652E+00 -1.87630818E+00  5.56228210E-06  6.33993883E+00 -1.91875612E+00
 -6.15600700E-06  4.27753889E+00 -3.55444132E+00 -1.69449897E-06 -2.52860328E+00
 -3.32437859E+00  1.07534362E-05 -6.27065699E+00  3.70117847E+00 -2.69520650E-05
  7.43776879E+00  2.00571484E+00 -1.02457975E-05  1.78851178E+00  4.95783319E+00
 -1.64776150E+00  1.78852140E+00  4.95783044E+00  1.64778060E+00  4.69174325E+00
  5.42718854E+00  2.91019616E-06 -7.90773991E+00 -3.08409032E+00 -1.67368115E+00
 -7.90767791E+00 -3.08412060E+00  1.67367578E+00 -9.36685210E+00 -5.86038087E-01
  4.71494292E-05  8.25752121E+00 -2.65260829E+00 -1.60583593E-05  4.53927758E+00
 -5.59541372E+00  2.38034144E-06
Force Field                                I                0
Int Atom Types                             I   N=          24
           0           0           0           0           0           0
           0           0           0           0           0           0
           0           0           0           0           0           0
           0           0           0           0           0           0
MM charges                                 R   N=          24
  0.00000000E+00  0.00000000E+00  0.00000000E+00  0.00000000E+00  0.00000000E+00
  0.00000000E+00  0.00000000E+00  0.00000000E+00  0.00000000E+00  0.00000000E+00
  0.00000000E+00  0.00000000E+00  0.00000000E+00  0.00000000E+00  0.00000000E+00
  0.00000000E+00  0.00000000E+00  0.00000000E+00  0.00000000E+00  0.00000000E+00
  0.00000000E+00  0.00000000E+00  0.00000000E+00  0.00000000E+00
Integer atomic weights                     I   N=          24
          14          14          14          12          12          12
          12          12          12          12          12          12
          12           1           1           1           1           1
           1           1           1           1           1           1
Real atomic weights                        R   N=          24
  1.40030740E+01  1.40030740E+01  1.40030740E+01  1.20000000E+01  1.20000000E+01
  1.20000000E+01  1.20000000E+01  1.20000000E+01  1.20000000E+01  1.20000000E+01
  1.20000000E+01  1.20000000E+01  1.20000000E+01  1.00782504E+00  1.00782504E+00
  1.00782504E+00  1.00782504E+00  1.00782504E+00  1.00782504E+00  1.00782504E+00
  1.00782504E+00  1.00782504E+00  1.00782504E+00  1.00782504E+00
Atom fragment info                         I   N=          24
           0           0           0           0           0           0
           0           0           0           0           0           0
           0           0           0           0           0           0
           0           0           0           0           0           0
Atom residue num                           I   N=          24
           0           0           0           0           0           0
           0           0           0           0           0           0
           0           0           0           0           0           0
           0           0           0           0           0           0
Nuclear spins                              I   N=          24
           2           2           2           0           0           0
           0           0           0           0           0           0
           0           1           1           1           1           1
           1           1           1           1           1           1
Nuclear ZEff                               R   N=          24
 -4.55000000E+00 -4.55000000E+00 -4.55000000E+00 -3.60000000E+00 -3.60000000E+00
 -3.60000000E+00 -3.60000000E+00 -3.60000000E+00 -3.60000000E+00 -3.60000000E+00
 -3.60000000E+00 -3.60000000E+00 -3.60000000E+00 -1.00000000E+00 -1.00000000E+00
 -1.00000000E+00 -1.00000000E+00 -1.00000000E+00 -1.00000000E+00 -1.00000000E+00
 -1.00000000E+00 -1.00000000E+00 -1.00000000E+00 -1.00000000E+00
Nuclear QMom                               R   N=          24
  2.04400000E+00  2.04400000E+00  2.04400000E+00  0.00000000E+00  0.00000000E+00
  0.00000000E+00  0.00000000E+00  0.00000000E+00  0.00000000E+00  0.00000000E+00
  0.00000000E+00  0.00000000E+00  0.00000000E+00  0.00000000E+00  0.00000000E+00
  0.00000000E+00  0.00000000E+00  0.00000000E+00  0.00000000E+00  0.00000000E+00
  0.00000000E+00  0.00000000E+00  0.00000000E+00  0.00000000E+00
Nuclear GFac                               R   N=          24
  4.03761000E-01  4.03761000E-01  4.03761000E-01  0.00000000E+00  0.00000000E+00
  0.00000000E+00  0.00000000E+00  0.00000000E+00  0.00000000E+00  0.00000000E+00
  0.00000000E+00  0.00000000E+00  0.00000000E+00  2.79284600E+00  2.79284600E+00
  2.79284600E+00  2.79284600E+00  2.79284600E+00  2.79284600E+00  2.79284600E+00
  2.79284600E+00  2.79284600E+00  2.79284600E+00  2.79284600E+00
MicOpt                                     I   N=          24
          -1          -1          -1          -1          -1          -1
          -1          -1          -1          -1          -1          -1
          -1          -1          -1          -1          -1          -1
          -1          -1          -1          -1          -1          -1
Number of contracted shells                I               74
Number of primitive shells                 I              187
Pure/Cartesian d shells                    I                1
Pure/Cartesian f shells                    I                0
Highest angular momentum                   I                2
Largest degree of contraction              I                6
Shell types                                I   N=          74
           0          -1          -1           2           0          -1
          -1           2           0          -1          -1           2
           0          -1          -1           2           0          -1
          -1           2           0          -1          -1           2
           0          -1          -1           2           0          -1
          -1           2           0          -1          -1           2
           0          -1          -1           2           0          -1
          -1           2           0          -1          -1           2
           0          -1          -1           2           0           0
           0           0           0           0           0           0
           0           0           0           0           0           0
           0           0           0           0           0           0
           0           0
Number of primitives per shell             I   N=          74
           6           3           1           1           6           3
           1           1           6           3           1           1
           6           3           1           1           6           3
           1           1           6           3           1           1
           6           3           1           1           6           3
           1           1           6           3           1           1
           6           3           1           1           6           3
           1           1           6           3           1           1
           6           3           1           1           3           1
           3           1           3           1           3           1
           3           1           3           1           3           1
           3           1           3           1           3           1
           3           1
Shell to atom map                          I   N=          74
           1           1           1           1           2           2
           2           2           3           3           3           3
           4           4           4           4           5           5
           5           5           6           6           6           6
           7           7           7           7           8           8
           8           8           9           9           9           9
          10          10          10          10          11          11
          11          11          12          12          12          12
          13          13          13          13          14          14
          15          15          16          16          17          17
          18          18          19          19          20          20
          21          21          22          22          23          23
          24          24
Primitive exponents                        R   N=         187
  4.17351146E+03  6.27457911E+02  1.42902093E+02  4.02343293E+01  1.28202129E+01
  4.39043701E+00  1.16263619E+01  2.71627981E+00  7.72218397E-01  2.12031498E-01
  8.00000000E-01  4.17351146E+03  6.27457911E+02  1.42902093E+02  4.02343293E+01
  1.28202129E+01  4.39043701E+00  1.16263619E+01  2.71627981E+00  7.72218397E-01
  2.12031498E-01  8.00000000E-01  4.17351146E+03  6.27457911E+02  1.42902093E+02
  4.02343293E+01  1.28202129E+01  4.39043701E+00  1.16263619E+01  2.71627981E+00
  7.72218397E-01  2.12031498E-01  8.00000000E-01  3.04752488E+03  4.57369518E+02
  1.03948685E+02  2.92101553E+01  9.28666296E+00  3.16392696E+00  7.86827235E+00
  1.88128854E+00  5.44249258E-01  1.68714478E-01  8.00000000E-01  3.04752488E+03
  4.57369518E+02  1.03948685E+02  2.92101553E+01  9.28666296E+00  3.16392696E+00
  7.86827235E+00  1.88128854E+00  5.44249258E-01  1.68714478E-01  8.00000000E-01
  3.04752488E+03  4.57369518E+02  1.03948685E+02  2.92101553E+01  9.28666296E+00
  3.16392696E+00  7.86827235E+00  1.88128854E+00  5.44249258E-01  1.68714478E-01
  8.00000000E-01  3.04752488E+03  4.57369518E+02  1.03948685E+02  2.92101553E+01
  9.28666296E+00  3.16392696E+00  7.86827235E+00  1.88128854E+00  5.44249258E-01
  1.68714478E-01  8.00000000E-01  3.04752488E+03  4.57369518E+02  1.03948685E+02
  2.92101553E+01  9.28666296E+00  3.16392696E+00  7.86827235E+00  1.88128854E+00
  5.44249258E-01  1.68714478E-01  8.00000000E-01  3.04752488E+03  4.57369518E+02
  1.03948685E+02  2.92101553E+01  9.28666296E+00  3.16392696E+00  7.86827235E+00
  1.88128854E+00  5.44249258E-01  1.68714478E-01  8.00000000E-01  3.04752488E+03
  4.57369518E+02  1.03948685E+02  2.92101553E+01  9.28666296E+00  3.16392696E+00
  7.86827235E+00  1.88128854E+00  5.44249258E-01  1.68714478E-01  8.00000000E-01
  3.04752488E+03  4.57369518E+02  1.03948685E+02  2.92101553E+01  9.28666296E+00
  3.16392696E+00  7.86827235E+00  1.88128854E+00  5.44249258E-01  1.68714478E-01
  8.00000000E-01  3.04752488E+03  4.57369518E+02  1.03948685E+02  2.92101553E+01
  9.28666296E+00  3.16392696E+00  7.86827235E+00  1.88128854E+00  5.44249258E-01
  1.68714478E-01  8.00000000E-01  3.04752488E+03  4.57369518E+02  1.03948685E+02
  2.92101553E+01  9.28666296E+00  3.16392696E+00  7.86827235E+00  1.88128854E+00
  5.44249258E-01  1.68714478E-01  8.00000000E-01  1.87311370E+01  2.82539436E+00
  6.40121692E-01  1.61277759E-01  1.87311370E+01  2.82539436E+00  6.40121692E-01
  1.61277759E-01  1.87311370E+01  2.82539436E+00  6.40121692E-01  1.61277759E-01
  1.87311370E+01  2.82539436E+00  6.40121692E-01  1.61277759E-01  1.87311370E+01
  2.82539436E+00  6.40121692E-01  1.61277759E-01  1.87311370E+01  2.82539436E+00
  6.40121692E-01  1.61277759E-01  1.87311370E+01  2.82539436E+00  6.40121692E-01
  1.61277759E-01  1.87311370E+01  2.82539436E+00  6.40121692E-01  1.61277759E-01
  1.87311370E+01  2.82539436E+00  6.40121692E-01  1.61277759E-01  1.87311370E+01
  2.82539436E+00  6.40121692E-01  1.61277759E-01  1.87311370E+01  2.82539436E+00
  6.40121692E-01  1.61277759E-01
Contraction coefficients                   R   N=         187
  1.83477216E-03  1.39946270E-02  6.85865518E-02  2.32240873E-01  4.69069948E-01
  3.60455199E-01 -1.14961182E-01 -1.69117479E-01  1.14585195E+00  1.00000000E+00
  1.00000000E+00  1.83477216E-03  1.39946270E-02  6.85865518E-02  2.32240873E-01
  4.69069948E-01  3.60455199E-01 -1.14961182E-01 -1.69117479E-01  1.14585195E+00
  1.00000000E+00  1.00000000E+00  1.83477216E-03  1.39946270E-02  6.85865518E-02
  2.32240873E-01  4.69069948E-01  3.60455199E-01 -1.14961182E-01 -1.69117479E-01
  1.14585195E+00  1.00000000E+00  1.00000000E+00  1.83473713E-03  1.40373228E-02
  6.88426223E-02  2.32184443E-01  4.67941348E-01  3.62311985E-01 -1.19332420E-01
 -1.60854152E-01  1.14345644E+00  1.00000000E+00  1.00000000E+00  1.83473713E-03
  1.40373228E-02  6.88426223E-02  2.32184443E-01  4.67941348E-01  3.62311985E-01
 -1.19332420E-01 -1.60854152E-01  1.14345644E+00  1.00000000E+00  1.00000000E+00
  1.83473713E-03  1.40373228E-02  6.88426223E-02  2.32184443E-01  4.67941348E-01
  3.62311985E-01 -1.19332420E-01 -1.60854152E-01  1.14345644E+00  1.00000000E+00
  1.00000000E+00  1.83473713E-03  1.40373228E-02  6.88426223E-02  2.32184443E-01
  4.67941348E-01  3.62311985E-01 -1.19332420E-01 -1.60854152E-01  1.14345644E+00
  1.00000000E+00  1.00000000E+00  1.83473713E-03  1.40373228E-02  6.88426223E-02
  2.32184443E-01  4.67941348E-01  3.62311985E-01 -1.19332420E-01 -1.60854152E-01
  1.14345644E+00  1.00000000E+00  1.00000000E+00  1.83473713E-03  1.40373228E-02
  6.88426223E-02  2.32184443E-01  4.67941348E-01  3.62311985E-01 -1.19332420E-01
 -1.60854152E-01  1.14345644E+00  1.00000000E+00  1.00000000E+00  1.83473713E-03
  1.40373228E-02  6.88426223E-02  2.32184443E-01  4.67941348E-01  3.62311985E-01
 -1.19332420E-01 -1.60854152E-01  1.14345644E+00  1.00000000E+00  1.00000000E+00
  1.83473713E-03  1.40373228E-02  6.88426223E-02  2.32184443E-01  4.67941348E-01
  3.62311985E-01 -1.19332420E-01 -1.60854152E-01  1.14345644E+00  1.00000000E+00
  1.00000000E+00  1.83473713E-03  1.40373228E-02  6.88426223E-02  2.32184443E-01
  4.67941348E-01  3.62311985E-01 -1.19332420E-01 -1.60854152E-01  1.14345644E+00
  1.00000000E+00  1.00000000E+00  1.83473713E-03  1.40373228E-02  6.88426223E-02
  2.32184443E-01  4.67941348E-01  3.62311985E-01 -1.19332420E-01 -1.60854152E-01
  1.14345644E+00  1.00000000E+00  1.00000000E+00  3.34946043E-02  2.34726953E-01
  8.13757326E-01  1.00000000E+00  3.34946043E-02  2.34726953E-01  8.13757326E-01
  1.00000000E+00  3.34946043E-02  2.34726953E-01  8.13757326E-01  1.00000000E+00
  3.34946043E-02  2.34726953E-01  8.13757326E-01  1.00000000E+00  3.34946043E-02
  2.34726953E-01  8.13757326E-01  1.00000000E+00  3.34946043E-02  2.34726953E-01
  8.13757326E-01  1.00000000E+00  3.34946043E-02  2.34726953E-01  8.13757326E-01
  1.00000000E+00  3.34946043E-02  2.34726953E-01  8.13757326E-01  1.00000000E+00
  3.34946043E-02  2.34726953E-01  8.13757326E-01  1.00000000E+00  3.34946043E-02
  2.34726953E-01  8.13757326E-01  1.00000000E+00  3.34946043E-02  2.34726953E-01
  8.13757326E-01  1.00000000E+00
P(S=P) Contraction coefficients            R   N=         187
  0.00000000E+00  0.00000000E+00  0.00000000E+00  0.00000000E+00  0.00000000E+00
  0.00000000E+00  6.75797439E-02  3.23907296E-01  7.40895140E-01  1.00000000E+00
  0.00000000E+00  0.00000000E+00  0.00000000E+00  0.00000000E+00  0.00000000E+00
  0.00000000E+00  0.00000000E+00  6.75797439E-02  3.23907296E-01  7.40895140E-01
  1.00000000E+00  0.00000000E+00  0.00000000E+00  0.00000000E+00  0.00000000E+00
  0.00000000E+00  0.00000000E+00  0.00000000E+00  6.75797439E-02  3.23907296E-01
  7.40895140E-01  1.00000000E+00  0.00000000E+00  0.00000000E+00  0.00000000E+00
  0.00000000E+00  0.00000000E+00  0.00000000E+00  0.00000000E+00  6.89990666E-02
  3.16423961E-01  7.44308291E-01  1.00000000E+00  0.00000000E+00  0.00000000E+00
  0.00000000E+00  0.00000000E+00  0.00000000E+00  0.00000000E+00  0.00000000E+00
  6.89990666E-02  3.16423961E-01  7.44308291E-01  1.00000000E+00  0.00000000E+00
  0.00000000E+00  0.00000000E+00  0.00000000E+00  0.00000000E+00  0.00000000E+00
  0.00000000E+00  6.89990666E-02  3.16423961E-01  7.44308291E-01  1.00000000E+00
  0.00000000E+00  0.00000000E+00  0.00000000E+00  0.00000000E+00  0.00000000E+00
  0.00000000E+00  0.00000000E+00  6.89990666E-02  3.16423961E-01  7.44308291E-01
  1.00000000E+00  0.00000000E+00  0.00000000E+00  0.00000000E+00  0.00000000E+00
  0.00000000E+00  0.00000000E+00  0.00000000E+00  6.89990666E-02  3.16423961E-01
  7.44308291E-01  1.00000000E+00  0.00000000E+00  0.00000000E+00  0.00000000E+00
  0.00000000E+00  0.00000000E+00  0.00000000E+00  0.00000000E+00  6.89990666E-02
  3.16423961E-01  7.44308291E-01  1.00000000E+00  0.00000000E+00  0.00000000E+00
  0.00000000E+00  0.00000000E+00  0.00000000E+00  0.00000000E+00  0.00000000E+00
  6.89990666E-02  3.16423961E-01  7.44308291E-01  1.00000000E+00  0.00000000E+00
  0.00000000E+00  0.00000000E+00  0.00000000E+00  0.00000000E+00  0.00000000E+00
  0.00000000E+00  6.89990666E-02  3.16423961E-01  7.44308291E-01  1.00000000E+00
  0.00000000E+00  0.00000000E+00  0.00000000E+00  0.00000000E+00  0.00000000E+00
  0.00000000E+00  0.00000000E+00  6.89990666E-02  3.16423961E-01  7.44308291E-01
  1.00000000E+00  0.00000000E+00  0.00000000E+00  0.00000000E+00  0.00000000E+00
  0.00000000E+00  0.00000000E+00  0.00000000E+00  6.89990666E-02  3.16423961E-01
  7.44308291E-01  1.00000000E+00  0.00000000E+00  0.00000000E+00  0.00000000E+00
  0.00000000E+00  0.00000000E+00  0.00000000E+00  0.00000000E+00  0.00000000E+00
  0.00000000E+00  0.00000000E+00  0.00000000E+00  0.00000000E+00  0.00000000E+00
  0.00000000E+00  0.00000000E+00  0.00000000E+00  0.00000000E+00  0.00000000E+00
  0.00000000E+00  0.00000000E+00  0.00000000E+00  0.00000000E+00  0.00000000E+00
  0.00000000E+00  0.00000000E+00  0.00000000E+00  0.00000000E+00  0.00000000E+00
  0.00000000E+00  0.00000000E+00  0.00000000E+00  0.00000000E+00  0.00000000E+00
  0.00000000E+00  0.00000000E+00  0.00000000E+00  0.00000000E+00  0.00000000E+00
  0.00000000E+00  0.00000000E+00  0.00000000E+00  0.00000000E+00  0.00000000E+00
  0.00000000E+00  0.00000000E+00
Coordinates of each shell                  R   N=         222
 -3.01085795E+00 -1.46693262E+00 -1.88430069E-06 -3.01085795E+00 -1.46693262E+00
 -1.88430069E-06 -3.01085795E+00 -1.46693262E+00 -1.88430069E-06 -3.01085795E+00
 -1.46693262E+00 -1.88430069E-06 -2.34965278E+00  2.69099344E+00  2.04612870E-06
 -2.34965278E+00  2.69099344E+00  2.04612870E-06 -2.34965278E+00  2.69099344E+00
  2.04612870E-06 -2.34965278E+00  2.69099344E+00  2.04612870E-06  1.87597549E+00
 -2.74663300E+00  5.46436732E-06  1.87597549E+00 -2.74663300E+00  5.46436732E-06
  1.87597549E+00 -2.74663300E+00  5.46436732E-06  1.87597549E+00 -2.74663300E+00
  5.46436732E-06 -1.23997748E+00  4.17243412E-01  1.32051564E-05 -1.23997748E+00
  4.17243412E-01  1.32051564E-05 -1.23997748E+00  4.17243412E-01  1.32051564E-05
 -1.23997748E+00  4.17243412E-01  1.32051564E-05  1.44497166E+00 -2.20814003E-01
  3.98034179E-06  1.44497166E+00 -2.20814003E-01  3.98034179E-06  1.44497166E+00
 -2.20814003E-01  3.98034179E-06  1.44497166E+00 -2.20814003E-01  3.98034179E-06
  3.39669076E+00  1.60181357E+00  3.63605858E-06  3.39669076E+00  1.60181357E+00
  3.63605858E-06  3.39669076E+00  1.60181357E+00  3.63605858E-06  3.39669076E+00
  1.60181357E+00  3.63605858E-06 -5.36451078E+00 -3.87380892E-01 -1.72601605E-05
 -5.36451078E+00 -3.87380892E-01 -1.72601605E-05 -5.36451078E+00 -3.87380892E-01
 -1.72601605E-05 -5.36451078E+00 -3.87380892E-01 -1.72601605E-05 -4.88971450E+00
  2.18982897E+00 -1.08139467E-05 -4.88971450E+00  2.18982897E+00 -1.08139467E-05
 -4.88971450E+00  2.18982897E+00 -1.08139467E-05 -4.88971450E+00  2.18982897E+00
 -1.08139467E-05  5.87010826E+00  6.73217755E-01 -6.71692034E-06  5.87010826E+00
  6.73217755E-01 -6.71692034E-06  5.87010826E+00  6.73217755E-01 -6.71692034E-06
  5.87010826E+00  6.73217755E-01 -6.71692034E-06  2.89839300E+00  4.39808172E+00
  5.74919520E-06  2.89839300E+00  4.39808172E+00  5.74919520E-06  2.89839300E+00
  4.39808172E+00  5.74919520E-06  2.89839300E+00  4.39808172E+00  5.74919520E-06
 -7.75511652E+00 -1.87630818E+00  5.56228210E-06 -7.75511652E+00 -1.87630818E+00
  5.56228210E-06 -7.75511652E+00 -1.87630818E+00  5.56228210E-06 -7.75511652E+00
 -1.87630818E+00  5.56228210E-06  6.33993883E+00 -1.91875612E+00 -6.15600700E-06
  6.33993883E+00 -1.91875612E+00 -6.15600700E-06  6.33993883E+00 -1.91875612E+00
 -6.15600700E-06  6.33993883E+00 -1.91875612E+00 -6.15600700E-06  4.27753889E+00
 -3.55444132E+00 -1.69449897E-06  4.27753889E+00 -3.55444132E+00 -1.69449897E-06
  4.27753889E+00 -3.55444132E+00 -1.69449897E-06  4.27753889E+00 -3.55444132E+00
 -1.69449897E-06 -2.52860328E+00 -3.32437859E+00  1.07534362E-05 -2.52860328E+00
 -3.32437859E+00  1.07534362E-05 -6.27065699E+00  3.70117847E+00 -2.69520650E-05
 -6.27065699E+00  3.70117847E+00 -2.69520650E-05  7.43776879E+00  2.00571484E+00
 -1.02457975E-05  7.43776879E+00  2.00571484E+00 -1.02457975E-05  1.78851178E+00
  4.95783319E+00 -1.64776150E+00  1.78851178E+00  4.95783319E+00 -1.64776150E+00
  1.78852140E+00  4.95783044E+00  1.64778060E+00  1.78852140E+00  4.95783044E+00
  1.64778060E+00  4.69174325E+00  5.42718854E+00  2.91019616E-06  4.69174325E+00
  5.42718854E+00  2.91019616E-06 -7.90773991E+00 -3.08409032E+00 -1.67368115E+00
 -7.90773991E+00 -3.08409032E+00 -1.67368115E+00 -7.90767791E+00 -3.08412060E+00
  1.67367578E+00 -7.90767791E+00 -3.08412060E+00  1.67367578E+00 -9.36685210E+00
 -5.86038087E-01  4.71494292E-05 -9.36685210E+00 -5.86038087E-01  4.71494292E-05
  8.25752121E+00 -2.65260829E+00 -1.60583593E-05  8.25752121E+00 -2.65260829E+00
 -1.60583593E-05  4.53927758E+00 -5.59541372E+00  2.38034144E-06  4.53927758E+00
 -5.59541372E+00  2.38034144E-06
Constraint Structure                       R   N=          72
 -3.01085795E+00 -1.46693262E+00 -1.88430069E-06 -2.34965278E+00  2.69099344E+00
  2.04612870E-06  1.87597549E+00 -2.74663300E+00  5.46436732E-06 -1.23997748E+00
  4.17243412E-01  1.32051564E-05  1.44497166E+00 -2.20814003E-01  3.98034179E-06
  3.39669076E+00  1.60181357E+00  3.63605858E-06 -5.36451078E+00 -3.87380892E-01
 -1.72601605E-05 -4.88971450E+00  2.18982897E+00 -1.08139467E-05  5.87010826E+00
  6.73217755E-01 -6.71692034E-06  2.89839300E+00  4.39808172E+00  5.74919520E-06
 -7.75511652E+00 -1.87630818E+00  5.56228210E-06  6.33993883E+00 -1.91875612E+00
 -6.15600700E-06  4.27753889E+00 -3.55444132E+00 -1.69449897E-06 -2.52860328E+00
 -3.32437859E+00  1.07534362E-05 -6.27065699E+00  3.70117847E+00 -2.69520650E-05
  7.43776879E+00  2.00571484E+00 -1.02457975E-05  1.78851178E+00  4.95783319E+00
 -1.64776150E+00  1.78852140E+00  4.95783044E+00  1.64778060E+00  4.69174325E+00
  5.42718854E+00  2.91019616E-06 -7.90773991E+00 -3.08409032E+00 -1.67368115E+00
 -7.90767791E+00 -3.08412060E+00  1.67367578E+00 -9.36685210E+00 -5.86038087E-01
  4.71494292E-05  8.25752121E+00 -2.65260829E+00 -1.60583593E-05  4.53927758E+00
 -5.59541372E+00  2.38034144E-06
Num ILSW                                   I              100
ILSW                                       I   N=         100
           0           1           0           0           2           0
           0           0           0           0           0          -1
           0           0           0           0           0           0
           0           0           0           0           1           0
           1           0           0           0           0           0
           0           0      100000           0          -1           0
           0           0           0           0           0           0
           0           0           0           1           1           0
           0           0           1           0           0           0
           0           0           4          40           0           0
           0           0           0           0           0           0
           0           0           0           0           0           0
           0           0           0           0           0           0
           0           0           0           0           0           0
           0           0           0           0           0           0
           0           0           0           0           0           0
           0           0           0           0
Num RLSW                                   I               40
RLSW                                       R   N=          40
  1.00000000E+00  1.00000000E+00  1.00000000E+00  1.00000000E+00  1.00000000E+00
  0.00000000E+00  0.00000000E+00  1.00000000E+00  0.00000000E+00  0.00000000E+00
  0.00000000E+00  0.00000000E+00  1.00000000E+00  0.00000000E+00  0.00000000E+00
  0.00000000E+00  0.00000000E+00  1.00000000E+00  0.00000000E+00  0.00000000E+00
  0.00000000E+00  0.00000000E+00  1.00000000E+00  0.00000000E+00  0.00000000E+00
  0.00000000E+00  0.00000000E+00  1.00000000E+00  0.00000000E+00  0.00000000E+00
  0.00000000E+00  0.00000000E+00  0.00000000E+00  0.00000000E+00  0.00000000E+00
  0.00000000E+00  0.00000000E+00  0.00000000E+00  1.00000000E+00  1.00000000E+00
MxBond                                     I                4
NBond                                      I   N=          24
           3           2           2           3           3           3
           3           3           3           4           4           3
           3           1           1           1           1           1
           1           1           1           1           1           1
IBond                                      I   N=          96
           4           7          14           0           4           8
           0           0           5          13           0           0
           1           2           5           0           3           4
           6           0           5           9          10           0
           1           8          11           0           2           7
          15           0           6          12          16           0
           6          17          18          19           7          20
          21          22           9          13          23           0
           3          12          24           0           1           0
           0           0           8           0           0           0
           9           0           0           0          10           0
           0           0          10           0           0           0
          10           0           0           0          11           0
           0           0          11           0           0           0
          11           0           0           0          12           0
           0           0          13           0           0           0
RBond                                      R   N=          96
  1.50000000E+00  1.50000000E+00  1.00000000E+00  0.00000000E+00  1.50000000E+00
  1.00000000E+00  0.00000000E+00  0.00000000E+00  1.50000000E+00  1.50000000E+00
  0.00000000E+00  0.00000000E+00  1.50000000E+00  1.50000000E+00  1.00000000E+00
  0.00000000E+00  1.50000000E+00  1.00000000E+00  1.50000000E+00  0.00000000E+00
  1.50000000E+00  1.50000000E+00  1.00000000E+00  0.00000000E+00  1.50000000E+00
  1.50000000E+00  1.00000000E+00  0.00000000E+00  1.00000000E+00  1.50000000E+00
  1.00000000E+00  0.00000000E+00  1.50000000E+00  1.50000000E+00  1.00000000E+00
  0.00000000E+00  1.00000000E+00  1.00000000E+00  1.00000000E+00  1.00000000E+00
  1.00000000E+00  1.00000000E+00  1.00000000E+00  1.00000000E+00  1.50000000E+00
  1.50000000E+00  1.00000000E+00  0.00000000E+00  1.50000000E+00  1.50000000E+00
  1.00000000E+00  0.00000000E+00  1.00000000E+00  0.00000000E+00  0.00000000E+00
  0.00000000E+00  1.00000000E+00  0.00000000E+00  0.00000000E+00  0.00000000E+00
  1.00000000E+00  0.00000000E+00  0.00000000E+00  0.00000000E+00  1.00000000E+00
  0.00000000E+00  0.00000000E+00  0.00000000E+00  1.00000000E+00  0.00000000E+00
  0.00000000E+00  0.00000000E+00  1.00000000E+00  0.00000000E+00  0.00000000E+00
  0.00000000E+00  1.00000000E+00  0.00000000E+00  0.00000000E+00  0.00000000E+00