073_CF4 Gaussian SP Calculation on g2-node38.bme.utexas.edu             
Freq      RMP2-FC                                                     6-31G(d)            
Number of atoms                            I                5
Info1-9                                    I   N=           9
          16          15        1002           0           0         100
           6           2           1
Charge                                     I                0
Multiplicity                               I                1
Number of electrons                        I               42
Number of alpha electrons                  I               21
Number of beta electrons                   I               21
Number of basis functions                  I               75
Number of independent functions            I               75
Number of point charges in /Mol/           I                0
Number of translation vectors              I                0
Atomic numbers                             I   N=           5
           9           9           9           9           6
Nuclear charges                            R   N=           5
  9.00000000E+00  9.00000000E+00  9.00000000E+00  9.00000000E+00  6.00000000E+00
Current cartesian coordinates              R   N=          15
 -2.04181743E+00 -1.44469758E+00 -2.57363535E-01 -1.20834032E-01  1.91831956E+00
 -1.62105471E+00  2.05799335E+00 -1.36609782E+00 -4.69950179E-01  1.04662452E-01
  8.92486455E-01  2.34837240E+00 -6.50547618E-06 -1.59092689E-05 -5.96907257E-06
Force Field                                I                0
Int Atom Types                             I   N=           5
           0           0           0           0           0
MM charges                                 R   N=           5
  0.00000000E+00  0.00000000E+00  0.00000000E+00  0.00000000E+00  0.00000000E+00
Integer atomic weights                     I   N=           5
          19          19          19          19          12
Real atomic weights                        R   N=           5
  1.89984032E+01  1.89984032E+01  1.89984032E+01  1.89984032E+01  1.20000000E+01
Atom fragment info                         I   N=           5
           0           0           0           0           0
Atom residue num                           I   N=           5
           0           0           0           0           0
Nuclear spins                              I   N=           5
           1           1           1           1           0
Nuclear ZEff                               R   N=           5
 -6.75000000E+00 -6.75000000E+00 -6.75000000E+00 -6.75000000E+00 -3.60000000E+00
Nuclear QMom                               R   N=           5
  0.00000000E+00  0.00000000E+00  0.00000000E+00  0.00000000E+00  0.00000000E+00
Nuclear GFac                               R   N=           5
  2.62886700E+00  2.62886700E+00  2.62886700E+00  2.62886700E+00  0.00000000E+00
MicOpt                                     I   N=           5
          -1          -1          -1          -1          -1
Number of contracted shells                I               20
Number of primitive shells                 I               55
Pure/Cartesian d shells                    I                1
Pure/Cartesian f shells                    I                0
Highest angular momentum                   I                2
Largest degree of contraction              I                6
Shell types                                I   N=          20
           0          -1          -1           2           0          -1
          -1           2           0          -1          -1           2
           0          -1          -1           2           0          -1
          -1           2
Number of primitives per shell             I   N=          20
           6           3           1           1           6           3
           1           1           6           3           1           1
           6           3           1           1           6           3
           1           1
Shell to atom map                          I   N=          20
           1           1           1           1           2           2
           2           2           3           3           3           3
           4           4           4           4           5           5
           5           5
Primitive exponents                        R   N=          55
  7.00171309E+03  1.05136609E+03  2.39285690E+02  6.73974453E+01  2.15199573E+01
  7.40310130E+00  2.08479528E+01  4.80830834E+00  1.34406986E+00  3.58151393E-01
  8.00000000E-01  7.00171309E+03  1.05136609E+03  2.39285690E+02  6.73974453E+01
  2.15199573E+01  7.40310130E+00  2.08479528E+01  4.80830834E+00  1.34406986E+00
  3.58151393E-01  8.00000000E-01  7.00171309E+03  1.05136609E+03  2.39285690E+02
  6.73974453E+01  2.15199573E+01  7.40310130E+00  2.08479528E+01  4.80830834E+00
  1.34406986E+00  3.58151393E-01  8.00000000E-01  7.00171309E+03  1.05136609E+03
  2.39285690E+02  6.73974453E+01  2.15199573E+01  7.40310130E+00  2.08479528E+01
  4.80830834E+00  1.34406986E+00  3.58151393E-01  8.00000000E-01  3.04752488E+03
  4.57369518E+02  1.03948685E+02  2.92101553E+01  9.28666296E+00  3.16392696E+00
  7.86827235E+00  1.88128854E+00  5.44249258E-01  1.68714478E-01  8.00000000E-01
Contraction coefficients                   R   N=          55
  1.81961690E-03  1.39160796E-02  6.84053245E-02  2.33185760E-01  4.71267439E-01
  3.56618546E-01 -1.08506975E-01 -1.46451658E-01  1.12868858E+00  1.00000000E+00
  1.00000000E+00  1.81961690E-03  1.39160796E-02  6.84053245E-02  2.33185760E-01
  4.71267439E-01  3.56618546E-01 -1.08506975E-01 -1.46451658E-01  1.12868858E+00
  1.00000000E+00  1.00000000E+00  1.81961690E-03  1.39160796E-02  6.84053245E-02
  2.33185760E-01  4.71267439E-01  3.56618546E-01 -1.08506975E-01 -1.46451658E-01
  1.12868858E+00  1.00000000E+00  1.00000000E+00  1.81961690E-03  1.39160796E-02
  6.84053245E-02  2.33185760E-01  4.71267439E-01  3.56618546E-01 -1.08506975E-01
 -1.46451658E-01  1.12868858E+00  1.00000000E+00  1.00000000E+00  1.83473713E-03
  1.40373228E-02  6.88426223E-02  2.32184443E-01  4.67941348E-01  3.62311985E-01
 -1.19332420E-01 -1.60854152E-01  1.14345644E+00  1.00000000E+00  1.00000000E+00
P(S=P) Contraction coefficients            R   N=          55
  0.00000000E+00  0.00000000E+00  0.00000000E+00  0.00000000E+00  0.00000000E+00
  0.00000000E+00  7.16287242E-02  3.45912103E-01  7.22469956E-01  1.00000000E+00
  0.00000000E+00  0.00000000E+00  0.00000000E+00  0.00000000E+00  0.00000000E+00
  0.00000000E+00  0.00000000E+00  7.16287242E-02  3.45912103E-01  7.22469956E-01
  1.00000000E+00  0.00000000E+00  0.00000000E+00  0.00000000E+00  0.00000000E+00
  0.00000000E+00  0.00000000E+00  0.00000000E+00  7.16287242E-02  3.45912103E-01
  7.22469956E-01  1.00000000E+00  0.00000000E+00  0.00000000E+00  0.00000000E+00
  0.00000000E+00  0.00000000E+00  0.00000000E+00  0.00000000E+00  7.16287242E-02
  3.45912103E-01  7.22469956E-01  1.00000000E+00  0.00000000E+00  0.00000000E+00
  0.00000000E+00  0.00000000E+00  0.00000000E+00  0.00000000E+00  0.00000000E+00
  6.89990666E-02  3.16423961E-01  7.44308291E-01  1.00000000E+00  0.00000000E+00
Coordinates of each shell                  R   N=          60
 -2.04181743E+00 -1.44469758E+00 -2.57363535E-01 -2.04181743E+00 -1.44469758E+00
 -2.57363535E-01 -2.04181743E+00 -1.44469758E+00 -2.57363535E-01 -2.04181743E+00
 -1.44469758E+00 -2.57363535E-01 -1.20834032E-01  1.91831956E+00 -1.62105471E+00
 -1.20834032E-01  1.91831956E+00 -1.62105471E+00 -1.20834032E-01  1.91831956E+00
 -1.62105471E+00 -1.20834032E-01  1.91831956E+00 -1.62105471E+00  2.05799335E+00
 -1.36609782E+00 -4.69950179E-01  2.05799335E+00 -1.36609782E+00 -4.69950179E-01
  2.05799335E+00 -1.36609782E+00 -4.69950179E-01  2.05799335E+00 -1.36609782E+00
 -4.69950179E-01  1.04662452E-01  8.92486455E-01  2.34837240E+00  1.04662452E-01
  8.92486455E-01  2.34837240E+00  1.04662452E-01  8.92486455E-01  2.34837240E+00
  1.04662452E-01  8.92486455E-01  2.34837240E+00 -6.50547618E-06 -1.59092689E-05
 -5.96907257E-06 -6.50547618E-06 -1.59092689E-05 -5.96907257E-06 -6.50547618E-06
 -1.59092689E-05 -5.96907257E-06 -6.50547618E-06 -1.59092689E-05 -5.96907257E-06
Constraint Structure                       R   N=          15
 -2.04181743E+00 -1.44469758E+00 -2.57363535E-01 -1.20834032E-01  1.91831956E+00
 -1.62105471E+00  2.05799335E+00 -1.36609782E+00 -4.69950179E-01  1.04662452E-01
  8.92486455E-01  2.34837240E+00 -6.50547618E-06 -1.59092689E-05 -5.96907257E-06
Num ILSW                                   I              100
ILSW                                       I   N=         100
           0           1           0           0           2           0
           0           0           0           0           0          -1
           0           0           0           0           0           0
           0           0           0           0           1           0
           1           0           0           0           0           0
           0           0      100000           0          -1           0
           0           0           0           0           0           0
           0           0           0           1           1           0
           0           0           1           0           0           0
           0           0           4          40           0           0
           0           0           0           0           0           0
           0           0           0           0           0           0
           0           0           0           0           0           0
           0           0           0           0           0           0
           0           0           0           0           0           0
           0           0           0           0           0           0
           0           0           0           0
Num RLSW                                   I               40
RLSW                                       R   N=          40
  1.00000000E+00  1.00000000E+00  1.00000000E+00  1.00000000E+00  1.00000000E+00
  0.00000000E+00  0.00000000E+00  1.00000000E+00  0.00000000E+00  0.00000000E+00
  0.00000000E+00  0.00000000E+00  1.00000000E+00  0.00000000E+00  0.00000000E+00
  0.00000000E+00  0.00000000E+00  1.00000000E+00  0.00000000E+00  0.00000000E+00
  0.00000000E+00  0.00000000E+00  1.00000000E+00  0.00000000E+00  0.00000000E+00
  0.00000000E+00  0.00000000E+00  1.00000000E+00  0.00000000E+00  0.00000000E+00
  0.00000000E+00  0.00000000E+00  0.00000000E+00  0.00000000E+00  0.00000000E+00
  0.00000000E+00  0.00000000E+00  0.00000000E+00  1.00000000E+00  1.00000000E+00
MxBond                                     I                4
NBond                                      I   N=           5
           1           1           1           1           4
IBond                                      I   N=          20
           5           0           0           0           5           0
           0           0           5           0           0           0
           5           0           0           0           1           2
           3           4
RBond                                      R   N=          20
  1.00000000E+00  0.00000000E+00  0.00000000E+00  0.00000000E+00  1.00000000E+00
  0.00000000E+00  0.00000000E+00  0.00000000E+00  1.00000000E+00  0.00000000E+00
  0.00000000E+00  0.00000000E+00  1.00000000E+00  0.00000000E+00  0.00000000E+00
  0.00000000E+00  1.00000000E+00  1.00000000E+00  1.00000000E+00  1.00000000E+00
Virial Ratio                               R      2.002900202490397E+00
SCF Energy                                 R     -4.356411689098881E+02
MP2 Energy                                 R     -4.364475485192230E+02
Total Energy                               R     -4.364475485192230E+02
Post-SCF wavefunction norm                 R      1.539576442129421E+00
RMS Force                                  R      3.108693277633828E-06
RMS Density                                R      1.302968604877702E-09
External E-field                           R   N=          35
  0.00000000E+00  0.00000000E+00  0.00000000E+00  0.00000000E+00  0.00000000E+00
  0.00000000E+00  0.00000000E+00  0.00000000E+00  0.00000000E+00  0.00000000E+00
  0.00000000E+00  0.00000000E+00  0.00000000E+00  0.00000000E+00  0.00000000E+00
  0.00000000E+00  0.00000000E+00  0.00000000E+00  0.00000000E+00  0.00000000E+00
  0.00000000E+00  0.00000000E+00  0.00000000E+00  0.00000000E+00  0.00000000E+00
  0.00000000E+00  0.00000000E+00  0.00000000E+00  0.00000000E+00  0.00000000E+00
  0.00000000E+00  0.00000000E+00  0.00000000E+00  0.00000000E+00  0.00000000E+00
IOpCl                                      I                0
IROHF                                      I                0
Alpha Orbital Energies                     R   N=          75
 -2.63782796E+01 -2.63782764E+01 -2.63782746E+01 -2.63782355E+01 -1.16174410E+01
 -1.79178663E+00 -1.67014440E+00 -1.67013955E+00 -1.67013702E+00 -1.00207950E+00
 -8.77263399E-01 -8.77261821E-01 -8.77260671E-01 -7.53503383E-01 -7.53503203E-01
 -7.01332479E-01 -7.01330206E-01 -7.01328857E-01 -6.75697872E-01 -6.75696696E-01
 -6.75694867E-01  4.03241193E-01  4.05604285E-01  4.05609244E-01  4.05615911E-01
  6.75344068E-01  6.75344740E-01  6.75346691E-01  6.79432871E-01  1.28466694E+00
  1.28466720E+00  1.29937672E+00  1.29937882E+00  1.29937979E+00  1.41406077E+00
  1.57711699E+00  1.57711721E+00  1.60826625E+00  1.60826742E+00  1.60826895E+00
  1.65555950E+00  1.65556307E+00  1.65556615E+00  1.82748889E+00  1.82749287E+00
  1.82750023E+00  2.08532324E+00  2.08532455E+00  2.08532571E+00  2.10734774E+00
  2.10734808E+00  2.20614329E+00  2.20614829E+00  2.20615456E+00  2.27088205E+00
  2.27088892E+00  2.27089866E+00  2.33780811E+00  2.33781556E+00  2.33782321E+00
  2.56710551E+00  2.88413538E+00  2.88414725E+00  2.88416454E+00  3.11388361E+00
  3.11388382E+00  3.34646518E+00  3.37970253E+00  3.37970488E+00  3.37970868E+00
  4.66330990E+00  4.66332354E+00  4.66334465E+00  4.71632866E+00  6.15723501E+00
Alpha MO coefficients                      R   N=        5625
  8.64166348E-01  1.54648494E-02  7.13485784E-04  5.03286433E-04  8.94570147E-05
  6.97621222E-03 -4.16971901E-04 -3.15632159E-04 -5.88819949E-05 -4.17417628E-03
 -4.06729455E-03 -3.93722392E-03 -2.13769226E-04 -3.99409272E-05 -2.85790178E-05
 -1.85753325E-01 -3.30904632E-03 -3.06855604E-06  1.45544953E-04 -1.20464537E-04
 -1.54865590E-03  8.50282335E-05 -5.16633633E-05  7.74916006E-05  8.54207125E-04
  8.77381101E-04  9.01417269E-04 -5.72179852E-05  3.43935516E-05 -4.00527163E-05
 -4.22652505E-01 -7.54510247E-03  3.54719153E-04 -2.28860772E-04 -7.93687765E-05
 -3.47216905E-03 -1.48211823E-04  1.86835415E-04  5.57017598E-05  2.00203339E-03
  2.02277754E-03  1.95024092E-03 -1.16565992E-04 -3.35194989E-05  3.01954885E-05
 -1.70168522E-01 -3.03037007E-03  1.30735736E-05  6.35599960E-05  1.60515232E-04
 -1.42211702E-03  7.52114714E-05 -1.14019883E-06 -9.31422256E-05  7.74811402E-04
  7.79820280E-04  8.58513434E-04 -3.25129286E-05 -4.84893527E-05  8.20330275E-06
  7.55092708E-08  2.75038339E-05 -6.04581584E-04 -2.71128886E-04 -2.81140765E-05
  4.51570222E-05  2.97682103E-06  1.33671426E-06  1.39850041E-07  6.64897620E-05
  1.20330295E-05 -4.39825763E-05  1.46822256E-04  3.06033150E-05  1.05674572E-05
  1.89614128E-01  3.40165911E-03  1.52580093E-04  1.15665825E-04  2.07316622E-05
  1.50350718E-03 -1.52432974E-04 -4.47937903E-06  9.04591395E-07 -9.74822095E-04
 -8.41340624E-04 -8.47654283E-04 -2.28007878E-05 -1.04158986E-06 -7.18986419E-07
 -4.85632931E-01 -8.67261435E-03 -2.62026801E-05  3.79380882E-04 -3.14504836E-04
 -3.97918764E-03 -2.03277768E-05 -1.68654027E-04  2.24022922E-04  2.20930992E-03
  2.30266237E-03  2.35023035E-03  1.56045605E-05 -2.71914056E-06 -1.22026909E-04
  7.55291015E-01  1.35166771E-02 -6.25980915E-04  4.19557161E-04  1.43493096E-04
  6.09653946E-03  4.01730809E-04 -2.12470165E-04 -8.43262763E-05 -3.69138995E-03
 -3.51107340E-03 -3.44161496E-03  1.57881443E-04  6.15706600E-05 -3.68874154E-05
 -3.82913569E-01 -6.83586370E-03  1.33970868E-05  1.42857043E-04  3.61740015E-04
 -3.14515308E-03 -4.63646880E-05 -1.15497795E-05 -2.20019990E-04  1.74381816E-03
  1.74882880E-03  1.92044565E-03  1.52777632E-05  3.36990223E-05  1.87016340E-05
  6.69748015E-08  2.45277497E-05  2.72631980E-04 -5.92953518E-04 -1.18572766E-04
  4.02944762E-05 -1.33889999E-06  2.91629521E-06  5.83635840E-07  1.39216931E-04
 -4.84908276E-06 -1.03540443E-04 -5.80130760E-05 -3.19872922E-05  4.92643906E-05
 -2.53682291E-02 -4.55767228E-04 -2.09997675E-05 -1.35198407E-05 -9.01886087E-06
 -1.98999431E-04  1.31422822E-05  2.72460100E-05 -8.37803345E-05  1.22245231E-04
  1.36336694E-04  9.71397450E-05  1.39568656E-05 -4.52999303E-05 -4.41569458E-05
 -6.69617160E-01 -1.19757568E-02 -3.26705798E-05  5.16273903E-04 -4.41668219E-04
 -5.42999495E-03  1.93050989E-05 -3.39256802E-04  2.14196554E-04  3.05741225E-03
  3.25489260E-03  3.13212578E-03 -1.40866905E-05  8.31820295E-06 -1.64812383E-04
 -5.26384826E-02 -9.43394876E-04  4.32130631E-05 -2.76585013E-05 -1.63203734E-05
 -4.20417854E-04 -3.48164628E-05  3.68658910E-05 -7.85692129E-05  2.62252769E-04
  2.64012078E-04  2.14168398E-04 -2.55659652E-05  4.07185906E-05 -3.90976299E-05
  7.32856360E-01  1.31022534E-02 -3.09882596E-05 -2.61104331E-04 -6.96516134E-04
  5.95742853E-03  1.79349968E-05  1.94775572E-04  3.85142401E-04 -3.34642134E-03
 -3.39535892E-03 -3.59911512E-03 -7.42597178E-06 -1.33964007E-05 -1.50863613E-04
 -1.28104104E-08 -4.74012588E-06  2.32397236E-05 -1.19992820E-04  6.52430981E-04
 -7.79674474E-06 -1.15055524E-07  5.88708664E-07 -3.20618772E-06 -1.20996144E-05
 -6.95655302E-05  7.56980219E-05  1.15783948E-05  3.37561779E-06  1.39450028E-04
  4.53366750E-01  8.39572804E-03  3.71133402E-04  2.62372723E-04  4.66931375E-05
  2.74356130E-03 -5.19554893E-04 -3.70565648E-04 -6.66234709E-05 -2.15706698E-03
 -2.03538325E-03 -1.91356796E-03 -2.04650263E-04 -3.68480361E-05 -2.61487839E-05
  5.19799164E-01  9.58362126E-03  2.50346628E-05 -4.00258995E-04  3.37843234E-04
  3.28295464E-03 -3.49029248E-05  5.16801571E-04 -4.41846213E-04 -2.21238815E-03
 -2.44670550E-03 -2.38411387E-03  1.86436100E-05 -1.55815569E-05  2.31684197E-04
  4.86879337E-01  8.99497525E-03 -4.02037196E-04  2.66433558E-04  9.16639514E-05
  3.01565903E-03  5.38472583E-04 -3.63231387E-04 -1.24831423E-04 -2.32196781E-03
 -2.18034357E-03 -2.07647682E-03  2.03528400E-04  6.98210720E-05 -4.69316932E-05
  5.25607629E-01  9.68748287E-03 -2.22199915E-05 -1.88476171E-04 -4.95153941E-04
  3.33012154E-03  2.65332462E-05  2.39501682E-04  6.40419668E-04 -2.23846370E-03
 -2.28878814E-03 -2.59790396E-03 -6.04513286E-06 -1.72080631E-05 -1.54848377E-04
  1.72579792E-06  6.37630756E-04  1.57485709E-05  3.35996379E-05  1.06261911E-05
  1.04730786E-03 -6.87248786E-08 -1.48315453E-07 -4.72965717E-08  2.59843341E-04
  2.67302635E-04  2.74589103E-04 -4.01467050E-06 -6.46487429E-08 -1.31405553E-06
 -5.91721973E-05  6.68407795E-04  3.04803993E-04  2.15662538E-04  3.84181283E-05
 -1.71212762E-03 -1.24888149E-03 -8.83642884E-04 -1.57413399E-04 -1.53801351E-04
  1.23323982E-04  3.92331489E-04 -4.53397885E-04 -8.07691935E-05 -5.71485042E-05
 -5.91743971E-05  6.68355201E-04  1.80359925E-05 -2.86364246E-04  2.41983563E-04
 -1.71193604E-03 -7.38970698E-05  1.17328757E-03 -9.91457237E-04  3.99167587E-04
 -8.87263325E-05  5.13283106E-05  3.56262730E-05 -3.01053321E-05  4.77965402E-04
 -5.91718991E-05  6.68379754E-04 -3.07215809E-04  2.03924754E-04  7.01517580E-05
 -1.71201740E-03  1.25874193E-03 -8.35535445E-04 -2.87432140E-04 -1.62644267E-04
  1.52718165E-04  3.71733736E-04  4.32123505E-04  1.48654898E-04 -9.86761926E-05
 -5.91760445E-05  6.68350996E-04 -1.56255009E-05 -1.33231552E-04 -3.50558143E-04
 -1.71192884E-03  6.40199928E-05  5.45871124E-04  1.43630131E-03  3.99648053E-04
  2.95080650E-04 -3.32964483E-04 -1.43579637E-05 -3.77786096E-05 -3.22141599E-04
  9.96211746E-01  2.29682890E-02 -2.53793203E-08 -3.62840628E-08 -6.35248930E-09
 -1.78193606E-03 -1.59661620E-08 -1.60452198E-08  4.46142718E-10 -2.59181914E-04
 -2.59223478E-04 -2.59269497E-04  2.31622586E-08  2.20039765E-09  7.88182251E-09
 -1.01834500E-01  2.28213210E-01  4.44186012E-02  3.14284390E-02  5.59879398E-03
  2.16760115E-01  3.55788715E-02  2.51738298E-02  4.48453585E-03  1.64672008E-02
  1.07158575E-02  5.13315762E-03  9.40943712E-03  1.67620159E-03  1.18598858E-03
 -1.01827995E-01  2.28197375E-01  2.62823896E-03 -4.17300727E-02  3.52632253E-02
  2.16749241E-01  2.10532779E-03 -3.34262792E-02  2.82461780E-02  4.98967000E-03
  1.51151877E-02  1.22083958E-02 -7.39348376E-04  6.24750018E-04 -9.91930922E-03
 -1.01829700E-01  2.28201582E-01 -4.47688491E-02  2.97170523E-02  1.02230386E-02
  2.16751990E-01 -3.58602023E-02  2.38036420E-02  8.18868729E-03  1.66496715E-02
  1.01047768E-02  5.55964742E-03 -8.96783437E-03 -3.08500693E-03  2.04777405E-03
 -1.01828811E-01  2.28199304E-01 -2.27705716E-03 -1.94150913E-02 -5.10854835E-02
  2.16750705E-01 -1.82388173E-03 -1.55515990E-02 -4.09197469E-02  4.97970565E-03
  7.14992610E-03  2.01839278E-02  2.97985819E-04  7.84084149E-04  6.68563130E-03
 -1.05651328E-01  2.09826373E-01 -2.36925034E-06 -1.86648667E-06  4.03057287E-07
 -2.99165832E-02 -2.68538248E-07 -8.15910812E-07 -3.50989195E-07 -4.24726189E-03
 -4.24805790E-03 -4.24870789E-03  7.48438802E-07  1.15886837E-07  2.77106486E-07
 -1.92572730E-01  4.53365617E-01  4.37352497E-02  3.38352515E-02  6.20710886E-03
  3.72752166E-01  2.48825076E-02  1.91464677E-02  3.50654105E-03  2.71844476E-02
  2.37044395E-02  1.96914143E-02  6.38485122E-03  1.14439527E-03  8.74385393E-04
  4.69292175E-02 -1.10483111E-01 -1.29007205E-02  7.11526221E-03 -1.16321984E-02
 -9.08388483E-02 -6.90013087E-03  4.15226046E-03 -6.50455238E-03 -5.00003609E-03
 -5.98859997E-03 -6.21135582E-03  8.36441972E-04 -1.12415806E-03  1.70515350E-03
  9.75126089E-02 -2.29569298E-01  1.63996701E-02 -2.45826711E-02 -7.33694351E-03
 -1.88750551E-01  9.54289782E-03 -1.36363570E-02 -4.09406465E-03 -1.30657050E-02
 -1.27006466E-02 -9.97300152E-03  3.31799619E-03  1.08492868E-03 -1.09333602E-03
  4.81394915E-02 -1.13332422E-01 -1.13802101E-02  4.32833505E-04  1.52224226E-02
 -9.31814114E-02 -6.04678560E-03  4.02114157E-04  8.56596820E-03 -4.90009616E-03
 -4.91929390E-03 -7.82421035E-03  9.88942270E-05  1.08214651E-03 -8.08794505E-04
  1.44153861E-06 -2.96148851E-06 -1.29339397E-01 -6.06069014E-02 -8.87572162E-03
  1.30682584E-07  4.31771477E-04  2.02260715E-04  2.95783386E-05  1.12324407E-02
  2.57780909E-04 -1.14902572E-02  2.83190618E-02  5.82271264E-03  1.80333408E-03
 -3.53345556E-02  8.31866342E-02  1.59568188E-02 -4.54528463E-03 -1.42937463E-03
  6.83952487E-02  8.79434351E-03 -2.21973562E-03 -7.25770670E-04  5.99751538E-03
  3.13101394E-03  3.82202901E-03  9.04140539E-04  1.57071184E-04 -2.51548082E-04
  1.09983284E-01 -2.58928517E-01  3.82592412E-03  1.81645238E-02 -2.80358152E-02
 -2.12889513E-01  1.98669660E-03  1.05249443E-02 -1.56568614E-02 -1.13683986E-02
 -1.42237723E-02 -1.47178891E-02 -5.88755890E-05  1.90838410E-04  4.11785600E-03
 -1.69576243E-01  3.99225653E-01 -4.38395215E-02  2.10991865E-02  8.59475645E-03
  3.28240734E-01 -2.47626680E-02  1.21716349E-02  4.89964008E-03  2.46877007E-02
  1.97296871E-02  1.77341643E-02 -5.15448198E-03 -1.87187944E-03  1.00745727E-03
  9.49308159E-02 -2.23491208E-01  7.12377411E-03  2.36922885E-04  2.89340531E-02
 -1.83753025E-01  3.83736597E-03  4.64213104E-04  1.63137191E-02 -9.94875444E-03
 -9.61622508E-03 -1.52282293E-02 -1.52457334E-04 -8.61887237E-04 -1.55105694E-03
  5.94073922E-07 -1.21505601E-06  6.10867246E-02 -1.26103875E-01 -2.90902918E-02
 -1.03066025E-07 -2.03828013E-04  4.20625001E-04  9.69991572E-05  2.49381650E-02
 -2.60519066E-03 -2.23331050E-02 -1.18766993E-02 -6.35108682E-03  8.84515835E-03
  9.35912589E-04 -2.20334956E-03  1.49424381E-04 -3.00504234E-03  1.30438541E-02
 -1.81167823E-03  7.20012540E-05 -1.60743975E-03  6.95278323E-03 -5.83175882E-05
 -2.74842515E-04 -9.84906160E-06 -3.09681287E-04  1.23360332E-03  4.85819298E-04
  1.55036870E-01 -3.64996111E-01 -2.23907302E-03  3.94160621E-02 -2.26068859E-02
 -3.00098021E-01 -1.26833426E-03  2.21989844E-02 -1.30541008E-02 -1.56290766E-02
 -2.20629676E-02 -1.91306355E-02  4.28120100E-04 -3.35545893E-04  5.14306326E-03
  8.36227359E-03 -1.96868839E-02  2.86423779E-03 -4.43499602E-03  1.25198984E-02
 -1.61865885E-02  1.59561209E-03 -2.40992750E-03  6.65872062E-03 -1.33500485E-03
 -1.17389481E-03 -5.55942656E-04  6.00533941E-04 -1.13601276E-03  3.38455868E-04
 -1.64333936E-01  3.86883869E-01 -2.02158156E-03 -2.36384138E-02 -4.17181683E-02
  3.18093496E-01 -1.14634787E-03 -1.31865992E-02 -2.37789569E-02  1.65904617E-02
  1.85479481E-02  2.50918605E-02  1.84090673E-04  4.58962691E-04  4.32302906E-03
  1.64780137E-07 -3.41170620E-07  4.49872820E-03 -3.00792000E-02  1.39838403E-01
  1.06692782E-07 -1.49790414E-05  1.00318443E-04 -4.66159002E-04 -1.14967863E-03
 -1.32130881E-02  1.43628308E-02  2.40396441E-03  5.88074830E-04  2.73925783E-02
  5.36179612E-02 -1.39386964E-01  1.86563828E-01  1.32002882E-01  2.35152735E-02
 -1.21369519E-01  1.28504788E-01  9.09233547E-02  1.61972856E-02  4.42346302E-03
 -5.01643211E-03 -1.41795090E-02  1.54440430E-02  2.75121025E-03  1.94660453E-03
  5.36166036E-02 -1.39383757E-01  1.10390610E-02 -1.75272851E-01  1.48110121E-01
 -1.21364161E-01  7.60383210E-03 -1.20728690E-01  1.02018919E-01 -1.44133880E-02
  2.20599015E-03 -2.56504633E-03 -1.21350176E-03  1.02540717E-03 -1.62809038E-02
  5.36169227E-02 -1.39384499E-01 -1.88036681E-01  1.24816096E-01  4.29380458E-02
 -1.21365802E-01 -1.29520143E-01  8.59737685E-02  2.95758381E-02  4.72418410E-03
 -6.01823476E-03 -1.34782888E-02 -1.47192169E-02 -5.06353678E-03  3.36107934E-03
  5.36168104E-02 -1.39384259E-01 -9.56387495E-03 -8.15461298E-02 -2.14565037E-01
 -1.21364594E-01 -6.58758839E-03 -5.61692201E-02 -1.47793166E-01 -1.44299421E-02
 -1.08678737E-02  1.05252528E-02  4.89099611E-04  1.28696093E-03  1.09733651E-02
 -1.42183633E-01  3.60427420E-01 -2.21828405E-06 -2.55083311E-06 -1.48030008E-07
  1.02917588E-02 -3.80274387E-07 -1.54706932E-06 -7.53767770E-07 -4.76502512E-03
 -4.76550905E-03 -4.76594497E-03  3.89078842E-07  5.14141695E-08  1.39650036E-07
 -4.92845483E-02  1.10970339E-01 -2.47707648E-01 -2.39067742E-01 -4.77706237E-02
  1.82783874E-01 -1.49331397E-01 -1.47493672E-01 -2.96730018E-02 -7.80780823E-03
 -4.99768291E-03  5.90040615E-03 -1.42951730E-02 -2.76951078E-03 -2.57309813E-03
  1.06909694E-02 -2.40722545E-02  2.12898680E-01 -9.97257412E-03  8.78710191E-02
 -3.96489830E-02  1.39426573E-01 -3.87216233E-03  5.53621876E-02  2.56242123E-04
 -2.16458551E-03  3.40594144E-03 -9.16819053E-03  9.81377544E-03 -3.33998507E-03
  2.79262989E-02 -6.28798380E-02 -5.26634744E-02  2.55115762E-01  6.88619487E-02
 -1.03569910E-01 -2.70570798E-02  1.62314874E-01  4.34451682E-02 -3.03772048E-03
  1.02093403E-02 -3.25932104E-03 -1.06933974E-02 -2.85733110E-03  5.00067571E-03
  1.06695846E-02 -2.40240713E-02  2.02015173E-01  3.96754887E-02 -1.03679261E-01
 -3.95697689E-02  1.32603523E-01  2.72528203E-02 -6.47228366E-02 -1.91732693E-03
 -3.46610282E-03  6.87804722E-03 -3.28669948E-03 -1.21933901E-02 -9.61550414E-04
 -1.00166877E-06  2.90136649E-06  2.97196722E-01  1.18712555E-01  1.37104602E-02
 -4.10136544E-07  4.91727107E-02  1.96415416E-02  2.26846316E-03 -5.11500089E-03
 -1.71077960E-04  5.28637655E-03 -1.53134935E-02 -3.27425964E-03 -7.66346372E-04
 -1.21038210E-02  2.72531064E-02 -1.94922100E-01  1.25898814E-01  1.57630891E-02
  4.48906438E-02 -1.24593507E-01  8.48240827E-02  1.07407296E-02 -1.32845217E-02
  1.09531430E-02  6.35270433E-04  4.00384226E-04 -5.38667302E-04  2.33214193E-03
  3.20987666E-02 -7.22743046E-02 -6.57006414E-02 -7.33578692E-02  2.64989111E-01
 -1.19045285E-01 -4.35832324E-02 -4.00926453E-02  1.66982839E-01 -3.40485025E-03
 -2.89494763E-03  1.07970574E-02  2.90092866E-03 -2.63732066E-03 -1.15884813E-02
 -4.20920425E-02  9.47752262E-02  3.08251427E-01 -5.49440697E-02 -5.95553968E-02
  1.56108840E-01  1.90850986E-01 -2.85484840E-02 -3.64772531E-02 -1.49549783E-02
  5.35491598E-03  3.70222167E-03  8.29682972E-03  4.95132459E-03 -9.86723283E-04
  2.20986937E-02 -4.97579286E-02 -9.36810449E-02  1.15783305E-01 -2.04687611E-01
 -8.19577803E-02 -6.11243610E-02  7.84817826E-02 -1.27461992E-01 -1.16484558E-03
 -8.82177895E-03  1.30827418E-02  1.23751267E-03  5.87831872E-03 -3.88242973E-03
 -2.59336536E-07  1.12676683E-06 -1.19455178E-01  2.94110972E-01  4.28284797E-02
 -1.36813453E-06 -1.97655956E-02  4.86648046E-02  7.08653256E-03 -1.34172933E-02
  1.87738303E-03  1.15402689E-02  5.24906838E-03  3.12999933E-03 -5.77685377E-03
 -1.48352076E-03  3.34030534E-03 -1.14010091E-02 -4.09351257E-02  2.19252906E-01
  5.50212275E-03 -7.08156610E-03 -2.65618010E-02  1.43810198E-01 -4.43521575E-04
 -1.65124507E-03  1.88684201E-03 -2.65667185E-03  1.19107183E-02  6.67212473E-03
 -3.78561843E-02  8.52375214E-02 -1.83826335E-02  2.96937987E-01 -5.63619088E-02
  1.40399210E-01 -1.14583907E-02  1.85254065E-01 -2.89759542E-02  5.42557415E-03
 -1.48273037E-02  4.09724658E-03  1.33106896E-03 -6.98950569E-04  8.82522034E-03
 -5.10704247E-03  1.14991057E-02  4.97862495E-02 -6.27772320E-02  2.10123692E-01
  1.89408049E-02  3.12773188E-02 -4.02548156E-02  1.38086637E-01 -2.99770164E-03
 -2.12215159E-03  4.40421318E-03  4.45644686E-03 -1.12606047E-02  5.49173550E-03
  4.44468844E-02 -1.00077189E-01 -1.87367116E-02 -2.10518692E-01 -2.50737785E-01
 -1.64842597E-01 -1.16804402E-02 -1.32875136E-01 -1.50831751E-01 -5.99581409E-03
  1.83410824E-03  1.03896012E-02  6.75057673E-04  1.32347545E-03  1.34093653E-02
  2.30031134E-07 -4.16533679E-07  3.28384477E-03 -4.48488961E-02  3.17147261E-01
 -7.46351520E-07  5.43399738E-04 -7.42118321E-03  5.24783431E-02 -1.64058881E-03
 -6.85698280E-03  8.49769098E-03  1.55657091E-03  5.20764403E-04  1.40675647E-02
 -1.26107177E-07  3.55685977E-07  1.79466696E-01 -2.64000828E-01  5.81016135E-02