
    -----------------------------------------------------------------------
          Psi4: An Open-Source Ab Initio Electronic Structure Package
                               Psi4 1.3.2 release

                         Git: Rev {HEAD} ecbda83 


    R. M. Parrish, L. A. Burns, D. G. A. Smith, A. C. Simmonett,
    A. E. DePrince III, E. G. Hohenstein, U. Bozkaya, A. Yu. Sokolov,
    R. Di Remigio, R. M. Richard, J. F. Gonthier, A. M. James,
    H. R. McAlexander, A. Kumar, M. Saitow, X. Wang, B. P. Pritchard,
    P. Verma, H. F. Schaefer III, K. Patkowski, R. A. King, E. F. Valeev,
    F. A. Evangelista, J. M. Turney, T. D. Crawford, and C. D. Sherrill,
    J. Chem. Theory Comput. 13(7) pp 3185--3197 (2017).
    (doi: 10.1021/acs.jctc.7b00174)


                         Additional Contributions by
    P. Kraus, H. Kruse, M. H. Lechner, M. C. Schieber, R. A. Shaw,
    A. Alenaizan, R. Galvelis, Z. L. Glick, S. Lehtola, and J. P. Misiewicz

    -----------------------------------------------------------------------


    Psi4 started on: Tuesday, 03 November 2020 04:06AM

    Process ID: 35929
    Host:       node35.bme.utexas.edu
    PSIDATADIR: /home/xy3866/psi4conda/share/psi4
    Memory:     500.0 MiB
    Threads:    8
    
  ==> Input File <==

--------------------------------------------------------------------------
#psi4
#
memory 32 gb

molecule  {
0 1
  O        1.1347230    -0.7035620     0.0192210
  O        0.0419040     1.2849720    -0.0032760
  C       -1.2206870    -0.7926310    -0.0174520
  C       -2.4923847     0.0405741    -0.0239240
  C        0.0179090     0.0662010     0.0002130
  C        2.3639990     0.0443740     0.0345400
  H       -1.1474108    -1.4546914    -0.8869490
  H       -1.1802510    -1.4521290     0.8560270
  H       -2.5275640     0.6780870    -0.9162870
  H       -3.3724930    -0.6172840    -0.0483470
  H       -2.5529900     0.6769780     0.8451350
  H        3.1528260    -0.7045810     0.0501140
  H        2.4139010     0.6783770     0.9207630
  H        2.4412840     0.6703610    -0.8553990
units angstrom
no_reorient  #important for SAPT in psi4, default
symmetry c1  #important for SAPT in psi4, default
}

set PROPERTIES_ORIGIN ["COM"]
properties('MP2/aug-cc-pvtz', properties = ['dipole'])
--------------------------------------------------------------------------

  Memory set to  29.802 GiB by Python driver.
    SCF Algorithm Type (re)set to DF.

*** tstart() called on node35.bme.utexas.edu
*** at Tue Nov  3 04:06:01 2020

   => Loading Basis Set <=

    Name: AUG-CC-PVTZ
    Role: ORBITAL
    Keyword: BASIS
    atoms 1-2  entry O          line   327 file /home/xy3866/psi4conda/share/psi4/basis/aug-cc-pvtz.gbs 
    atoms 3-6  entry C          line   235 file /home/xy3866/psi4conda/share/psi4/basis/aug-cc-pvtz.gbs 
    atoms 7-14 entry H          line    36 file /home/xy3866/psi4conda/share/psi4/basis/aug-cc-pvtz.gbs 


         ---------------------------------------------------------
                                   SCF
               by Justin Turney, Rob Parrish, Andy Simmonett
                          and Daniel G. A. Smith
                              RHF Reference
                        8 Threads,  30517 MiB Core
         ---------------------------------------------------------

  ==> Geometry <==

    Molecular point group: c1
    Full point group: C1

    Geometry (in Angstrom), charge = 0, multiplicity = 1:

       Center              X                  Y                   Z               Mass       
    ------------   -----------------  -----------------  -----------------  -----------------
         O            1.134135966176    -0.704300263049     0.017627103224    15.994914619570
         O            0.041316966176     1.284233736951    -0.004869896776    15.994914619570
         C           -1.221274033824    -0.793369263049    -0.019045896776    12.000000000000
         C           -2.492971733824     0.039835836951    -0.025517896776    12.000000000000
         C            0.017321966176     0.065462736951    -0.001380896776    12.000000000000
         C            2.363411966176     0.043635736951     0.032946103224    12.000000000000
         H           -1.147997833824    -1.455429663049    -0.888542896776     1.007825032230
         H           -1.180838033824    -1.452867263049     0.854433103224     1.007825032230
         H           -2.528151033824     0.677348736951    -0.917880896776     1.007825032230
         H           -3.373080033824    -0.618022263049    -0.049940896776     1.007825032230
         H           -2.553577033824     0.676239736951     0.843541103224     1.007825032230
         H            3.152238966176    -0.705319263049     0.048520103224     1.007825032230
         H            2.413313966176     0.677638736951     0.919169103224     1.007825032230
         H            2.440696966176     0.669622736951    -0.856992896776     1.007825032230

  Running in c1 symmetry.

  Rotational constants: A =      0.31458  B =      0.07205  C =      0.06060 [cm^-1]
  Rotational constants: A =   9430.79229  B =   2159.91196  C =   1816.62598 [MHz]
  Nuclear repulsion =  245.108960569759262

  Charge       = 0
  Multiplicity = 1
  Electrons    = 48
  Nalpha       = 24
  Nbeta        = 24

  ==> Algorithm <==

  SCF Algorithm Type is DF.
  DIIS enabled.
  MOM disabled.
  Fractional occupation disabled.
  Guess Type is SAD.
  Energy threshold   = 1.00e-10
  Density threshold  = 1.00e-10
  Integral threshold = 0.00e+00

  ==> Primary Basis <==

  Basis Set: AUG-CC-PVTZ
    Blend: AUG-CC-PVTZ
    Number of shells: 156
    Number of basis function: 460
    Number of Cartesian functions: 530
    Spherical Harmonics?: true
    Max angular momentum: 3

   => Loading Basis Set <=

    Name: (AUG-CC-PVTZ AUX)
    Role: JKFIT
    Keyword: DF_BASIS_SCF
    atoms 1-2  entry O          line   286 file /home/xy3866/psi4conda/share/psi4/basis/aug-cc-pvtz-jkfit.gbs 
    atoms 3-6  entry C          line   162 file /home/xy3866/psi4conda/share/psi4/basis/aug-cc-pvtz-jkfit.gbs 
    atoms 7-14 entry H          line    70 file /home/xy3866/psi4conda/share/psi4/basis/aug-cc-pvtz-jkfit.gbs 

  ==> Pre-Iterations <==

   -------------------------------------------------------
    Irrep   Nso     Nmo     Nalpha   Nbeta   Ndocc  Nsocc
   -------------------------------------------------------
     A        460     460       0       0       0       0
   -------------------------------------------------------
    Total     460     460      24      24      24       0
   -------------------------------------------------------

  ==> Integral Setup <==

  DFHelper Memory: AOs need 1.568 GiB; user supplied 22.352 GiB. Using in-core AOs.

  ==> MemDFJK: Density-Fitted J/K Matrices <==

    J tasked:                   Yes
    K tasked:                   Yes
    wK tasked:                   No
    OpenMP threads:               8
    Memory [MiB]:             22888
    Algorithm:                 Core
    Schwarz Cutoff:           1E-12
    Mask sparsity (%):       3.7684
    Fitting Condition:        1E-10

   => Auxiliary Basis Set <=

  Basis Set: (AUG-CC-PVTZ AUX)
    Blend: AUG-CC-PVTZ-JKFIT
    Number of shells: 292
    Number of basis function: 992
    Number of Cartesian functions: 1226
    Spherical Harmonics?: true
    Max angular momentum: 4

  Minimum eigenvalue in the overlap matrix is 9.1240313437E-06.
  Using Symmetric Orthogonalization.

  SCF Guess: Superposition of Atomic Densities via on-the-fly atomic UHF.

  ==> Iterations <==

                           Total Energy        Delta E     RMS |[F,P]|

   @DF-RHF iter SAD:  -304.95053411896441   -3.04951e+02   0.00000e+00 
   @DF-RHF iter   1:  -305.77241610425784   -8.21882e-01   1.40372e-03 DIIS
   @DF-RHF iter   2:  -305.93389793291243   -1.61482e-01   7.97896e-04 DIIS
   @DF-RHF iter   3:  -305.98197443115589   -4.80765e-02   1.70295e-04 DIIS
   @DF-RHF iter   4:  -305.98551046958676   -3.53604e-03   7.21756e-05 DIIS
   @DF-RHF iter   5:  -305.98618322855623   -6.72759e-04   1.47781e-05 DIIS
   @DF-RHF iter   6:  -305.98623011237004   -4.68838e-05   6.98314e-06 DIIS
   @DF-RHF iter   7:  -305.98623961874711   -9.50638e-06   2.65928e-06 DIIS
   @DF-RHF iter   8:  -305.98624160627253   -1.98753e-06   1.04652e-06 DIIS
   @DF-RHF iter   9:  -305.98624195551679   -3.49244e-07   2.70602e-07 DIIS
   @DF-RHF iter  10:  -305.98624197697654   -2.14598e-08   7.15991e-08 DIIS
   @DF-RHF iter  11:  -305.98624197825717   -1.28063e-09   1.68101e-08 DIIS
   @DF-RHF iter  12:  -305.98624197832203   -6.48583e-11   3.73181e-09 DIIS
   @DF-RHF iter  13:  -305.98624197832555   -3.52429e-12   1.04687e-09 DIIS
   @DF-RHF iter  14:  -305.98624197832675   -1.19371e-12   4.33864e-10 DIIS
   @DF-RHF iter  15:  -305.98624197832680   -5.68434e-14   1.15232e-10 DIIS
   @DF-RHF iter  16:  -305.98624197832640    3.97904e-13   4.03205e-11 DIIS
  Energy and wave function converged.


  ==> Post-Iterations <==

    Orbital Energies [Eh]
    ---------------------

    Doubly Occupied:                                                      

       1A    -20.603817     2A    -20.544814     3A    -11.378970  
       4A    -11.284288     5A    -11.245324     6A    -11.220407  
       7A     -1.453865     8A     -1.352787     9A     -1.066147  
      10A     -0.971656    11A     -0.877949    12A     -0.766829  
      13A     -0.699486    14A     -0.676920    15A     -0.667817  
      16A     -0.620354    17A     -0.598916    18A     -0.539682  
      19A     -0.535085    20A     -0.525447    21A     -0.518151  
      22A     -0.496265    23A     -0.462102    24A     -0.447448  

    Virtual:                                                              

      25A      0.028324    26A      0.033781    27A      0.040698  
      28A      0.042465    29A      0.053195    30A      0.057630  
      31A      0.058894    32A      0.066112    33A      0.091930  
      34A      0.103265    35A      0.112492    36A      0.120546  
      37A      0.122763    38A      0.125289    39A      0.127030  
      40A      0.133917    41A      0.138147    42A      0.140553  
      43A      0.157278    44A      0.159678    45A      0.166001  
      46A      0.178750    47A      0.179343    48A      0.199786  
      49A      0.211834    50A      0.212965    51A      0.216358  
      52A      0.226234    53A      0.232959    54A      0.239036  
      55A      0.250598    56A      0.272295    57A      0.274697  
      58A      0.281045    59A      0.286209    60A      0.289633  
      61A      0.302294    62A      0.309728    63A      0.320225  
      64A      0.322471    65A      0.330718    66A      0.334929  
      67A      0.342804    68A      0.349392    69A      0.354113  
      70A      0.355480    71A      0.366857    72A      0.370070  
      73A      0.379231    74A      0.383253    75A      0.387901  
      76A      0.398381    77A      0.400543    78A      0.412701  
      79A      0.415905    80A      0.418386    81A      0.430361  
      82A      0.435329    83A      0.439519    84A      0.446034  
      85A      0.451719    86A      0.452480    87A      0.454461  
      88A      0.458726    89A      0.472865    90A      0.475952  
      91A      0.480916    92A      0.485694    93A      0.500863  
      94A      0.501268    95A      0.512555    96A      0.518775  
      97A      0.531719    98A      0.532932    99A      0.537644  
     100A      0.544829   101A      0.557609   102A      0.562298  
     103A      0.566518   104A      0.570897   105A      0.577378  
     106A      0.589980   107A      0.611873   108A      0.613960  
     109A      0.631874   110A      0.637567   111A      0.647172  
     112A      0.697454   113A      0.716280   114A      0.726190  
     115A      0.737461   116A      0.753139   117A      0.761173  
     118A      0.784097   119A      0.792911   120A      0.793794  
     121A      0.796787   122A      0.815586   123A      0.816764  
     124A      0.829842   125A      0.834597   126A      0.837238  
     127A      0.839841   128A      0.851741   129A      0.863639  
     130A      0.865754   131A      0.873564   132A      0.890050  
     133A      0.898711   134A      0.899157   135A      0.900364  
     136A      0.915766   137A      0.922470   138A      0.926950  
     139A      0.935078   140A      0.938423   141A      0.942161  
     142A      0.957137   143A      0.959458   144A      0.968480  
     145A      0.991016   146A      0.996347   147A      1.001925  
     148A      1.005379   149A      1.025922   150A      1.031551  
     151A      1.039732   152A      1.050546   153A      1.068158  
     154A      1.071551   155A      1.073466   156A      1.078363  
     157A      1.087232   158A      1.103653   159A      1.111176  
     160A      1.117579   161A      1.118247   162A      1.132927  
     163A      1.158759   164A      1.159776   165A      1.166400  
     166A      1.177335   167A      1.177441   168A      1.180028  
     169A      1.189760   170A      1.200782   171A      1.212389  
     172A      1.215686   173A      1.228117   174A      1.236367  
     175A      1.257473   176A      1.258372   177A      1.273495  
     178A      1.290727   179A      1.292023   180A      1.292979  
     181A      1.327282   182A      1.343885   183A      1.373998  
     184A      1.382153   185A      1.382719   186A      1.404779  
     187A      1.409008   188A      1.421777   189A      1.423466  
     190A      1.427888   191A      1.452899   192A      1.460143  
     193A      1.488813   194A      1.492369   195A      1.515800  
     196A      1.527418   197A      1.530671   198A      1.544167  
     199A      1.577466   200A      1.580975   201A      1.583373  
     202A      1.605469   203A      1.609009   204A      1.628611  
     205A      1.632789   206A      1.644778   207A      1.647786  
     208A      1.661520   209A      1.678997   210A      1.685643  
     211A      1.688426   212A      1.692529   213A      1.703868  
     214A      1.714990   215A      1.721405   216A      1.727712  
     217A      1.731595   218A      1.743266   219A      1.762267  
     220A      1.783974   221A      1.787627   222A      1.795251  
     223A      1.805015   224A      1.825326   225A      1.839903  
     226A      1.853247   227A      1.876094   228A      1.881651  
     229A      1.889559   230A      1.902706   231A      1.906673  
     232A      1.929113   233A      1.932385   234A      1.948987  
     235A      1.960010   236A      1.999280   237A      2.005864  
     238A      2.015285   239A      2.017135   240A      2.031863  
     241A      2.064412   242A      2.071891   243A      2.130788  
     244A      2.133878   245A      2.164372   246A      2.167704  
     247A      2.180227   248A      2.222046   249A      2.231604  
     250A      2.236717   251A      2.243100   252A      2.259263  
     253A      2.270460   254A      2.274893   255A      2.311846  
     256A      2.339107   257A      2.365540   258A      2.370721  
     259A      2.394955   260A      2.409581   261A      2.426366  
     262A      2.484017   263A      2.500337   264A      2.521106  
     265A      2.532417   266A      2.565756   267A      2.579222  
     268A      2.624934   269A      2.634705   270A      2.637035  
     271A      2.670856   272A      2.693308   273A      2.723304  
     274A      2.725046   275A      2.770541   276A      2.803100  
     277A      2.848455   278A      2.885157   279A      2.890459  
     280A      2.905557   281A      2.932762   282A      2.964460  
     283A      2.978818   284A      3.026385   285A      3.082572  
     286A      3.083886   287A      3.099693   288A      3.126136  
     289A      3.233781   290A      3.261482   291A      3.287578  
     292A      3.329179   293A      3.339969   294A      3.346138  
     295A      3.397129   296A      3.415701   297A      3.425059  
     298A      3.470020   299A      3.474543   300A      3.479469  
     301A      3.516674   302A      3.544018   303A      3.557388  
     304A      3.565384   305A      3.584169   306A      3.617230  
     307A      3.638818   308A      3.645541   309A      3.655218  
     310A      3.671810   311A      3.698981   312A      3.703882  
     313A      3.708557   314A      3.736204   315A      3.753518  
     316A      3.758035   317A      3.787853   318A      3.805862  
     319A      3.810820   320A      3.824096   321A      3.835374  
     322A      3.871505   323A      3.879710   324A      3.903668  
     325A      3.912873   326A      3.913579   327A      3.918092  
     328A      3.969690   329A      3.987299   330A      4.001934  
     331A      4.007547   332A      4.031409   333A      4.045202  
     334A      4.061153   335A      4.068896   336A      4.080759  
     337A      4.093230   338A      4.125181   339A      4.149337  
     340A      4.175924   341A      4.181044   342A      4.185156  
     343A      4.189302   344A      4.236117   345A      4.241868  
     346A      4.252254   347A      4.278562   348A      4.307655  
     349A      4.310486   350A      4.321316   351A      4.366920  
     352A      4.414003   353A      4.416170   354A      4.427002  
     355A      4.453979   356A      4.461683   357A      4.490128  
     358A      4.553143   359A      4.576955   360A      4.594115  
     361A      4.603257   362A      4.631691   363A      4.647180  
     364A      4.661949   365A      4.681581   366A      4.719720  
     367A      4.751138   368A      4.774474   369A      4.798826  
     370A      4.802138   371A      4.813107   372A      4.820445  
     373A      4.827423   374A      4.851405   375A      4.859644  
     376A      4.886704   377A      4.916643   378A      4.946619  
     379A      4.991588   380A      5.013925   381A      5.036442  
     382A      5.046104   383A      5.075610   384A      5.102008  
     385A      5.116639   386A      5.124133   387A      5.147129  
     388A      5.153907   389A      5.201607   390A      5.220035  
     391A      5.252176   392A      5.281495   393A      5.331383  
     394A      5.353264   395A      5.357566   396A      5.394290  
     397A      5.405020   398A      5.418798   399A      5.463291  
     400A      5.508182   401A      5.529503   402A      5.584293  
     403A      5.591310   404A      5.599585   405A      5.617497  
     406A      5.692294   407A      5.700195   408A      5.712635  
     409A      5.715320   410A      5.767556   411A      5.847778  
     412A      5.938943   413A      5.998929   414A      6.037948  
     415A      6.047618   416A      6.074593   417A      6.085960  
     418A      6.115919   419A      6.190118   420A      6.211117  
     421A      6.231774   422A      6.280941   423A      6.376639  
     424A      6.447145   425A      6.591653   426A      6.672604  
     427A      6.705287   428A      6.733845   429A      6.786202  
     430A      6.804966   431A      6.846043   432A      6.882281  
     433A      6.918904   434A      6.935954   435A      7.027753  
     436A      7.108820   437A      7.141281   438A      7.196306  
     439A      7.229701   440A      7.273805   441A      7.382182  
     442A      7.426036   443A      7.445199   444A      7.538135  
     445A      7.567459   446A      7.613602   447A      7.719593  
     448A      7.770598   449A      7.829458   450A      7.907742  
     451A      7.936808   452A      8.058993   453A      8.283340  
     454A      8.501867   455A     14.841627   456A     15.746219  
     457A     17.350392   458A     18.049631   459A     18.472538  
     460A     19.654417  

    Final Occupation by Irrep:
              A 
    DOCC [    24 ]

  @DF-RHF Final Energy:  -305.98624197832640

   => Energetics <=

    Nuclear Repulsion Energy =            245.1089605697592617
    One-Electron Energy =                -903.0813477794501978
    Two-Electron Energy =                 351.9861452313645600
    Total Energy =                       -305.9862419783264045

Computation Completed

*** tstop() called on node35.bme.utexas.edu at Tue Nov  3 04:06:19 2020
Module time:
	user time   =     118.97 seconds =       1.98 minutes
	system time =       5.59 seconds =       0.09 minutes
	total time  =         18 seconds =       0.30 minutes
Total time:
	user time   =     118.97 seconds =       1.98 minutes
	system time =       5.59 seconds =       0.09 minutes
	total time  =         18 seconds =       0.30 minutes
   => Loading Basis Set <=

    Name: (AUG-CC-PVTZ AUX)
    Role: RIFIT
    Keyword: DF_BASIS_MP2
    atoms 1-2  entry O          line   264 file /home/xy3866/psi4conda/share/psi4/basis/aug-cc-pvtz-ri.gbs 
    atoms 3-6  entry C          line   148 file /home/xy3866/psi4conda/share/psi4/basis/aug-cc-pvtz-ri.gbs 
    atoms 7-14 entry H          line    30 file /home/xy3866/psi4conda/share/psi4/basis/aug-cc-pvtz-ri.gbs 


*** tstart() called on node35.bme.utexas.edu
*** at Tue Nov  3 04:06:19 2020


  //>>>>>>>>>>>>>>>>>>>>>>>>>>>>>>>>>>>//
  //               DFMP2               //
  //<<<<<<<<<<<<<<<<<<<<<<<<<<<<<<<<<<<//

	 --------------------------------------------------------
	                          DF-MP2                         
	      2nd-Order Density-Fitted Moller-Plesset Theory     
	              RMP2 Wavefunction,   8 Threads             
	                                                         
	        Rob Parrish, Justin Turney, Andy Simmonett,      
	           Ed Hohenstein, and C. David Sherrill          
	 --------------------------------------------------------

   => Auxiliary Basis Set <=

  Basis Set: (AUG-CC-PVTZ AUX)
    Blend: AUG-CC-PVTZ-RI
    Number of shells: 280
    Number of basis function: 1004
    Number of Cartesian functions: 1256
    Spherical Harmonics?: true
    Max angular momentum: 4

	 --------------------------------------------------------
	                 NBF =   460, NAUX =  1004
	 --------------------------------------------------------
	   CLASS    FOCC     OCC    AOCC    AVIR     VIR    FVIR
	   PAIRS       0      24      24     436     436       0
	 --------------------------------------------------------

  DFHelper Memory: AOs need 1.568 GiB; user supplied 22.352 GiB. Using in-core AOs.


         ------------------------------------------------------------
                                     CPHF                           
                                  Rob Parrish                       
         ------------------------------------------------------------

  ==> Geometry <==

    Molecular point group: c1
    Full point group: C1

    Geometry (in Angstrom), charge = 0, multiplicity = 1:

       Center              X                  Y                   Z               Mass       
    ------------   -----------------  -----------------  -----------------  -----------------
         O            1.134135966176    -0.704300263049     0.017627103224    15.994914619570
         O            0.041316966176     1.284233736951    -0.004869896776    15.994914619570
         C           -1.221274033824    -0.793369263049    -0.019045896776    12.000000000000
         C           -2.492971733824     0.039835836951    -0.025517896776    12.000000000000
         C            0.017321966176     0.065462736951    -0.001380896776    12.000000000000
         C            2.363411966176     0.043635736951     0.032946103224    12.000000000000
         H           -1.147997833824    -1.455429663049    -0.888542896776     1.007825032230
         H           -1.180838033824    -1.452867263049     0.854433103224     1.007825032230
         H           -2.528151033824     0.677348736951    -0.917880896776     1.007825032230
         H           -3.373080033824    -0.618022263049    -0.049940896776     1.007825032230
         H           -2.553577033824     0.676239736951     0.843541103224     1.007825032230
         H            3.152238966176    -0.705319263049     0.048520103224     1.007825032230
         H            2.413313966176     0.677638736951     0.919169103224     1.007825032230
         H            2.440696966176     0.669622736951    -0.856992896776     1.007825032230

  Nuclear repulsion =  245.108960569759262
  Reference energy  = -305.986241978326404

  ==> Basis Set <==

  Basis Set: AUG-CC-PVTZ
    Blend: AUG-CC-PVTZ
    Number of shells: 156
    Number of basis function: 460
    Number of Cartesian functions: 530
    Spherical Harmonics?: true
    Max angular momentum: 3

  ==> CGRSolver (by Rob Parrish) <==

   Number of roots    =         1
   Preconditioning    =    JACOBI
   Convergence cutoff =     1E-06
   Maximum iterations =       100

  ==> CPHFRHamiltonian (by Rob Parrish) <== 

  ==> MemDFJK: Density-Fitted J/K Matrices <==

    J tasked:                   Yes
    K tasked:                   Yes
    wK tasked:                   No
    OpenMP threads:               8
    Memory [MiB]:             22888
    Algorithm:                 Core
    Schwarz Cutoff:           1E-12
    Mask sparsity (%):       3.7684
    Fitting Condition:        1E-10

   => Auxiliary Basis Set <=

  Basis Set: (AUG-CC-PVTZ AUX)
    Blend: AUG-CC-PVTZ-JKFIT
    Number of shells: 292
    Number of basis function: 992
    Number of Cartesian functions: 1226
    Spherical Harmonics?: true
    Max angular momentum: 4

  ==> CPHF Iterations <==

  => Iterations <=

             Iter  Converged  Remaining    Residual
  CGR           1          0          1   1.101E-01
  CGR           2          0          1   3.232E-02
  CGR           3          0          1   1.211E-02
  CGR           4          0          1   4.025E-03
  CGR           5          0          1   1.431E-03
  CGR           6          0          1   3.654E-04
  CGR           7          0          1   9.148E-05
  CGR           8          0          1   2.499E-05
  CGR           9          0          1   7.517E-06
  CGR          10          0          1   2.334E-06
  CGR          11          1          0   7.314E-07

    CGRSolver converged.

	-----------------------------------------------------------
	 ==================> DF-MP2 Energies <==================== 
	-----------------------------------------------------------
	 Reference Energy          =    -305.9862419783264045 [Eh]
	 Singles Energy            =      -0.0000000000000000 [Eh]
	 Same-Spin Energy          =      -0.2974193292944025 [Eh]
	 Opposite-Spin Energy      =      -0.9766169457940241 [Eh]
	 Correlation Energy        =      -1.2740362750884267 [Eh]
	 Total Energy              =    -307.2602782534148105 [Eh]
	-----------------------------------------------------------
	 ================> DF-SCS-MP2 Energies <================== 
	-----------------------------------------------------------
	 SCS Same-Spin Scale       =       0.3333333333333333 [-]
	 SCS Opposite-Spin Scale   =       1.2000000000000000 [-]
	 SCS Same-Spin Energy      =      -0.0991397764314675 [Eh]
	 SCS Opposite-Spin Energy  =      -1.1719403349528290 [Eh]
	 SCS Correlation Energy    =      -1.2710801113842964 [Eh]
	 SCS Total Energy          =    -307.2573220897107262 [Eh]
	-----------------------------------------------------------



Properties will be evaluated at   0.000000,  -0.000000,  -0.000000 [a0]

Properties computed using the MP2 density matrix

  Nuclear Dipole Moment: [e a0]
     X:    -2.5981      Y:    -1.4323      Z:    -0.0447

  Electronic Dipole Moment: [e a0]
     X:     2.7734      Y:     0.8172      Z:     0.0501

  Dipole Moment: [e a0]
     X:     0.1753      Y:    -0.6151      Z:     0.0055     Total:     0.6396

  Dipole Moment: [D]
     X:     0.4455      Y:    -1.5635      Z:     0.0139     Total:     1.6258


*** tstop() called on node35.bme.utexas.edu at Tue Nov  3 04:07:17 2020
Module time:
	user time   =     367.57 seconds =       6.13 minutes
	system time =      15.34 seconds =       0.26 minutes
	total time  =         58 seconds =       0.97 minutes
Total time:
	user time   =     487.27 seconds =       8.12 minutes
	system time =      20.98 seconds =       0.35 minutes
	total time  =         76 seconds =       1.27 minutes

    Psi4 stopped on: Tuesday, 03 November 2020 04:07AM
    Psi4 wall time for execution: 0:01:16.46

*** Psi4 exiting successfully. Buy a developer a beer!
