
    -----------------------------------------------------------------------
          Psi4: An Open-Source Ab Initio Electronic Structure Package
                               Psi4 1.3.2 release

                         Git: Rev {HEAD} ecbda83 


    R. M. Parrish, L. A. Burns, D. G. A. Smith, A. C. Simmonett,
    A. E. DePrince III, E. G. Hohenstein, U. Bozkaya, A. Yu. Sokolov,
    R. Di Remigio, R. M. Richard, J. F. Gonthier, A. M. James,
    H. R. McAlexander, A. Kumar, M. Saitow, X. Wang, B. P. Pritchard,
    P. Verma, H. F. Schaefer III, K. Patkowski, R. A. King, E. F. Valeev,
    F. A. Evangelista, J. M. Turney, T. D. Crawford, and C. D. Sherrill,
    J. Chem. Theory Comput. 13(7) pp 3185--3197 (2017).
    (doi: 10.1021/acs.jctc.7b00174)


                         Additional Contributions by
    P. Kraus, H. Kruse, M. H. Lechner, M. C. Schieber, R. A. Shaw,
    A. Alenaizan, R. Galvelis, Z. L. Glick, S. Lehtola, and J. P. Misiewicz

    -----------------------------------------------------------------------


    Psi4 started on: Tuesday, 03 November 2020 03:07AM

    Process ID: 29301
    Host:       node35.bme.utexas.edu
    PSIDATADIR: /home/xy3866/psi4conda/share/psi4
    Memory:     500.0 MiB
    Threads:    8
    
  ==> Input File <==

--------------------------------------------------------------------------
#psi4
#
memory 32 gb

molecule  {
0 1
  O        1.1347230    -0.7035620     0.0192210
  O        0.0206327     1.2852041    -0.0036271
  C       -1.2354839    -0.7708817    -0.0177651
  C       -2.4959880     0.0348800    -0.0353530
  C        0.0179090     0.0662010     0.0002130
  C        2.3639990     0.0443740     0.0345400
  H       -1.1558060    -1.4513950    -0.8901140
  H       -1.1802510    -1.4521290     0.8560270
  H       -2.5275640     0.6780870    -0.9162870
  H       -3.3724930    -0.6172840    -0.0483470
  H       -2.5529900     0.6769780     0.8451350
  H        3.1528260    -0.7045810     0.0501140
  H        2.4139010     0.6783770     0.9207630
  H        2.4412840     0.6703610    -0.8553990
units angstrom
no_reorient  #important for SAPT in psi4, default
symmetry c1  #important for SAPT in psi4, default
}

set PROPERTIES_ORIGIN ["COM"]
properties('MP2/aug-cc-pvtz', properties = ['dipole'])
--------------------------------------------------------------------------

  Memory set to  29.802 GiB by Python driver.
    SCF Algorithm Type (re)set to DF.

*** tstart() called on node35.bme.utexas.edu
*** at Tue Nov  3 03:07:39 2020

   => Loading Basis Set <=

    Name: AUG-CC-PVTZ
    Role: ORBITAL
    Keyword: BASIS
    atoms 1-2  entry O          line   327 file /home/xy3866/psi4conda/share/psi4/basis/aug-cc-pvtz.gbs 
    atoms 3-6  entry C          line   235 file /home/xy3866/psi4conda/share/psi4/basis/aug-cc-pvtz.gbs 
    atoms 7-14 entry H          line    36 file /home/xy3866/psi4conda/share/psi4/basis/aug-cc-pvtz.gbs 


         ---------------------------------------------------------
                                   SCF
               by Justin Turney, Rob Parrish, Andy Simmonett
                          and Daniel G. A. Smith
                              RHF Reference
                        8 Threads,  30517 MiB Core
         ---------------------------------------------------------

  ==> Geometry <==

    Molecular point group: c1
    Full point group: C1

    Geometry (in Angstrom), charge = 0, multiplicity = 1:

       Center              X                  Y                   Z               Mass       
    ------------   -----------------  -----------------  -----------------  -----------------
         O            1.140603657338    -0.706568196089     0.019327349107    15.994914619570
         O            0.026513357338     1.282197903911    -0.003520750893    15.994914619570
         C           -1.229603242662    -0.773887896089    -0.017658750893    12.000000000000
         C           -2.490107342662     0.031873803911    -0.035246650893    12.000000000000
         C            0.023789657338     0.063194803911     0.000319349107    12.000000000000
         C            2.369879657338     0.041367803911     0.034646349107    12.000000000000
         H           -1.149925342662    -1.454401196089    -0.890007650893     1.007825032230
         H           -1.174370342662    -1.455135196089     0.856133349107     1.007825032230
         H           -2.521683342662     0.675080803911    -0.916180650893     1.007825032230
         H           -3.366612342662    -0.620290196089    -0.048240650893     1.007825032230
         H           -2.547109342662     0.673971803911     0.845241349107     1.007825032230
         H            3.158706657338    -0.707587196089     0.050220349107     1.007825032230
         H            2.419781657338     0.675370803911     0.920869349107     1.007825032230
         H            2.447164657338     0.667354803911    -0.855292650893     1.007825032230

  Running in c1 symmetry.

  Rotational constants: A =      0.31692  B =      0.07185  C =      0.06054 [cm^-1]
  Rotational constants: A =   9501.13085  B =   2153.94591  C =   1815.04129 [MHz]
  Nuclear repulsion =  245.179621679153598

  Charge       = 0
  Multiplicity = 1
  Electrons    = 48
  Nalpha       = 24
  Nbeta        = 24

  ==> Algorithm <==

  SCF Algorithm Type is DF.
  DIIS enabled.
  MOM disabled.
  Fractional occupation disabled.
  Guess Type is SAD.
  Energy threshold   = 1.00e-10
  Density threshold  = 1.00e-10
  Integral threshold = 0.00e+00

  ==> Primary Basis <==

  Basis Set: AUG-CC-PVTZ
    Blend: AUG-CC-PVTZ
    Number of shells: 156
    Number of basis function: 460
    Number of Cartesian functions: 530
    Spherical Harmonics?: true
    Max angular momentum: 3

   => Loading Basis Set <=

    Name: (AUG-CC-PVTZ AUX)
    Role: JKFIT
    Keyword: DF_BASIS_SCF
    atoms 1-2  entry O          line   286 file /home/xy3866/psi4conda/share/psi4/basis/aug-cc-pvtz-jkfit.gbs 
    atoms 3-6  entry C          line   162 file /home/xy3866/psi4conda/share/psi4/basis/aug-cc-pvtz-jkfit.gbs 
    atoms 7-14 entry H          line    70 file /home/xy3866/psi4conda/share/psi4/basis/aug-cc-pvtz-jkfit.gbs 

  ==> Pre-Iterations <==

   -------------------------------------------------------
    Irrep   Nso     Nmo     Nalpha   Nbeta   Ndocc  Nsocc
   -------------------------------------------------------
     A        460     460       0       0       0       0
   -------------------------------------------------------
    Total     460     460      24      24      24       0
   -------------------------------------------------------

  ==> Integral Setup <==

  DFHelper Memory: AOs need 1.567 GiB; user supplied 22.352 GiB. Using in-core AOs.

  ==> MemDFJK: Density-Fitted J/K Matrices <==

    J tasked:                   Yes
    K tasked:                   Yes
    wK tasked:                   No
    OpenMP threads:               8
    Memory [MiB]:             22888
    Algorithm:                 Core
    Schwarz Cutoff:           1E-12
    Mask sparsity (%):       3.7713
    Fitting Condition:        1E-10

   => Auxiliary Basis Set <=

  Basis Set: (AUG-CC-PVTZ AUX)
    Blend: AUG-CC-PVTZ-JKFIT
    Number of shells: 292
    Number of basis function: 992
    Number of Cartesian functions: 1226
    Spherical Harmonics?: true
    Max angular momentum: 4

  Minimum eigenvalue in the overlap matrix is 8.9490683917E-06.
  Using Symmetric Orthogonalization.

  SCF Guess: Superposition of Atomic Densities via on-the-fly atomic UHF.

  ==> Iterations <==

                           Total Energy        Delta E     RMS |[F,P]|

   @DF-RHF iter SAD:  -304.97137054534960   -3.04971e+02   0.00000e+00 
   @DF-RHF iter   1:  -305.76768692627309   -7.96316e-01   1.41578e-03 DIIS
   @DF-RHF iter   2:  -305.93127641282354   -1.63589e-01   8.09709e-04 DIIS
   @DF-RHF iter   3:  -305.98106294730826   -4.97865e-02   1.70665e-04 DIIS
   @DF-RHF iter   4:  -305.98462203298885   -3.55909e-03   7.32601e-05 DIIS
   @DF-RHF iter   5:  -305.98531083090273   -6.88798e-04   1.47399e-05 DIIS
   @DF-RHF iter   6:  -305.98535845152759   -4.76206e-05   6.89218e-06 DIIS
   @DF-RHF iter   7:  -305.98536787460637   -9.42308e-06   2.68349e-06 DIIS
   @DF-RHF iter   8:  -305.98536985382111   -1.97921e-06   1.05811e-06 DIIS
   @DF-RHF iter   9:  -305.98537020796607   -3.54145e-07   2.81000e-07 DIIS
   @DF-RHF iter  10:  -305.98537023090779   -2.29417e-08   7.25073e-08 DIIS
   @DF-RHF iter  11:  -305.98537023225254   -1.34474e-09   1.69798e-08 DIIS
   @DF-RHF iter  12:  -305.98537023231825   -6.57110e-11   3.77626e-09 DIIS
   @DF-RHF iter  13:  -305.98537023232240   -4.14957e-12   1.17380e-09 DIIS
   @DF-RHF iter  14:  -305.98537023232171    6.82121e-13   4.76448e-10 DIIS
   @DF-RHF iter  15:  -305.98537023232234   -6.25278e-13   1.24397e-10 DIIS
   @DF-RHF iter  16:  -305.98537023232308   -7.38964e-13   4.22761e-11 DIIS
  Energy and wave function converged.


  ==> Post-Iterations <==

    Orbital Energies [Eh]
    ---------------------

    Doubly Occupied:                                                      

       1A    -20.605820     2A    -20.544408     3A    -11.379104  
       4A    -11.285580     5A    -11.245549     6A    -11.218610  
       7A     -1.453875     8A     -1.354187     9A     -1.067813  
      10A     -0.973498    11A     -0.877119    12A     -0.766652  
      13A     -0.699106    14A     -0.676873    15A     -0.668091  
      16A     -0.618829    17A     -0.600762    18A     -0.539271  
      19A     -0.538002    20A     -0.530922    21A     -0.517822  
      22A     -0.489725    23A     -0.462923    24A     -0.446029  

    Virtual:                                                              

      25A      0.028335    26A      0.033645    27A      0.040796  
      28A      0.042471    29A      0.053127    30A      0.057558  
      31A      0.058813    32A      0.066463    33A      0.091944  
      34A      0.103577    35A      0.112317    36A      0.120386  
      37A      0.122803    38A      0.125096    39A      0.126916  
      40A      0.134132    41A      0.138197    42A      0.140547  
      43A      0.157202    44A      0.159673    45A      0.166020  
      46A      0.178450    47A      0.179702    48A      0.200311  
      49A      0.211530    50A      0.212561    51A      0.216127  
      52A      0.226059    53A      0.232351    54A      0.239065  
      55A      0.251142    56A      0.272567    57A      0.274905  
      58A      0.280709    59A      0.285955    60A      0.290138  
      61A      0.301891    62A      0.310421    63A      0.320381  
      64A      0.322012    65A      0.330818    66A      0.334958  
      67A      0.342245    68A      0.349318    69A      0.354355  
      70A      0.354872    71A      0.366996    72A      0.369956  
      73A      0.379013    74A      0.383209    75A      0.388430  
      76A      0.398254    77A      0.401025    78A      0.412463  
      79A      0.416371    80A      0.417706    81A      0.430047  
      82A      0.434642    83A      0.439398    84A      0.445934  
      85A      0.451434    86A      0.452084    87A      0.454606  
      88A      0.458511    89A      0.472499    90A      0.477192  
      91A      0.479399    92A      0.485271    93A      0.500602  
      94A      0.500839    95A      0.515434    96A      0.519932  
      97A      0.531847    98A      0.532739    99A      0.538107  
     100A      0.547197   101A      0.557017   102A      0.563750  
     103A      0.565176   104A      0.572135   105A      0.576290  
     106A      0.590688   107A      0.611790   108A      0.617943  
     109A      0.627315   110A      0.639426   111A      0.648386  
     112A      0.695600   113A      0.716102   114A      0.727999  
     115A      0.737560   116A      0.754977   117A      0.760316  
     118A      0.786004   119A      0.792090   120A      0.792279  
     121A      0.796874   122A      0.814677   123A      0.817218  
     124A      0.829299   125A      0.832572   126A      0.837147  
     127A      0.840465   128A      0.850784   129A      0.865485  
     130A      0.865531   131A      0.872796   132A      0.889738  
     133A      0.898261   134A      0.899544   135A      0.901180  
     136A      0.914861   137A      0.923712   138A      0.925854  
     139A      0.937808   140A      0.939398   141A      0.940087  
     142A      0.955772   143A      0.960211   144A      0.971377  
     145A      0.989378   146A      0.996948   147A      1.002078  
     148A      1.005834   149A      1.024042   150A      1.031504  
     151A      1.038828   152A      1.051584   153A      1.068701  
     154A      1.069709   155A      1.072475   156A      1.077292  
     157A      1.086707   158A      1.104169   159A      1.110170  
     160A      1.115531   161A      1.118173   162A      1.131923  
     163A      1.159103   164A      1.159721   165A      1.167454  
     166A      1.177655   167A      1.178342   168A      1.178989  
     169A      1.190967   170A      1.200806   171A      1.210273  
     172A      1.215243   173A      1.228991   174A      1.236201  
     175A      1.257664   176A      1.258338   177A      1.273530  
     178A      1.290985   179A      1.292286   180A      1.293248  
     181A      1.325039   182A      1.344574   183A      1.372331  
     184A      1.382284   185A      1.385169   186A      1.407612  
     187A      1.412199   188A      1.420750   189A      1.422426  
     190A      1.423899   191A      1.451078   192A      1.459223  
     193A      1.487853   194A      1.492860   195A      1.518990  
     196A      1.527030   197A      1.530221   198A      1.545898  
     199A      1.576775   200A      1.579644   201A      1.586175  
     202A      1.604821   203A      1.610037   204A      1.628625  
     205A      1.633035   206A      1.644998   207A      1.646777  
     208A      1.660812   209A      1.677246   210A      1.684712  
     211A      1.690848   212A      1.698702   213A      1.706069  
     214A      1.712356   215A      1.721329   216A      1.730179  
     217A      1.733424   218A      1.745153   219A      1.763297  
     220A      1.784606   221A      1.791856   222A      1.795160  
     223A      1.806607   224A      1.826297   225A      1.840370  
     226A      1.851064   227A      1.876288   228A      1.881126  
     229A      1.886036   230A      1.901539   231A      1.908974  
     232A      1.931157   233A      1.937441   234A      1.942310  
     235A      1.957215   236A      2.001964   237A      2.006636  
     238A      2.015637   239A      2.016602   240A      2.032670  
     241A      2.063174   242A      2.070608   243A      2.131316  
     244A      2.134308   245A      2.164948   246A      2.167396  
     247A      2.181697   248A      2.220954   249A      2.232465  
     250A      2.234689   251A      2.245491   252A      2.263454  
     253A      2.267860   254A      2.272174   255A      2.308560  
     256A      2.327991   257A      2.360423   258A      2.371172  
     259A      2.398076   260A      2.413264   261A      2.425296  
     262A      2.482831   263A      2.500529   264A      2.522661  
     265A      2.533057   266A      2.570451   267A      2.578709  
     268A      2.625487   269A      2.631034   270A      2.637492  
     271A      2.668155   272A      2.687529   273A      2.721479  
     274A      2.731382   275A      2.770621   276A      2.803741  
     277A      2.864660   278A      2.889603   279A      2.894836  
     280A      2.909424   281A      2.927386   282A      2.975898  
     283A      2.988099   284A      3.029694   285A      3.076718  
     286A      3.082553   287A      3.101626   288A      3.129662  
     289A      3.234076   290A      3.260557   291A      3.289039  
     292A      3.339962   293A      3.340386   294A      3.353860  
     295A      3.396911   296A      3.415034   297A      3.424350  
     298A      3.467327   299A      3.475699   300A      3.479143  
     301A      3.518655   302A      3.544081   303A      3.561000  
     304A      3.569660   305A      3.583738   306A      3.616834  
     307A      3.637167   308A      3.646500   309A      3.656029  
     310A      3.674820   311A      3.700840   312A      3.706839  
     313A      3.715606   314A      3.738320   315A      3.754906  
     316A      3.758416   317A      3.790146   318A      3.810495  
     319A      3.817804   320A      3.831132   321A      3.836405  
     322A      3.870055   323A      3.879691   324A      3.906997  
     325A      3.913248   326A      3.915347   327A      3.916935  
     328A      3.968411   329A      3.991222   330A      3.994156  
     331A      4.005258   332A      4.029931   333A      4.044496  
     334A      4.069693   335A      4.073548   336A      4.086501  
     337A      4.093652   338A      4.122947   339A      4.146479  
     340A      4.171686   341A      4.184143   342A      4.189064  
     343A      4.197086   344A      4.237459   345A      4.244236  
     346A      4.257052   347A      4.277780   348A      4.306982  
     349A      4.308861   350A      4.325423   351A      4.363811  
     352A      4.411134   353A      4.414836   354A      4.425031  
     355A      4.455151   356A      4.457931   357A      4.492495  
     358A      4.554093   359A      4.570073   360A      4.591241  
     361A      4.603156   362A      4.631654   363A      4.643460  
     364A      4.664639   365A      4.686089   366A      4.717061  
     367A      4.749905   368A      4.774268   369A      4.798473  
     370A      4.802919   371A      4.816235   372A      4.820379  
     373A      4.823535   374A      4.849924   375A      4.864192  
     376A      4.876618   377A      4.924231   378A      4.939141  
     379A      4.991764   380A      5.011089   381A      5.043000  
     382A      5.043701   383A      5.068016   384A      5.090232  
     385A      5.122053   386A      5.129056   387A      5.147617  
     388A      5.153828   389A      5.195459   390A      5.220047  
     391A      5.258166   392A      5.269932   393A      5.329285  
     394A      5.339463   395A      5.355984   396A      5.383131  
     397A      5.405774   398A      5.416688   399A      5.464366  
     400A      5.502296   401A      5.541484   402A      5.582353  
     403A      5.590597   404A      5.602264   405A      5.613965  
     406A      5.690541   407A      5.703464   408A      5.709841  
     409A      5.715093   410A      5.771317   411A      5.848848  
     412A      5.945128   413A      5.997041   414A      6.036727  
     415A      6.046007   416A      6.058580   417A      6.088263  
     418A      6.112473   419A      6.165492   420A      6.218193  
     421A      6.230589   422A      6.301269   423A      6.378987  
     424A      6.459546   425A      6.593812   426A      6.673813  
     427A      6.702479   428A      6.732459   429A      6.785609  
     430A      6.802729   431A      6.856174   432A      6.886865  
     433A      6.914992   434A      6.934038   435A      7.029007  
     436A      7.104421   437A      7.145487   438A      7.188640  
     439A      7.227422   440A      7.266403   441A      7.381179  
     442A      7.424660   443A      7.443598   444A      7.542564  
     445A      7.570209   446A      7.615599   447A      7.718456  
     448A      7.766931   449A      7.831351   450A      7.907764  
     451A      7.934725   452A      8.060857   453A      8.282539  
     454A      8.505553   455A     14.834369   456A     15.744826  
     457A     17.347586   458A     18.038166   459A     18.663167  
     460A     19.667402  

    Final Occupation by Irrep:
              A 
    DOCC [    24 ]

  @DF-RHF Final Energy:  -305.98537023232308

   => Energetics <=

    Nuclear Repulsion Energy =            245.1796216791535983
    One-Electron Energy =                -903.2088469909384685
    Two-Electron Energy =                 352.0438550794618209
    Total Energy =                       -305.9853702323230777

Computation Completed

*** tstop() called on node35.bme.utexas.edu at Tue Nov  3 03:08:01 2020
Module time:
	user time   =     141.40 seconds =       2.36 minutes
	system time =      13.30 seconds =       0.22 minutes
	total time  =         22 seconds =       0.37 minutes
Total time:
	user time   =     141.40 seconds =       2.36 minutes
	system time =      13.30 seconds =       0.22 minutes
	total time  =         22 seconds =       0.37 minutes
   => Loading Basis Set <=

    Name: (AUG-CC-PVTZ AUX)
    Role: RIFIT
    Keyword: DF_BASIS_MP2
    atoms 1-2  entry O          line   264 file /home/xy3866/psi4conda/share/psi4/basis/aug-cc-pvtz-ri.gbs 
    atoms 3-6  entry C          line   148 file /home/xy3866/psi4conda/share/psi4/basis/aug-cc-pvtz-ri.gbs 
    atoms 7-14 entry H          line    30 file /home/xy3866/psi4conda/share/psi4/basis/aug-cc-pvtz-ri.gbs 


*** tstart() called on node35.bme.utexas.edu
*** at Tue Nov  3 03:08:01 2020


  //>>>>>>>>>>>>>>>>>>>>>>>>>>>>>>>>>>>//
  //               DFMP2               //
  //<<<<<<<<<<<<<<<<<<<<<<<<<<<<<<<<<<<//

	 --------------------------------------------------------
	                          DF-MP2                         
	      2nd-Order Density-Fitted Moller-Plesset Theory     
	              RMP2 Wavefunction,   8 Threads             
	                                                         
	        Rob Parrish, Justin Turney, Andy Simmonett,      
	           Ed Hohenstein, and C. David Sherrill          
	 --------------------------------------------------------

   => Auxiliary Basis Set <=

  Basis Set: (AUG-CC-PVTZ AUX)
    Blend: AUG-CC-PVTZ-RI
    Number of shells: 280
    Number of basis function: 1004
    Number of Cartesian functions: 1256
    Spherical Harmonics?: true
    Max angular momentum: 4

	 --------------------------------------------------------
	                 NBF =   460, NAUX =  1004
	 --------------------------------------------------------
	   CLASS    FOCC     OCC    AOCC    AVIR     VIR    FVIR
	   PAIRS       0      24      24     436     436       0
	 --------------------------------------------------------

  DFHelper Memory: AOs need 1.567 GiB; user supplied 22.352 GiB. Using in-core AOs.


         ------------------------------------------------------------
                                     CPHF                           
                                  Rob Parrish                       
         ------------------------------------------------------------

  ==> Geometry <==

    Molecular point group: c1
    Full point group: C1

    Geometry (in Angstrom), charge = 0, multiplicity = 1:

       Center              X                  Y                   Z               Mass       
    ------------   -----------------  -----------------  -----------------  -----------------
         O            1.140603657338    -0.706568196089     0.019327349107    15.994914619570
         O            0.026513357338     1.282197903911    -0.003520750893    15.994914619570
         C           -1.229603242662    -0.773887896089    -0.017658750893    12.000000000000
         C           -2.490107342662     0.031873803911    -0.035246650893    12.000000000000
         C            0.023789657338     0.063194803911     0.000319349107    12.000000000000
         C            2.369879657338     0.041367803911     0.034646349107    12.000000000000
         H           -1.149925342662    -1.454401196089    -0.890007650893     1.007825032230
         H           -1.174370342662    -1.455135196089     0.856133349107     1.007825032230
         H           -2.521683342662     0.675080803911    -0.916180650893     1.007825032230
         H           -3.366612342662    -0.620290196089    -0.048240650893     1.007825032230
         H           -2.547109342662     0.673971803911     0.845241349107     1.007825032230
         H            3.158706657338    -0.707587196089     0.050220349107     1.007825032230
         H            2.419781657338     0.675370803911     0.920869349107     1.007825032230
         H            2.447164657338     0.667354803911    -0.855292650893     1.007825032230

  Nuclear repulsion =  245.179621679153598
  Reference energy  = -305.985370232323078

  ==> Basis Set <==

  Basis Set: AUG-CC-PVTZ
    Blend: AUG-CC-PVTZ
    Number of shells: 156
    Number of basis function: 460
    Number of Cartesian functions: 530
    Spherical Harmonics?: true
    Max angular momentum: 3

  ==> CGRSolver (by Rob Parrish) <==

   Number of roots    =         1
   Preconditioning    =    JACOBI
   Convergence cutoff =     1E-06
   Maximum iterations =       100

  ==> CPHFRHamiltonian (by Rob Parrish) <== 

  ==> MemDFJK: Density-Fitted J/K Matrices <==

    J tasked:                   Yes
    K tasked:                   Yes
    wK tasked:                   No
    OpenMP threads:               8
    Memory [MiB]:             22888
    Algorithm:                 Core
    Schwarz Cutoff:           1E-12
    Mask sparsity (%):       3.7713
    Fitting Condition:        1E-10

   => Auxiliary Basis Set <=

  Basis Set: (AUG-CC-PVTZ AUX)
    Blend: AUG-CC-PVTZ-JKFIT
    Number of shells: 292
    Number of basis function: 992
    Number of Cartesian functions: 1226
    Spherical Harmonics?: true
    Max angular momentum: 4

  ==> CPHF Iterations <==

  => Iterations <=

             Iter  Converged  Remaining    Residual
  CGR           1          0          1   1.102E-01
  CGR           2          0          1   3.229E-02
  CGR           3          0          1   1.209E-02
  CGR           4          0          1   4.006E-03
  CGR           5          0          1   1.426E-03
  CGR           6          0          1   3.647E-04
  CGR           7          0          1   9.392E-05
  CGR           8          0          1   2.598E-05
  CGR           9          0          1   7.834E-06
  CGR          10          0          1   2.479E-06
  CGR          11          1          0   7.527E-07

    CGRSolver converged.

	-----------------------------------------------------------
	 ==================> DF-MP2 Energies <==================== 
	-----------------------------------------------------------
	 Reference Energy          =    -305.9853702323230777 [Eh]
	 Singles Energy            =      -0.0000000000000000 [Eh]
	 Same-Spin Energy          =      -0.2975496915739189 [Eh]
	 Opposite-Spin Energy      =      -0.9767364540879044 [Eh]
	 Correlation Energy        =      -1.2742861456618233 [Eh]
	 Total Energy              =    -307.2596563779849248 [Eh]
	-----------------------------------------------------------
	 ================> DF-SCS-MP2 Energies <================== 
	-----------------------------------------------------------
	 SCS Same-Spin Scale       =       0.3333333333333333 [-]
	 SCS Opposite-Spin Scale   =       1.2000000000000000 [-]
	 SCS Same-Spin Energy      =      -0.0991832305246396 [Eh]
	 SCS Opposite-Spin Energy  =      -1.1720837449054853 [Eh]
	 SCS Correlation Energy    =      -1.2712669754301249 [Eh]
	 SCS Total Energy          =    -307.2566372077532151 [Eh]
	-----------------------------------------------------------



Properties will be evaluated at   0.000000,   0.000000,   0.000000 [a0]

Properties computed using the MP2 density matrix

  Nuclear Dipole Moment: [e a0]
     X:    -2.5575      Y:    -1.4462      Z:    -0.0349

  Electronic Dipole Moment: [e a0]
     X:     2.7546      Y:     0.8345      Z:     0.0388

  Dipole Moment: [e a0]
     X:     0.1971      Y:    -0.6117      Z:     0.0040     Total:     0.6427

  Dipole Moment: [D]
     X:     0.5010      Y:    -1.5549      Z:     0.0101     Total:     1.6336


*** tstop() called on node35.bme.utexas.edu at Tue Nov  3 03:09:00 2020
Module time:
	user time   =     375.38 seconds =       6.26 minutes
	system time =      17.15 seconds =       0.29 minutes
	total time  =         59 seconds =       0.98 minutes
Total time:
	user time   =     516.95 seconds =       8.62 minutes
	system time =      30.46 seconds =       0.51 minutes
	total time  =         81 seconds =       1.35 minutes

    Psi4 stopped on: Tuesday, 03 November 2020 03:09AM
    Psi4 wall time for execution: 0:01:21.71

*** Psi4 exiting successfully. Buy a developer a beer!
