
    -----------------------------------------------------------------------
          Psi4: An Open-Source Ab Initio Electronic Structure Package
                               Psi4 1.3.2 release

                         Git: Rev {HEAD} ecbda83 


    R. M. Parrish, L. A. Burns, D. G. A. Smith, A. C. Simmonett,
    A. E. DePrince III, E. G. Hohenstein, U. Bozkaya, A. Yu. Sokolov,
    R. Di Remigio, R. M. Richard, J. F. Gonthier, A. M. James,
    H. R. McAlexander, A. Kumar, M. Saitow, X. Wang, B. P. Pritchard,
    P. Verma, H. F. Schaefer III, K. Patkowski, R. A. King, E. F. Valeev,
    F. A. Evangelista, J. M. Turney, T. D. Crawford, and C. D. Sherrill,
    J. Chem. Theory Comput. 13(7) pp 3185--3197 (2017).
    (doi: 10.1021/acs.jctc.7b00174)


                         Additional Contributions by
    P. Kraus, H. Kruse, M. H. Lechner, M. C. Schieber, R. A. Shaw,
    A. Alenaizan, R. Galvelis, Z. L. Glick, S. Lehtola, and J. P. Misiewicz

    -----------------------------------------------------------------------


    Psi4 started on: Tuesday, 03 November 2020 04:23AM

    Process ID: 37927
    Host:       node35.bme.utexas.edu
    PSIDATADIR: /home/xy3866/psi4conda/share/psi4
    Memory:     500.0 MiB
    Threads:    8
    
  ==> Input File <==

--------------------------------------------------------------------------
#psi4
#
memory 32 gb

molecule  {
0 1
  O        1.1347230    -0.7035620     0.0192210
  O        0.0419040     1.2849720    -0.0032760
  C       -1.2206870    -0.7926310    -0.0174520
  C       -2.4959880     0.0348800    -0.0353530
  C        0.0262372     0.0542377    -0.0216868
  C        2.3639990     0.0443740     0.0345400
  H       -1.1389708    -1.4435244    -0.8945944
  H       -1.1802510    -1.4521290     0.8560270
  H       -2.5275640     0.6780870    -0.9162870
  H       -3.3724930    -0.6172840    -0.0483470
  H       -2.5529900     0.6769780     0.8451350
  H        3.1528260    -0.7045810     0.0501140
  H        2.4139010     0.6783770     0.9207630
  H        2.4412840     0.6703610    -0.8553990
units angstrom
no_reorient  #important for SAPT in psi4, default
symmetry c1  #important for SAPT in psi4, default
}

set PROPERTIES_ORIGIN ["COM"]
properties('MP2/aug-cc-pvtz', properties = ['dipole'])
--------------------------------------------------------------------------

  Memory set to  29.802 GiB by Python driver.
    SCF Algorithm Type (re)set to DF.

*** tstart() called on node35.bme.utexas.edu
*** at Tue Nov  3 04:23:34 2020

   => Loading Basis Set <=

    Name: AUG-CC-PVTZ
    Role: ORBITAL
    Keyword: BASIS
    atoms 1-2  entry O          line   327 file /home/xy3866/psi4conda/share/psi4/basis/aug-cc-pvtz.gbs 
    atoms 3-6  entry C          line   235 file /home/xy3866/psi4conda/share/psi4/basis/aug-cc-pvtz.gbs 
    atoms 7-14 entry H          line    36 file /home/xy3866/psi4conda/share/psi4/basis/aug-cc-pvtz.gbs 


         ---------------------------------------------------------
                                   SCF
               by Justin Turney, Rob Parrish, Andy Simmonett
                          and Daniel G. A. Smith
                              RHF Reference
                        8 Threads,  30517 MiB Core
         ---------------------------------------------------------

  ==> Geometry <==

    Molecular point group: c1
    Full point group: C1

    Geometry (in Angstrom), charge = 0, multiplicity = 1:

       Center              X                  Y                   Z               Mass       
    ------------   -----------------  -----------------  -----------------  -----------------
         O            1.133395443244    -0.702021684036     0.022256740678    15.994914619570
         O            0.040576443244     1.286512315964    -0.000240259322    15.994914619570
         C           -1.222014556756    -0.791090684036    -0.014416259322    12.000000000000
         C           -2.497315556756     0.036420315964    -0.032317259322    12.000000000000
         C            0.024909643244     0.055778015964    -0.018651059322    12.000000000000
         C            2.362671443244     0.045914315964     0.037575740678    12.000000000000
         H           -1.140298356756    -1.441984084036    -0.891558659322     1.007825032230
         H           -1.181578556756    -1.450588684036     0.859062740678     1.007825032230
         H           -2.528891556756     0.679627315964    -0.913251259322     1.007825032230
         H           -3.373820556756    -0.615743684036    -0.045311259322     1.007825032230
         H           -2.554317556756     0.678518315964     0.848170740678     1.007825032230
         H            3.151498443244    -0.703040684036     0.053149740678     1.007825032230
         H            2.412573443244     0.679917315964     0.923798740678     1.007825032230
         H            2.439956443244     0.671901315964    -0.852363259322     1.007825032230

  Running in c1 symmetry.

  Rotational constants: A =      0.31483  B =      0.07198  C =      0.06056 [cm^-1]
  Rotational constants: A =   9438.23739  B =   2157.77238  C =   1815.61630 [MHz]
  Nuclear repulsion =  245.077245256419502

  Charge       = 0
  Multiplicity = 1
  Electrons    = 48
  Nalpha       = 24
  Nbeta        = 24

  ==> Algorithm <==

  SCF Algorithm Type is DF.
  DIIS enabled.
  MOM disabled.
  Fractional occupation disabled.
  Guess Type is SAD.
  Energy threshold   = 1.00e-10
  Density threshold  = 1.00e-10
  Integral threshold = 0.00e+00

  ==> Primary Basis <==

  Basis Set: AUG-CC-PVTZ
    Blend: AUG-CC-PVTZ
    Number of shells: 156
    Number of basis function: 460
    Number of Cartesian functions: 530
    Spherical Harmonics?: true
    Max angular momentum: 3

   => Loading Basis Set <=

    Name: (AUG-CC-PVTZ AUX)
    Role: JKFIT
    Keyword: DF_BASIS_SCF
    atoms 1-2  entry O          line   286 file /home/xy3866/psi4conda/share/psi4/basis/aug-cc-pvtz-jkfit.gbs 
    atoms 3-6  entry C          line   162 file /home/xy3866/psi4conda/share/psi4/basis/aug-cc-pvtz-jkfit.gbs 
    atoms 7-14 entry H          line    70 file /home/xy3866/psi4conda/share/psi4/basis/aug-cc-pvtz-jkfit.gbs 

  ==> Pre-Iterations <==

   -------------------------------------------------------
    Irrep   Nso     Nmo     Nalpha   Nbeta   Ndocc  Nsocc
   -------------------------------------------------------
     A        460     460       0       0       0       0
   -------------------------------------------------------
    Total     460     460      24      24      24       0
   -------------------------------------------------------

  ==> Integral Setup <==

  DFHelper Memory: AOs need 1.568 GiB; user supplied 22.352 GiB. Using in-core AOs.

  ==> MemDFJK: Density-Fitted J/K Matrices <==

    J tasked:                   Yes
    K tasked:                   Yes
    wK tasked:                   No
    OpenMP threads:               8
    Memory [MiB]:             22888
    Algorithm:                 Core
    Schwarz Cutoff:           1E-12
    Mask sparsity (%):       3.7675
    Fitting Condition:        1E-10

   => Auxiliary Basis Set <=

  Basis Set: (AUG-CC-PVTZ AUX)
    Blend: AUG-CC-PVTZ-JKFIT
    Number of shells: 292
    Number of basis function: 992
    Number of Cartesian functions: 1226
    Spherical Harmonics?: true
    Max angular momentum: 4

  Minimum eigenvalue in the overlap matrix is 9.1210086486E-06.
  Using Symmetric Orthogonalization.

  SCF Guess: Superposition of Atomic Densities via on-the-fly atomic UHF.

  ==> Iterations <==

                           Total Energy        Delta E     RMS |[F,P]|

   @DF-RHF iter SAD:  -304.94995109313044   -3.04950e+02   0.00000e+00 
   @DF-RHF iter   1:  -305.77013099066767   -8.20180e-01   1.40882e-03 DIIS
   @DF-RHF iter   2:  -305.93106366454901   -1.60933e-01   8.13873e-04 DIIS
   @DF-RHF iter   3:  -305.98099795899589   -4.99343e-02   1.74672e-04 DIIS
   @DF-RHF iter   4:  -305.98464558558487   -3.64763e-03   7.28447e-05 DIIS
   @DF-RHF iter   5:  -305.98533595438744   -6.90369e-04   1.47035e-05 DIIS
   @DF-RHF iter   6:  -305.98538205611561   -4.61017e-05   6.87147e-06 DIIS
   @DF-RHF iter   7:  -305.98539124013848   -9.18402e-06   2.61838e-06 DIIS
   @DF-RHF iter   8:  -305.98539316237157   -1.92223e-06   1.05288e-06 DIIS
   @DF-RHF iter   9:  -305.98539352019191   -3.57820e-07   2.80961e-07 DIIS
   @DF-RHF iter  10:  -305.98539354403448   -2.38426e-08   7.50165e-08 DIIS
   @DF-RHF iter  11:  -305.98539354547972   -1.44524e-09   1.77212e-08 DIIS
   @DF-RHF iter  12:  -305.98539354555180   -7.20775e-11   3.93985e-09 DIIS
   @DF-RHF iter  13:  -305.98539354555635   -4.54747e-12   1.06153e-09 DIIS
   @DF-RHF iter  14:  -305.98539354555624    1.13687e-13   4.42235e-10 DIIS
   @DF-RHF iter  15:  -305.98539354555612    1.13687e-13   1.20524e-10 DIIS
   @DF-RHF iter  16:  -305.98539354555720   -1.08002e-12   4.32638e-11 DIIS
  Energy and wave function converged.


  ==> Post-Iterations <==

    Orbital Energies [Eh]
    ---------------------

    Doubly Occupied:                                                      

       1A    -20.607386     2A    -20.541708     3A    -11.379402  
       4A    -11.286110     5A    -11.245211     6A    -11.220092  
       7A     -1.456954     8A     -1.347229     9A     -1.066003  
      10A     -0.974831    11A     -0.878605    12A     -0.769042  
      13A     -0.697464    14A     -0.679225    15A     -0.668123  
      16A     -0.620621    17A     -0.597792    18A     -0.537967  
      19A     -0.536778    20A     -0.525437    21A     -0.517780  
      22A     -0.495388    23A     -0.460732    24A     -0.445809  

    Virtual:                                                              

      25A      0.028196    26A      0.033629    27A      0.040703  
      28A      0.042589    29A      0.053103    30A      0.057647  
      31A      0.058864    32A      0.066366    33A      0.091692  
      34A      0.103243    35A      0.112605    36A      0.120503  
      37A      0.122846    38A      0.124850    39A      0.126899  
      40A      0.133992    41A      0.138242    42A      0.140697  
      43A      0.156978    44A      0.159746    45A      0.166133  
      46A      0.178492    47A      0.179227    48A      0.199825  
      49A      0.211073    50A      0.212508    51A      0.216560  
      52A      0.226308    53A      0.232492    54A      0.239570  
      55A      0.250916    56A      0.271699    57A      0.274828  
      58A      0.280853    59A      0.286077    60A      0.289960  
      61A      0.302178    62A      0.310104    63A      0.320222  
      64A      0.322171    65A      0.331221    66A      0.334572  
      67A      0.342510    68A      0.349337    69A      0.353978  
      70A      0.355515    71A      0.366984    72A      0.369813  
      73A      0.379503    74A      0.382884    75A      0.388174  
      76A      0.398732    77A      0.400674    78A      0.412767  
      79A      0.415839    80A      0.418584    81A      0.430048  
      82A      0.434940    83A      0.439127    84A      0.446178  
      85A      0.450570    86A      0.453101    87A      0.454499  
      88A      0.458751    89A      0.472332    90A      0.476404  
      91A      0.480209    92A      0.486011    93A      0.500935  
      94A      0.501277    95A      0.513123    96A      0.519189  
      97A      0.531326    98A      0.533876    99A      0.537924  
     100A      0.543923   101A      0.558374   102A      0.562465  
     103A      0.565953   104A      0.571360   105A      0.577047  
     106A      0.590134   107A      0.611407   108A      0.615407  
     109A      0.632964   110A      0.639276   111A      0.647875  
     112A      0.696893   113A      0.716232   114A      0.724522  
     115A      0.737008   116A      0.753293   117A      0.760757  
     118A      0.783368   119A      0.792483   120A      0.793007  
     121A      0.796421   122A      0.814326   123A      0.817330  
     124A      0.829949   125A      0.834169   126A      0.837084  
     127A      0.840651   128A      0.852049   129A      0.863114  
     130A      0.865544   131A      0.872587   132A      0.889512  
     133A      0.897998   134A      0.898847   135A      0.900356  
     136A      0.916321   137A      0.923141   138A      0.926768  
     139A      0.934305   140A      0.940413   141A      0.941355  
     142A      0.957150   143A      0.959743   144A      0.969254  
     145A      0.991064   146A      0.996423   147A      1.002080  
     148A      1.005194   149A      1.024954   150A      1.031622  
     151A      1.039910   152A      1.051034   153A      1.067981  
     154A      1.071437   155A      1.072149   156A      1.079645  
     157A      1.086829   158A      1.102799   159A      1.110376  
     160A      1.116828   161A      1.117760   162A      1.133347  
     163A      1.158205   164A      1.159044   165A      1.166086  
     166A      1.177128   167A      1.178233   168A      1.179920  
     169A      1.189167   170A      1.201319   171A      1.212645  
     172A      1.215124   173A      1.229025   174A      1.237163  
     175A      1.257069   176A      1.258259   177A      1.273045  
     178A      1.290130   179A      1.292438   180A      1.293189  
     181A      1.326777   182A      1.343977   183A      1.373379  
     184A      1.381214   185A      1.383603   186A      1.406541  
     187A      1.409069   188A      1.420450   189A      1.425279  
     190A      1.426863   191A      1.452115   192A      1.459247  
     193A      1.489466   194A      1.492251   195A      1.516323  
     196A      1.526911   197A      1.530183   198A      1.543361  
     199A      1.576711   200A      1.580446   201A      1.583572  
     202A      1.603996   203A      1.609621   204A      1.626700  
     205A      1.632138   206A      1.643514   207A      1.648419  
     208A      1.662128   209A      1.678186   210A      1.685681  
     211A      1.687642   212A      1.695026   213A      1.702243  
     214A      1.714780   215A      1.720945   216A      1.729186  
     217A      1.732800   218A      1.743906   219A      1.765220  
     220A      1.782476   221A      1.789796   222A      1.795475  
     223A      1.806097   224A      1.826598   225A      1.837640  
     226A      1.853914   227A      1.875046   228A      1.878739  
     229A      1.890200   230A      1.902978   231A      1.908862  
     232A      1.929330   233A      1.933220   234A      1.947691  
     235A      1.960428   236A      1.999328   237A      2.005004  
     238A      2.016578   239A      2.017350   240A      2.030780  
     241A      2.063327   242A      2.071901   243A      2.129903  
     244A      2.135619   245A      2.164070   246A      2.168618  
     247A      2.179400   248A      2.222471   249A      2.232190  
     250A      2.235072   251A      2.244012   252A      2.261366  
     253A      2.270742   254A      2.271510   255A      2.309696  
     256A      2.336781   257A      2.364659   258A      2.373533  
     259A      2.394304   260A      2.411878   261A      2.427056  
     262A      2.481702   263A      2.499699   264A      2.520697  
     265A      2.532436   266A      2.566601   267A      2.578325  
     268A      2.625318   269A      2.631375   270A      2.642394  
     271A      2.670686   272A      2.691809   273A      2.722208  
     274A      2.726024   275A      2.770738   276A      2.801979  
     277A      2.851593   278A      2.882758   279A      2.890393  
     280A      2.903860   281A      2.932149   282A      2.964818  
     283A      2.977916   284A      3.025374   285A      3.081375  
     286A      3.084864   287A      3.101617   288A      3.124284  
     289A      3.234646   290A      3.261140   291A      3.286639  
     292A      3.327814   293A      3.343461   294A      3.346369  
     295A      3.398626   296A      3.414778   297A      3.426265  
     298A      3.469445   299A      3.475381   300A      3.480164  
     301A      3.516517   302A      3.545310   303A      3.556174  
     304A      3.576038   305A      3.586193   306A      3.614968  
     307A      3.638156   308A      3.642259   309A      3.655443  
     310A      3.670267   311A      3.700003   312A      3.702495  
     313A      3.711187   314A      3.737534   315A      3.754190  
     316A      3.756743   317A      3.788073   318A      3.803737  
     319A      3.809335   320A      3.826410   321A      3.834596  
     322A      3.870967   323A      3.878003   324A      3.904767  
     325A      3.912036   326A      3.916304   327A      3.919259  
     328A      3.969442   329A      3.989608   330A      4.001142  
     331A      4.010181   332A      4.034700   333A      4.045163  
     334A      4.057428   335A      4.070493   336A      4.083909  
     337A      4.093985   338A      4.124477   339A      4.148207  
     340A      4.175409   341A      4.180797   342A      4.185140  
     343A      4.189773   344A      4.230947   345A      4.243957  
     346A      4.253887   347A      4.276159   348A      4.308501  
     349A      4.311038   350A      4.323573   351A      4.367380  
     352A      4.411195   353A      4.416861   354A      4.425439  
     355A      4.451380   356A      4.460093   357A      4.494293  
     358A      4.553110   359A      4.564713   360A      4.592523  
     361A      4.605164   362A      4.630605   363A      4.647761  
     364A      4.662911   365A      4.681029   366A      4.718783  
     367A      4.755167   368A      4.773494   369A      4.800567  
     370A      4.807988   371A      4.813386   372A      4.821583  
     373A      4.826704   374A      4.854829   375A      4.861342  
     376A      4.885129   377A      4.910477   378A      4.947363  
     379A      4.990404   380A      5.013433   381A      5.037368  
     382A      5.043875   383A      5.078155   384A      5.091380  
     385A      5.118528   386A      5.123305   387A      5.150852  
     388A      5.156037   389A      5.204855   390A      5.222570  
     391A      5.251795   392A      5.271069   393A      5.330325  
     394A      5.353432   395A      5.355038   396A      5.394317  
     397A      5.403310   398A      5.418730   399A      5.463004  
     400A      5.513292   401A      5.525001   402A      5.582272  
     403A      5.588607   404A      5.601797   405A      5.614518  
     406A      5.691230   407A      5.703558   408A      5.714608  
     409A      5.717496   410A      5.767736   411A      5.844752  
     412A      5.938084   413A      5.998015   414A      6.037250  
     415A      6.046493   416A      6.071235   417A      6.088495  
     418A      6.117856   419A      6.184713   420A      6.212158  
     421A      6.223354   422A      6.294298   423A      6.380464  
     424A      6.451790   425A      6.596384   426A      6.672748  
     427A      6.704843   428A      6.734275   429A      6.784743  
     430A      6.807622   431A      6.843937   432A      6.885405  
     433A      6.916075   434A      6.934904   435A      7.025947  
     436A      7.102657   437A      7.140695   438A      7.194739  
     439A      7.225390   440A      7.261790   441A      7.380011  
     442A      7.424596   443A      7.443522   444A      7.534608  
     445A      7.569430   446A      7.619755   447A      7.720521  
     448A      7.772948   449A      7.825925   450A      7.909232  
     451A      7.931541   452A      8.065438   453A      8.272409  
     454A      8.507451   455A     14.861422   456A     15.570734  
     457A     17.366914   458A     18.053290   459A     18.506816  
     460A     19.680384  

    Final Occupation by Irrep:
              A 
    DOCC [    24 ]

  @DF-RHF Final Energy:  -305.98539354555720

   => Energetics <=

    Nuclear Repulsion Energy =            245.0772452564195021
    One-Electron Energy =                -903.0138925235229408
    Two-Electron Energy =                 351.9512537215462658
    Total Energy =                       -305.9853935455572014

Computation Completed

*** tstop() called on node35.bme.utexas.edu at Tue Nov  3 04:23:56 2020
Module time:
	user time   =     123.26 seconds =       2.05 minutes
	system time =       8.41 seconds =       0.14 minutes
	total time  =         22 seconds =       0.37 minutes
Total time:
	user time   =     123.26 seconds =       2.05 minutes
	system time =       8.41 seconds =       0.14 minutes
	total time  =         22 seconds =       0.37 minutes
   => Loading Basis Set <=

    Name: (AUG-CC-PVTZ AUX)
    Role: RIFIT
    Keyword: DF_BASIS_MP2
    atoms 1-2  entry O          line   264 file /home/xy3866/psi4conda/share/psi4/basis/aug-cc-pvtz-ri.gbs 
    atoms 3-6  entry C          line   148 file /home/xy3866/psi4conda/share/psi4/basis/aug-cc-pvtz-ri.gbs 
    atoms 7-14 entry H          line    30 file /home/xy3866/psi4conda/share/psi4/basis/aug-cc-pvtz-ri.gbs 


*** tstart() called on node35.bme.utexas.edu
*** at Tue Nov  3 04:23:57 2020


  //>>>>>>>>>>>>>>>>>>>>>>>>>>>>>>>>>>>//
  //               DFMP2               //
  //<<<<<<<<<<<<<<<<<<<<<<<<<<<<<<<<<<<//

	 --------------------------------------------------------
	                          DF-MP2                         
	      2nd-Order Density-Fitted Moller-Plesset Theory     
	              RMP2 Wavefunction,   8 Threads             
	                                                         
	        Rob Parrish, Justin Turney, Andy Simmonett,      
	           Ed Hohenstein, and C. David Sherrill          
	 --------------------------------------------------------

   => Auxiliary Basis Set <=

  Basis Set: (AUG-CC-PVTZ AUX)
    Blend: AUG-CC-PVTZ-RI
    Number of shells: 280
    Number of basis function: 1004
    Number of Cartesian functions: 1256
    Spherical Harmonics?: true
    Max angular momentum: 4

	 --------------------------------------------------------
	                 NBF =   460, NAUX =  1004
	 --------------------------------------------------------
	   CLASS    FOCC     OCC    AOCC    AVIR     VIR    FVIR
	   PAIRS       0      24      24     436     436       0
	 --------------------------------------------------------

  DFHelper Memory: AOs need 1.568 GiB; user supplied 22.352 GiB. Using in-core AOs.


         ------------------------------------------------------------
                                     CPHF                           
                                  Rob Parrish                       
         ------------------------------------------------------------

  ==> Geometry <==

    Molecular point group: c1
    Full point group: C1

    Geometry (in Angstrom), charge = 0, multiplicity = 1:

       Center              X                  Y                   Z               Mass       
    ------------   -----------------  -----------------  -----------------  -----------------
         O            1.133395443244    -0.702021684036     0.022256740678    15.994914619570
         O            0.040576443244     1.286512315964    -0.000240259322    15.994914619570
         C           -1.222014556756    -0.791090684036    -0.014416259322    12.000000000000
         C           -2.497315556756     0.036420315964    -0.032317259322    12.000000000000
         C            0.024909643244     0.055778015964    -0.018651059322    12.000000000000
         C            2.362671443244     0.045914315964     0.037575740678    12.000000000000
         H           -1.140298356756    -1.441984084036    -0.891558659322     1.007825032230
         H           -1.181578556756    -1.450588684036     0.859062740678     1.007825032230
         H           -2.528891556756     0.679627315964    -0.913251259322     1.007825032230
         H           -3.373820556756    -0.615743684036    -0.045311259322     1.007825032230
         H           -2.554317556756     0.678518315964     0.848170740678     1.007825032230
         H            3.151498443244    -0.703040684036     0.053149740678     1.007825032230
         H            2.412573443244     0.679917315964     0.923798740678     1.007825032230
         H            2.439956443244     0.671901315964    -0.852363259322     1.007825032230

  Nuclear repulsion =  245.077245256419502
  Reference energy  = -305.985393545557201

  ==> Basis Set <==

  Basis Set: AUG-CC-PVTZ
    Blend: AUG-CC-PVTZ
    Number of shells: 156
    Number of basis function: 460
    Number of Cartesian functions: 530
    Spherical Harmonics?: true
    Max angular momentum: 3

  ==> CGRSolver (by Rob Parrish) <==

   Number of roots    =         1
   Preconditioning    =    JACOBI
   Convergence cutoff =     1E-06
   Maximum iterations =       100

  ==> CPHFRHamiltonian (by Rob Parrish) <== 

  ==> MemDFJK: Density-Fitted J/K Matrices <==

    J tasked:                   Yes
    K tasked:                   Yes
    wK tasked:                   No
    OpenMP threads:               8
    Memory [MiB]:             22888
    Algorithm:                 Core
    Schwarz Cutoff:           1E-12
    Mask sparsity (%):       3.7675
    Fitting Condition:        1E-10

   => Auxiliary Basis Set <=

  Basis Set: (AUG-CC-PVTZ AUX)
    Blend: AUG-CC-PVTZ-JKFIT
    Number of shells: 292
    Number of basis function: 992
    Number of Cartesian functions: 1226
    Spherical Harmonics?: true
    Max angular momentum: 4

  ==> CPHF Iterations <==

  => Iterations <=

             Iter  Converged  Remaining    Residual
  CGR           1          0          1   1.109E-01
  CGR           2          0          1   3.310E-02
  CGR           3          0          1   1.228E-02
  CGR           4          0          1   4.139E-03
  CGR           5          0          1   1.449E-03
  CGR           6          0          1   3.823E-04
  CGR           7          0          1   1.035E-04
  CGR           8          0          1   3.729E-05
  CGR           9          0          1   1.492E-05
  CGR          10          0          1   5.442E-06
  CGR          11          0          1   1.293E-06
  CGR          12          1          0   5.094E-07

    CGRSolver converged.

	-----------------------------------------------------------
	 ==================> DF-MP2 Energies <==================== 
	-----------------------------------------------------------
	 Reference Energy          =    -305.9853935455572014 [Eh]
	 Singles Energy            =      -0.0000000000000000 [Eh]
	 Same-Spin Energy          =      -0.2975587205064528 [Eh]
	 Opposite-Spin Energy      =      -0.9768419528551575 [Eh]
	 Correlation Energy        =      -1.2744006733616104 [Eh]
	 Total Energy              =    -307.2597942189187847 [Eh]
	-----------------------------------------------------------
	 ================> DF-SCS-MP2 Energies <================== 
	-----------------------------------------------------------
	 SCS Same-Spin Scale       =       0.3333333333333333 [-]
	 SCS Opposite-Spin Scale   =       1.2000000000000000 [-]
	 SCS Same-Spin Energy      =      -0.0991862401688176 [Eh]
	 SCS Opposite-Spin Energy  =      -1.1722103434261890 [Eh]
	 SCS Correlation Energy    =      -1.2713965835950067 [Eh]
	 SCS Total Energy          =    -307.2567901291521935 [Eh]
	-----------------------------------------------------------



Properties will be evaluated at   0.000000,  -0.000000,   0.000000 [a0]

Properties computed using the MP2 density matrix

  Nuclear Dipole Moment: [e a0]
     X:    -2.5957      Y:    -1.4047      Z:    -0.0171

  Electronic Dipole Moment: [e a0]
     X:     2.8080      Y:     0.7602      Z:     0.0137

  Dipole Moment: [e a0]
     X:     0.2123      Y:    -0.6445      Z:    -0.0034     Total:     0.6785

  Dipole Moment: [D]
     X:     0.5396      Y:    -1.6381      Z:    -0.0086     Total:     1.7247


*** tstop() called on node35.bme.utexas.edu at Tue Nov  3 04:25:07 2020
Module time:
	user time   =     370.56 seconds =       6.18 minutes
	system time =      17.55 seconds =       0.29 minutes
	total time  =         70 seconds =       1.17 minutes
Total time:
	user time   =     494.05 seconds =       8.23 minutes
	system time =      25.97 seconds =       0.43 minutes
	total time  =         93 seconds =       1.55 minutes

    Psi4 stopped on: Tuesday, 03 November 2020 04:25AM
    Psi4 wall time for execution: 0:01:32.87

*** Psi4 exiting successfully. Buy a developer a beer!
