98681                                                                   
Freq      RMP2-FC                                                     6-31G(d)            
Number of atoms                            I               18
Info1-9                                    I   N=           9
          30          28        1002           0           0         100
           6           2           1
Charge                                     I                0
Multiplicity                               I                1
Number of electrons                        I               70
Number of alpha electrons                  I               35
Number of beta electrons                   I               35
Number of basis functions                  I              153
Number of independent functions            I              153
Number of point charges in /Mol/           I                0
Number of translation vectors              I                0
Atomic numbers                             I   N=          18
           8           8           8           7           6           6
           6           6           6           1           1           1
           1           1           1           1           1           1
Nuclear charges                            R   N=          18
  8.00000000E+00  8.00000000E+00  8.00000000E+00  7.00000000E+00  6.00000000E+00
  6.00000000E+00  6.00000000E+00  6.00000000E+00  6.00000000E+00  1.00000000E+00
  1.00000000E+00  1.00000000E+00  1.00000000E+00  1.00000000E+00  1.00000000E+00
  1.00000000E+00  1.00000000E+00  1.00000000E+00
Current cartesian coordinates              R   N=          54
  1.65620610E+00 -4.58919383E-01  2.43991514E+00 -5.98578069E+00  1.85373900E-01
  1.02866835E+00 -2.99329460E+00  2.53346046E+00 -9.58264851E-01  1.57679284E-01
 -1.65066384E+00 -1.42572829E+00  4.28614523E+00  4.11758586E-01 -1.20573122E+00
  1.95213460E+00 -5.66941105E-01  1.36408320E-01 -2.34228952E+00 -1.98402957E+00
 -3.93985455E-01  6.49798440E+00  7.81829386E-01  5.97105528E-01 -3.73896946E+00
  5.09092199E-01 -1.60854724E-01  4.78298615E+00 -8.85469296E-01 -2.74265752E+00
  3.76618525E+00  2.21265817E+00 -2.09600619E+00 -2.18251860E+00 -2.82938453E+00
  1.48066519E+00 -3.44505596E+00 -3.27080610E+00 -1.57991081E+00  2.42306518E-01
 -1.13856474E+00 -3.27074750E+00  7.06372567E+00 -1.01582382E+00  1.43907273E+00
  8.12116789E+00  1.57667296E+00 -4.03244156E-01  5.96802142E+00  2.05407286E+00
  2.12968812E+00 -6.76765140E+00  1.86171449E+00  1.10303435E+00
Force Field                                I                0
Int Atom Types                             I   N=          18
           0           0           0           0           0           0
           0           0           0           0           0           0
           0           0           0           0           0           0
MM charges                                 R   N=          18
  0.00000000E+00  0.00000000E+00  0.00000000E+00  0.00000000E+00  0.00000000E+00
  0.00000000E+00  0.00000000E+00  0.00000000E+00  0.00000000E+00  0.00000000E+00
  0.00000000E+00  0.00000000E+00  0.00000000E+00  0.00000000E+00  0.00000000E+00
  0.00000000E+00  0.00000000E+00  0.00000000E+00
Integer atomic weights                     I   N=          18
          16          16          16          14          12          12
          12          12          12           1           1           1
           1           1           1           1           1           1
Real atomic weights                        R   N=          18
  1.59949146E+01  1.59949146E+01  1.59949146E+01  1.40030740E+01  1.20000000E+01
  1.20000000E+01  1.20000000E+01  1.20000000E+01  1.20000000E+01  1.00782504E+00
  1.00782504E+00  1.00782504E+00  1.00782504E+00  1.00782504E+00  1.00782504E+00
  1.00782504E+00  1.00782504E+00  1.00782504E+00
Atom fragment info                         I   N=          18
           0           0           0           0           0           0
           0           0           0           0           0           0
           0           0           0           0           0           0
Atom residue num                           I   N=          18
           0           0           0           0           0           0
           0           0           0           0           0           0
           0           0           0           0           0           0
Nuclear spins                              I   N=          18
           0           0           0           2           0           0
           0           0           0           1           1           1
           1           1           1           1           1           1
Nuclear ZEff                               R   N=          18
 -5.60000000E+00 -5.60000000E+00 -5.60000000E+00 -4.55000000E+00 -3.60000000E+00
 -3.60000000E+00 -3.60000000E+00 -3.60000000E+00 -3.60000000E+00 -1.00000000E+00
 -1.00000000E+00 -1.00000000E+00 -1.00000000E+00 -1.00000000E+00 -1.00000000E+00
 -1.00000000E+00 -1.00000000E+00 -1.00000000E+00
Nuclear QMom                               R   N=          18
  0.00000000E+00  0.00000000E+00  0.00000000E+00  2.04400000E+00  0.00000000E+00
  0.00000000E+00  0.00000000E+00  0.00000000E+00  0.00000000E+00  0.00000000E+00
  0.00000000E+00  0.00000000E+00  0.00000000E+00  0.00000000E+00  0.00000000E+00
  0.00000000E+00  0.00000000E+00  0.00000000E+00
Nuclear GFac                               R   N=          18
  0.00000000E+00  0.00000000E+00  0.00000000E+00  4.03761000E-01  0.00000000E+00
  0.00000000E+00  0.00000000E+00  0.00000000E+00  0.00000000E+00  2.79284600E+00
  2.79284600E+00  2.79284600E+00  2.79284600E+00  2.79284600E+00  2.79284600E+00
  2.79284600E+00  2.79284600E+00  2.79284600E+00
MicOpt                                     I   N=          18
          -1          -1          -1          -1          -1          -1
          -1          -1          -1          -1          -1          -1
          -1          -1          -1          -1          -1          -1
Number of contracted shells                I               54
Number of primitive shells                 I              135
Pure/Cartesian d shells                    I                1
Pure/Cartesian f shells                    I                0
Highest angular momentum                   I                2
Largest degree of contraction              I                6
Shell types                                I   N=          54
           0          -1          -1           2           0          -1
          -1           2           0          -1          -1           2
           0          -1          -1           2           0          -1
          -1           2           0          -1          -1           2
           0          -1          -1           2           0          -1
          -1           2           0          -1          -1           2
           0           0           0           0           0           0
           0           0           0           0           0           0
           0           0           0           0           0           0
Number of primitives per shell             I   N=          54
           6           3           1           1           6           3
           1           1           6           3           1           1
           6           3           1           1           6           3
           1           1           6           3           1           1
           6           3           1           1           6           3
           1           1           6           3           1           1
           3           1           3           1           3           1
           3           1           3           1           3           1
           3           1           3           1           3           1
Shell to atom map                          I   N=          54
           1           1           1           1           2           2
           2           2           3           3           3           3
           4           4           4           4           5           5
           5           5           6           6           6           6
           7           7           7           7           8           8
           8           8           9           9           9           9
          10          10          11          11          12          12
          13          13          14          14          15          15
          16          16          17          17          18          18
Primitive exponents                        R   N=         135
  5.48467166E+03  8.25234946E+02  1.88046958E+02  5.29645000E+01  1.68975704E+01
  5.79963534E+00  1.55396162E+01  3.59993359E+00  1.01376175E+00  2.70005823E-01
  8.00000000E-01  5.48467166E+03  8.25234946E+02  1.88046958E+02  5.29645000E+01
  1.68975704E+01  5.79963534E+00  1.55396162E+01  3.59993359E+00  1.01376175E+00
  2.70005823E-01  8.00000000E-01  5.48467166E+03  8.25234946E+02  1.88046958E+02
  5.29645000E+01  1.68975704E+01  5.79963534E+00  1.55396162E+01  3.59993359E+00
  1.01376175E+00  2.70005823E-01  8.00000000E-01  4.17351146E+03  6.27457911E+02
  1.42902093E+02  4.02343293E+01  1.28202129E+01  4.39043701E+00  1.16263619E+01
  2.71627981E+00  7.72218397E-01  2.12031498E-01  8.00000000E-01  3.04752488E+03
  4.57369518E+02  1.03948685E+02  2.92101553E+01  9.28666296E+00  3.16392696E+00
  7.86827235E+00  1.88128854E+00  5.44249258E-01  1.68714478E-01  8.00000000E-01
  3.04752488E+03  4.57369518E+02  1.03948685E+02  2.92101553E+01  9.28666296E+00
  3.16392696E+00  7.86827235E+00  1.88128854E+00  5.44249258E-01  1.68714478E-01
  8.00000000E-01  3.04752488E+03  4.57369518E+02  1.03948685E+02  2.92101553E+01
  9.28666296E+00  3.16392696E+00  7.86827235E+00  1.88128854E+00  5.44249258E-01
  1.68714478E-01  8.00000000E-01  3.04752488E+03  4.57369518E+02  1.03948685E+02
  2.92101553E+01  9.28666296E+00  3.16392696E+00  7.86827235E+00  1.88128854E+00
  5.44249258E-01  1.68714478E-01  8.00000000E-01  3.04752488E+03  4.57369518E+02
  1.03948685E+02  2.92101553E+01  9.28666296E+00  3.16392696E+00  7.86827235E+00
  1.88128854E+00  5.44249258E-01  1.68714478E-01  8.00000000E-01  1.87311370E+01
  2.82539436E+00  6.40121692E-01  1.61277759E-01  1.87311370E+01  2.82539436E+00
  6.40121692E-01  1.61277759E-01  1.87311370E+01  2.82539436E+00  6.40121692E-01
  1.61277759E-01  1.87311370E+01  2.82539436E+00  6.40121692E-01  1.61277759E-01
  1.87311370E+01  2.82539436E+00  6.40121692E-01  1.61277759E-01  1.87311370E+01
  2.82539436E+00  6.40121692E-01  1.61277759E-01  1.87311370E+01  2.82539436E+00
  6.40121692E-01  1.61277759E-01  1.87311370E+01  2.82539436E+00  6.40121692E-01
  1.61277759E-01  1.87311370E+01  2.82539436E+00  6.40121692E-01  1.61277759E-01
Contraction coefficients                   R   N=         135
  1.83107443E-03  1.39501722E-02  6.84450781E-02  2.32714336E-01  4.70192898E-01
  3.58520853E-01 -1.10777550E-01 -1.48026263E-01  1.13076702E+00  1.00000000E+00
  1.00000000E+00  1.83107443E-03  1.39501722E-02  6.84450781E-02  2.32714336E-01
  4.70192898E-01  3.58520853E-01 -1.10777550E-01 -1.48026263E-01  1.13076702E+00
  1.00000000E+00  1.00000000E+00  1.83107443E-03  1.39501722E-02  6.84450781E-02
  2.32714336E-01  4.70192898E-01  3.58520853E-01 -1.10777550E-01 -1.48026263E-01
  1.13076702E+00  1.00000000E+00  1.00000000E+00  1.83477216E-03  1.39946270E-02
  6.85865518E-02  2.32240873E-01  4.69069948E-01  3.60455199E-01 -1.14961182E-01
 -1.69117479E-01  1.14585195E+00  1.00000000E+00  1.00000000E+00  1.83473713E-03
  1.40373228E-02  6.88426223E-02  2.32184443E-01  4.67941348E-01  3.62311985E-01
 -1.19332420E-01 -1.60854152E-01  1.14345644E+00  1.00000000E+00  1.00000000E+00
  1.83473713E-03  1.40373228E-02  6.88426223E-02  2.32184443E-01  4.67941348E-01
  3.62311985E-01 -1.19332420E-01 -1.60854152E-01  1.14345644E+00  1.00000000E+00
  1.00000000E+00  1.83473713E-03  1.40373228E-02  6.88426223E-02  2.32184443E-01
  4.67941348E-01  3.62311985E-01 -1.19332420E-01 -1.60854152E-01  1.14345644E+00
  1.00000000E+00  1.00000000E+00  1.83473713E-03  1.40373228E-02  6.88426223E-02
  2.32184443E-01  4.67941348E-01  3.62311985E-01 -1.19332420E-01 -1.60854152E-01
  1.14345644E+00  1.00000000E+00  1.00000000E+00  1.83473713E-03  1.40373228E-02
  6.88426223E-02  2.32184443E-01  4.67941348E-01  3.62311985E-01 -1.19332420E-01
 -1.60854152E-01  1.14345644E+00  1.00000000E+00  1.00000000E+00  3.34946043E-02
  2.34726953E-01  8.13757326E-01  1.00000000E+00  3.34946043E-02  2.34726953E-01
  8.13757326E-01  1.00000000E+00  3.34946043E-02  2.34726953E-01  8.13757326E-01
  1.00000000E+00  3.34946043E-02  2.34726953E-01  8.13757326E-01  1.00000000E+00
  3.34946043E-02  2.34726953E-01  8.13757326E-01  1.00000000E+00  3.34946043E-02
  2.34726953E-01  8.13757326E-01  1.00000000E+00  3.34946043E-02  2.34726953E-01
  8.13757326E-01  1.00000000E+00  3.34946043E-02  2.34726953E-01  8.13757326E-01
  1.00000000E+00  3.34946043E-02  2.34726953E-01  8.13757326E-01  1.00000000E+00
P(S=P) Contraction coefficients            R   N=         135
  0.00000000E+00  0.00000000E+00  0.00000000E+00  0.00000000E+00  0.00000000E+00
  0.00000000E+00  7.08742682E-02  3.39752839E-01  7.27158577E-01  1.00000000E+00
  0.00000000E+00  0.00000000E+00  0.00000000E+00  0.00000000E+00  0.00000000E+00
  0.00000000E+00  0.00000000E+00  7.08742682E-02  3.39752839E-01  7.27158577E-01
  1.00000000E+00  0.00000000E+00  0.00000000E+00  0.00000000E+00  0.00000000E+00
  0.00000000E+00  0.00000000E+00  0.00000000E+00  7.08742682E-02  3.39752839E-01
  7.27158577E-01  1.00000000E+00  0.00000000E+00  0.00000000E+00  0.00000000E+00
  0.00000000E+00  0.00000000E+00  0.00000000E+00  0.00000000E+00  6.75797439E-02
  3.23907296E-01  7.40895140E-01  1.00000000E+00  0.00000000E+00  0.00000000E+00
  0.00000000E+00  0.00000000E+00  0.00000000E+00  0.00000000E+00  0.00000000E+00
  6.89990666E-02  3.16423961E-01  7.44308291E-01  1.00000000E+00  0.00000000E+00
  0.00000000E+00  0.00000000E+00  0.00000000E+00  0.00000000E+00  0.00000000E+00
  0.00000000E+00  6.89990666E-02  3.16423961E-01  7.44308291E-01  1.00000000E+00
  0.00000000E+00  0.00000000E+00  0.00000000E+00  0.00000000E+00  0.00000000E+00
  0.00000000E+00  0.00000000E+00  6.89990666E-02  3.16423961E-01  7.44308291E-01
  1.00000000E+00  0.00000000E+00  0.00000000E+00  0.00000000E+00  0.00000000E+00
  0.00000000E+00  0.00000000E+00  0.00000000E+00  6.89990666E-02  3.16423961E-01
  7.44308291E-01  1.00000000E+00  0.00000000E+00  0.00000000E+00  0.00000000E+00
  0.00000000E+00  0.00000000E+00  0.00000000E+00  0.00000000E+00  6.89990666E-02
  3.16423961E-01  7.44308291E-01  1.00000000E+00  0.00000000E+00  0.00000000E+00
  0.00000000E+00  0.00000000E+00  0.00000000E+00  0.00000000E+00  0.00000000E+00
  0.00000000E+00  0.00000000E+00  0.00000000E+00  0.00000000E+00  0.00000000E+00
  0.00000000E+00  0.00000000E+00  0.00000000E+00  0.00000000E+00  0.00000000E+00
  0.00000000E+00  0.00000000E+00  0.00000000E+00  0.00000000E+00  0.00000000E+00
  0.00000000E+00  0.00000000E+00  0.00000000E+00  0.00000000E+00  0.00000000E+00
  0.00000000E+00  0.00000000E+00  0.00000000E+00  0.00000000E+00  0.00000000E+00
  0.00000000E+00  0.00000000E+00  0.00000000E+00  0.00000000E+00  0.00000000E+00
Coordinates of each shell                  R   N=         162
  1.65620610E+00 -4.58919383E-01  2.43991514E+00  1.65620610E+00 -4.58919383E-01
  2.43991514E+00  1.65620610E+00 -4.58919383E-01  2.43991514E+00  1.65620610E+00
 -4.58919383E-01  2.43991514E+00 -5.98578069E+00  1.85373900E-01  1.02866835E+00
 -5.98578069E+00  1.85373900E-01  1.02866835E+00 -5.98578069E+00  1.85373900E-01
  1.02866835E+00 -5.98578069E+00  1.85373900E-01  1.02866835E+00 -2.99329460E+00
  2.53346046E+00 -9.58264851E-01 -2.99329460E+00  2.53346046E+00 -9.58264851E-01
 -2.99329460E+00  2.53346046E+00 -9.58264851E-01 -2.99329460E+00  2.53346046E+00
 -9.58264851E-01  1.57679284E-01 -1.65066384E+00 -1.42572829E+00  1.57679284E-01
 -1.65066384E+00 -1.42572829E+00  1.57679284E-01 -1.65066384E+00 -1.42572829E+00
  1.57679284E-01 -1.65066384E+00 -1.42572829E+00  4.28614523E+00  4.11758586E-01
 -1.20573122E+00  4.28614523E+00  4.11758586E-01 -1.20573122E+00  4.28614523E+00
  4.11758586E-01 -1.20573122E+00  4.28614523E+00  4.11758586E-01 -1.20573122E+00
  1.95213460E+00 -5.66941105E-01  1.36408320E-01  1.95213460E+00 -5.66941105E-01
  1.36408320E-01  1.95213460E+00 -5.66941105E-01  1.36408320E-01  1.95213460E+00
 -5.66941105E-01  1.36408320E-01 -2.34228952E+00 -1.98402957E+00 -3.93985455E-01
 -2.34228952E+00 -1.98402957E+00 -3.93985455E-01 -2.34228952E+00 -1.98402957E+00
 -3.93985455E-01 -2.34228952E+00 -1.98402957E+00 -3.93985455E-01  6.49798440E+00
  7.81829386E-01  5.97105528E-01  6.49798440E+00  7.81829386E-01  5.97105528E-01
  6.49798440E+00  7.81829386E-01  5.97105528E-01  6.49798440E+00  7.81829386E-01
  5.97105528E-01 -3.73896946E+00  5.09092199E-01 -1.60854724E-01 -3.73896946E+00
  5.09092199E-01 -1.60854724E-01 -3.73896946E+00  5.09092199E-01 -1.60854724E-01
 -3.73896946E+00  5.09092199E-01 -1.60854724E-01  4.78298615E+00 -8.85469296E-01
 -2.74265752E+00  4.78298615E+00 -8.85469296E-01 -2.74265752E+00  3.76618525E+00
  2.21265817E+00 -2.09600619E+00  3.76618525E+00  2.21265817E+00 -2.09600619E+00
 -2.18251860E+00 -2.82938453E+00  1.48066519E+00 -2.18251860E+00 -2.82938453E+00
  1.48066519E+00 -3.44505596E+00 -3.27080610E+00 -1.57991081E+00 -3.44505596E+00
 -3.27080610E+00 -1.57991081E+00  2.42306518E-01 -1.13856474E+00 -3.27074750E+00
  2.42306518E-01 -1.13856474E+00 -3.27074750E+00  7.06372567E+00 -1.01582382E+00
  1.43907273E+00  7.06372567E+00 -1.01582382E+00  1.43907273E+00  8.12116789E+00
  1.57667296E+00 -4.03244156E-01  8.12116789E+00  1.57667296E+00 -4.03244156E-01
  5.96802142E+00  2.05407286E+00  2.12968812E+00  5.96802142E+00  2.05407286E+00
  2.12968812E+00 -6.76765140E+00  1.86171449E+00  1.10303435E+00 -6.76765140E+00
  1.86171449E+00  1.10303435E+00
Constraint Structure                       R   N=          54
  1.65620610E+00 -4.58919383E-01  2.43991514E+00 -5.98578069E+00  1.85373900E-01
  1.02866835E+00 -2.99329460E+00  2.53346046E+00 -9.58264851E-01  1.57679284E-01
 -1.65066384E+00 -1.42572829E+00  4.28614523E+00  4.11758586E-01 -1.20573122E+00
  1.95213460E+00 -5.66941105E-01  1.36408320E-01 -2.34228952E+00 -1.98402957E+00
 -3.93985455E-01  6.49798440E+00  7.81829386E-01  5.97105528E-01 -3.73896946E+00
  5.09092199E-01 -1.60854724E-01  4.78298615E+00 -8.85469296E-01 -2.74265752E+00
  3.76618525E+00  2.21265817E+00 -2.09600619E+00 -2.18251860E+00 -2.82938453E+00
  1.48066519E+00 -3.44505596E+00 -3.27080610E+00 -1.57991081E+00  2.42306518E-01
 -1.13856474E+00 -3.27074750E+00  7.06372567E+00 -1.01582382E+00  1.43907273E+00
  8.12116789E+00  1.57667296E+00 -4.03244156E-01  5.96802142E+00  2.05407286E+00
  2.12968812E+00 -6.76765140E+00  1.86171449E+00  1.10303435E+00
Num ILSW                                   I              100
ILSW                                       I   N=         100
           0           1           0           0           2           0
           0           0           0           0           0          -1
           0           0           0           0           0           0
           0           0           0           0           1           0
           1           0           0           0           0           0
           0           0      100000           0          -1           0
           0           0           0           0           0           0
           0           0           0           1           1           0
           0           0           1           0           0           0
           0           0           4          40           0           0
           0           0           0           0           0           0
           0           0           0           0           0           0
           0           0           0           0           0           0
           0           0           0           0           0           0
           0           0           0           0           0           0
           0           0           0           0           0           0
           0           0           0           0
Num RLSW                                   I               40
RLSW                                       R   N=          40
  1.00000000E+00  1.00000000E+00  1.00000000E+00  1.00000000E+00  1.00000000E+00
  0.00000000E+00  0.00000000E+00  1.00000000E+00  0.00000000E+00  0.00000000E+00
  0.00000000E+00  0.00000000E+00  1.00000000E+00  0.00000000E+00  0.00000000E+00
  0.00000000E+00  0.00000000E+00  1.00000000E+00  0.00000000E+00  0.00000000E+00
  0.00000000E+00  0.00000000E+00  1.00000000E+00  0.00000000E+00  0.00000000E+00
  0.00000000E+00  0.00000000E+00  1.00000000E+00  0.00000000E+00  0.00000000E+00
  0.00000000E+00  0.00000000E+00  0.00000000E+00  0.00000000E+00  0.00000000E+00
  0.00000000E+00  0.00000000E+00  0.00000000E+00  1.00000000E+00  1.00000000E+00
MxBond                                     I                4
NBond                                      I   N=          18
           1           2           1           3           4           3
           4           4           3           1           1           1
           1           1           1           1           1           1
IBond                                      I   N=          72
           6           0           0           0           9          18
           0           0           9           0           0           0
           6           7          14           0           6           8
          10          11           1           4           5           0
           4           9          12          13           5          15
          16          17           2           3           7           0
           5           0           0           0           5           0
           0           0           7           0           0           0
           7           0           0           0           4           0
           0           0           8           0           0           0
           8           0           0           0           8           0
           0           0           2           0           0           0
RBond                                      R   N=          72
  2.00000000E+00  0.00000000E+00  0.00000000E+00  0.00000000E+00  1.50000000E+00
  1.00000000E+00  0.00000000E+00  0.00000000E+00  2.00000000E+00  0.00000000E+00
  0.00000000E+00  0.00000000E+00  1.00000000E+00  1.00000000E+00  1.00000000E+00
  0.00000000E+00  1.00000000E+00  1.00000000E+00  1.00000000E+00  1.00000000E+00
  2.00000000E+00  1.00000000E+00  1.00000000E+00  0.00000000E+00  1.00000000E+00
  1.00000000E+00  1.00000000E+00  1.00000000E+00  1.00000000E+00  1.00000000E+00
  1.00000000E+00  1.00000000E+00  1.50000000E+00  2.00000000E+00  1.00000000E+00
  0.00000000E+00  1.00000000E+00  0.00000000E+00  0.00000000E+00  0.00000000E+00
  1.00000000E+00  0.00000000E+00  0.00000000E+00  0.00000000E+00  1.00000000E+00
  0.00000000E+00  0.00000000E+00  0.00000000E+00  1.00000000E+00  0.00000000E+00
  0.00000000E+00  0.00000000E+00  1.00000000E+00  0.00000000E+00  0.00000000E+00
  0.00000000E+00  1.00000000E+00  0.00000000E+00  0.00000000E+00  0.00000000E+00
  1.00000000E+00  0.00000000E+00  0.00000000E+00  0.00000000E+00  1.00000000E+00
  0.00000000E+00  0.00000000E+00  0.00000000E+00  1.00000000E+00  0.00000000E+00
  0.00000000E+00  0.00000000E+00
Virial Ratio                               R      2.002877759015084E+00
SCF Energy                                 R     -4.736535010723732E+02
MP2 Energy                                 R     -4.749880657802273E+02
Total Energy                               R     -4.749880657802273E+02
Post-SCF wavefunction norm                 R      1.679359847091746E+00
RMS Force                                  R      1.634800103801773E-07
RMS Density                                R      2.058459609771230E-09
External E-field                           R   N=          35
  0.00000000E+00  0.00000000E+00  0.00000000E+00  0.00000000E+00  0.00000000E+00
  0.00000000E+00  0.00000000E+00  0.00000000E+00  0.00000000E+00  0.00000000E+00
  0.00000000E+00  0.00000000E+00  0.00000000E+00  0.00000000E+00  0.00000000E+00
  0.00000000E+00  0.00000000E+00  0.00000000E+00  0.00000000E+00  0.00000000E+00
  0.00000000E+00  0.00000000E+00  0.00000000E+00  0.00000000E+00  0.00000000E+00
  0.00000000E+00  0.00000000E+00  0.00000000E+00  0.00000000E+00  0.00000000E+00
  0.00000000E+00  0.00000000E+00  0.00000000E+00  0.00000000E+00  0.00000000E+00
IOpCl                                      I                0
IROHF                                      I                0
Alpha Orbital Energies                     R   N=         153
 -2.06284255E+01 -2.05670195E+01 -2.05333180E+01 -1.55956900E+01 -1.13991556E+01
 -1.13564132E+01 -1.12898402E+01 -1.12429810E+01 -1.12176737E+01 -1.46616133E+00
 -1.38042747E+00 -1.36312993E+00 -1.23799703E+00 -1.06105483E+00 -1.00287469E+00
 -8.87520505E-01 -8.21776461E-01 -7.81590328E-01 -7.10376799E-01 -7.07022570E-01
 -6.94711419E-01 -6.49496496E-01 -6.42123844E-01 -6.27645231E-01 -5.99518455E-01
 -5.94414415E-01 -5.55963345E-01 -5.41163548E-01 -5.21767314E-01 -5.13747627E-01
 -4.91938626E-01 -4.83493234E-01 -4.62862643E-01 -4.26116175E-01 -4.04509610E-01
  1.74483660E-01  1.85526442E-01  2.17786317E-01  2.22090371E-01  2.51484876E-01
  2.70976750E-01  3.04614704E-01  3.12190497E-01  3.14544570E-01  3.27909737E-01
  3.49097452E-01  3.76341289E-01  4.07103142E-01  4.35528412E-01  4.45263740E-01
  4.79051412E-01  5.09941873E-01  5.42496133E-01  5.59502374E-01  7.07178400E-01
  7.38246492E-01  7.46616828E-01  7.57003965E-01  7.90971245E-01  7.98876904E-01
  8.13227101E-01  8.28379880E-01  8.60056628E-01  8.89751125E-01  9.27543914E-01
  9.47057455E-01  9.55691342E-01  9.80130173E-01  1.00791510E+00  1.01570803E+00
  1.04509493E+00  1.06557446E+00  1.08606284E+00  1.10531033E+00  1.11606959E+00
  1.13056811E+00  1.14703086E+00  1.16109036E+00  1.16616270E+00  1.18008883E+00
  1.19116947E+00  1.20265368E+00  1.22411833E+00  1.23634318E+00  1.24150208E+00
  1.24698818E+00  1.30356837E+00  1.32872007E+00  1.37002582E+00  1.42452045E+00
  1.43301381E+00  1.48472257E+00  1.51240626E+00  1.58177289E+00  1.61276809E+00
  1.65420803E+00  1.67401858E+00  1.74465775E+00  1.77327489E+00  1.79441485E+00
  1.83749207E+00  1.88559473E+00  1.94685070E+00  1.99119684E+00  2.01668819E+00
  2.04368380E+00  2.06106883E+00  2.09185851E+00  2.10055849E+00  2.11915579E+00
  2.13940677E+00  2.16838466E+00  2.19850087E+00  2.22204746E+00  2.25114445E+00
  2.28138961E+00  2.30055231E+00  2.31628926E+00  2.34444088E+00  2.37619138E+00
  2.39157326E+00  2.42002075E+00  2.51768481E+00  2.59500572E+00  2.62833009E+00
  2.65392818E+00  2.66284133E+00  2.70886159E+00  2.72550697E+00  2.75022706E+00
  2.78035980E+00  2.82347071E+00  2.84303253E+00  2.89597384E+00  2.95572371E+00
  3.01724106E+00  3.05451648E+00  3.06804175E+00  3.18409455E+00  3.26484387E+00
  3.34262805E+00  3.38454177E+00  3.45358069E+00  3.48511986E+00  4.18389114E+00
  4.43944362E+00  4.48378302E+00  4.52967760E+00  4.59186446E+00  4.64769796E+00
  4.79109939E+00  4.89334434E+00  4.95943203E+00
Alpha MO coefficients                      R   N=       23409
  1.87582886E-06  9.46683426E-06  1.53771614E-07  5.89968561E-07 -2.29569850E-06
 -4.36954622E-05 -9.00403515E-06 -4.12681332E-06  1.23968369E-05  4.71804716E-06
  8.42647168E-06  4.92060309E-06 -9.10669127E-07  8.09865410E-07 -3.79163466E-07
  9.94635791E-01  2.11751467E-02  4.95180724E-04  1.08054581E-03 -4.67306307E-04
  4.08268450E-03 -1.14023046E-04 -6.12157407E-04  1.80649558E-04 -4.09979013E-03
 -4.11300774E-03 -3.98919826E-03  5.02493541E-05  7.46717702E-05  8.86784740E-06
 -2.73173599E-04  3.89683718E-05  3.33364979E-05  1.13583983E-05 -2.05145705E-05
 -3.53807759E-04  1.00117133E-04  3.91922852E-05 -5.35911881E-05 -2.31723572E-05
  4.53408657E-05 -1.30716595E-05 -5.28103594E-05  2.50299952E-05  1.49275719E-05
  7.85658415E-06  3.59232609E-05 -6.55804962E-06 -5.99325661E-06  2.09212831E-06
 -3.11693222E-04  2.34624166E-04  4.35698247E-05 -5.64947434E-05  9.88293732E-07
  2.44377152E-05  1.27865714E-05  8.02071103E-06  1.12444391E-05  4.21859457E-07
  1.24240969E-06  6.59180442E-06 -4.83260161E-07 -2.07721952E-06 -1.04976527E-06
 -2.74031336E-05  1.29540458E-05  1.50333167E-05 -8.94034745E-06  1.29132021E-06
  1.99816735E-06 -2.63063534E-07 -2.14733923E-06  2.74732022E-06 -2.50157136E-07
  3.63413300E-06  1.51480292E-05 -8.63202068E-06  1.98950464E-06  4.19445995E-06
 -6.41779132E-05  7.19500428E-05  2.83495507E-05  5.25125917E-05  4.65891636E-06
  9.46771006E-06  1.45998188E-07 -1.89806227E-06 -3.64451964E-06 -5.42106236E-06
 -8.26053771E-06 -2.94023103E-06 -1.01774435E-05 -3.28969910E-06 -1.09603091E-06
  6.67493829E-04  2.69098729E-04  1.56986233E-04 -1.02653849E-04 -3.61360069E-05
 -2.53998703E-05 -3.37985071E-05  3.97354705E-05 -4.20295112E-07 -1.99192668E-05
  6.36688358E-07  3.24909662E-06 -1.75391512E-06  4.85541674E-07  5.96804271E-07
 -9.24097635E-06  1.26158117E-05 -3.38700597E-06 -3.52412672E-06 -4.14714371E-07
  1.68623502E-06  4.71398805E-07  1.47230377E-07 -8.51015910E-09 -1.44345946E-07
 -9.60238753E-07  4.01270344E-04 -2.76027910E-04 -4.28616622E-05  1.45435001E-04
 -1.95951484E-04 -5.51376535E-05  5.34453608E-04 -9.03672054E-05 -9.44924083E-05
  9.17925102E-07 -6.34651991E-05 -1.38602488E-05  2.59756860E-05 -4.31972142E-06
  4.46110916E-06 -2.33472830E-06 -5.43558347E-07  5.58718048E-07  1.73683715E-05
 -6.62927656E-05  1.49127562E-05 -1.98291004E-05  1.12439150E-05 -2.72129226E-05
  1.76274951E-07 -1.58656949E-06 -5.00886820E-08 -6.22268324E-06  1.96920448E-06
  3.57607769E-06  4.31765304E-04 -2.55030584E-04 -2.53342051E-05 -2.84930738E-05