5282708                                                                 
Freq      RMP2-FC                                                     6-31G(d)            
Number of atoms                            I               18
Info1-9                                    I   N=           9
          30          28        1002           0           0         100
           6           2           1
Charge                                     I                0
Multiplicity                               I                1
Number of electrons                        I               62
Number of alpha electrons                  I               31
Number of beta electrons                   I               31
Number of basis functions                  I              140
Number of independent functions            I              140
Number of point charges in /Mol/           I                0
Number of translation vectors              I                0
Atomic numbers                             I   N=          18
           8           8           6           6           6           6
           6           6           1           1           1           1
           1           1           1           1           1           1
Nuclear charges                            R   N=          18
  8.00000000E+00  8.00000000E+00  6.00000000E+00  6.00000000E+00  6.00000000E+00
  6.00000000E+00  6.00000000E+00  6.00000000E+00  1.00000000E+00  1.00000000E+00
  1.00000000E+00  1.00000000E+00  1.00000000E+00  1.00000000E+00  1.00000000E+00
  1.00000000E+00  1.00000000E+00  1.00000000E+00
Current cartesian coordinates              R   N=          54
 -6.09849186E+00 -7.15560327E-01 -2.96618810E-01 -3.45357009E+00  2.64432023E+00
 -4.94004783E-01  5.33387883E+00 -8.14632165E-01 -7.47012156E-01  2.64750231E+00
 -1.68980656E+00 -4.57230857E-01 -1.85338466E+00 -1.43358918E+00  9.30923022E-01
  7.82927230E-01 -4.28805443E-01  7.02952310E-01  5.91447450E+00  1.76491379E+00
  3.97583892E-01 -3.80088802E+00  4.14888908E-01 -3.63086431E-02  6.58757009E+00
 -2.24280748E+00  8.85251690E-02  5.80142860E+00 -7.94387238E-01 -2.76924824E+00
  2.21799673E+00 -3.52886149E+00 -1.28860125E+00 -2.07836269E+00 -3.22282653E+00
 -8.46533767E-02 -2.34602158E+00 -1.82955595E+00  2.91026022E+00  1.12052446E+00
  1.41781452E+00  1.53482154E+00  7.89741817E+00  2.25980363E+00  9.45403955E-02
  4.74918909E+00  3.23857488E+00 -4.62113828E-01  5.56043095E+00  1.77368120E+00
  2.43336387E+00 -7.24073930E+00  6.20669162E-01 -8.77351155E-01
Force Field                                I                0
Int Atom Types                             I   N=          18
           0           0           0           0           0           0
           0           0           0           0           0           0
           0           0           0           0           0           0
MM charges                                 R   N=          18
  0.00000000E+00  0.00000000E+00  0.00000000E+00  0.00000000E+00  0.00000000E+00
  0.00000000E+00  0.00000000E+00  0.00000000E+00  0.00000000E+00  0.00000000E+00
  0.00000000E+00  0.00000000E+00  0.00000000E+00  0.00000000E+00  0.00000000E+00
  0.00000000E+00  0.00000000E+00  0.00000000E+00
Integer atomic weights                     I   N=          18
          16          16          12          12          12          12
          12          12           1           1           1           1
           1           1           1           1           1           1
Real atomic weights                        R   N=          18
  1.59949146E+01  1.59949146E+01  1.20000000E+01  1.20000000E+01  1.20000000E+01
  1.20000000E+01  1.20000000E+01  1.20000000E+01  1.00782504E+00  1.00782504E+00
  1.00782504E+00  1.00782504E+00  1.00782504E+00  1.00782504E+00  1.00782504E+00
  1.00782504E+00  1.00782504E+00  1.00782504E+00
Atom fragment info                         I   N=          18
           0           0           0           0           0           0
           0           0           0           0           0           0
           0           0           0           0           0           0
Atom residue num                           I   N=          18
           0           0           0           0           0           0
           0           0           0           0           0           0
           0           0           0           0           0           0
Nuclear spins                              I   N=          18
           0           0           0           0           0           0
           0           0           1           1           1           1
           1           1           1           1           1           1
Nuclear ZEff                               R   N=          18
 -5.60000000E+00 -5.60000000E+00 -3.60000000E+00 -3.60000000E+00 -3.60000000E+00
 -3.60000000E+00 -3.60000000E+00 -3.60000000E+00 -1.00000000E+00 -1.00000000E+00
 -1.00000000E+00 -1.00000000E+00 -1.00000000E+00 -1.00000000E+00 -1.00000000E+00
 -1.00000000E+00 -1.00000000E+00 -1.00000000E+00
Nuclear QMom                               R   N=          18
  0.00000000E+00  0.00000000E+00  0.00000000E+00  0.00000000E+00  0.00000000E+00
  0.00000000E+00  0.00000000E+00  0.00000000E+00  0.00000000E+00  0.00000000E+00
  0.00000000E+00  0.00000000E+00  0.00000000E+00  0.00000000E+00  0.00000000E+00
  0.00000000E+00  0.00000000E+00  0.00000000E+00
Nuclear GFac                               R   N=          18
  0.00000000E+00  0.00000000E+00  0.00000000E+00  0.00000000E+00  0.00000000E+00
  0.00000000E+00  0.00000000E+00  0.00000000E+00  2.79284600E+00  2.79284600E+00
  2.79284600E+00  2.79284600E+00  2.79284600E+00  2.79284600E+00  2.79284600E+00
  2.79284600E+00  2.79284600E+00  2.79284600E+00
MicOpt                                     I   N=          18
          -1          -1          -1          -1          -1          -1
          -1          -1          -1          -1          -1          -1
          -1          -1          -1          -1          -1          -1
Number of contracted shells                I               52
Number of primitive shells                 I              128
Pure/Cartesian d shells                    I                1
Pure/Cartesian f shells                    I                0
Highest angular momentum                   I                2
Largest degree of contraction              I                6
Shell types                                I   N=          52
           0          -1          -1           2           0          -1
          -1           2           0          -1          -1           2
           0          -1          -1           2           0          -1
          -1           2           0          -1          -1           2
           0          -1          -1           2           0          -1
          -1           2           0           0           0           0
           0           0           0           0           0           0
           0           0           0           0           0           0
           0           0           0           0
Number of primitives per shell             I   N=          52
           6           3           1           1           6           3
           1           1           6           3           1           1
           6           3           1           1           6           3
           1           1           6           3           1           1
           6           3           1           1           6           3
           1           1           3           1           3           1
           3           1           3           1           3           1
           3           1           3           1           3           1
           3           1           3           1
Shell to atom map                          I   N=          52
           1           1           1           1           2           2
           2           2           3           3           3           3
           4           4           4           4           5           5
           5           5           6           6           6           6
           7           7           7           7           8           8
           8           8           9           9          10          10
          11          11          12          12          13          13
          14          14          15          15          16          16
          17          17          18          18
Primitive exponents                        R   N=         128
  5.48467166E+03  8.25234946E+02  1.88046958E+02  5.29645000E+01  1.68975704E+01
  5.79963534E+00  1.55396162E+01  3.59993359E+00  1.01376175E+00  2.70005823E-01
  8.00000000E-01  5.48467166E+03  8.25234946E+02  1.88046958E+02  5.29645000E+01
  1.68975704E+01  5.79963534E+00  1.55396162E+01  3.59993359E+00  1.01376175E+00
  2.70005823E-01  8.00000000E-01  3.04752488E+03  4.57369518E+02  1.03948685E+02
  2.92101553E+01  9.28666296E+00  3.16392696E+00  7.86827235E+00  1.88128854E+00
  5.44249258E-01  1.68714478E-01  8.00000000E-01  3.04752488E+03  4.57369518E+02
  1.03948685E+02  2.92101553E+01  9.28666296E+00  3.16392696E+00  7.86827235E+00
  1.88128854E+00  5.44249258E-01  1.68714478E-01  8.00000000E-01  3.04752488E+03
  4.57369518E+02  1.03948685E+02  2.92101553E+01  9.28666296E+00  3.16392696E+00
  7.86827235E+00  1.88128854E+00  5.44249258E-01  1.68714478E-01  8.00000000E-01
  3.04752488E+03  4.57369518E+02  1.03948685E+02  2.92101553E+01  9.28666296E+00
  3.16392696E+00  7.86827235E+00  1.88128854E+00  5.44249258E-01  1.68714478E-01
  8.00000000E-01  3.04752488E+03  4.57369518E+02  1.03948685E+02  2.92101553E+01
  9.28666296E+00  3.16392696E+00  7.86827235E+00  1.88128854E+00  5.44249258E-01
  1.68714478E-01  8.00000000E-01  3.04752488E+03  4.57369518E+02  1.03948685E+02
  2.92101553E+01  9.28666296E+00  3.16392696E+00  7.86827235E+00  1.88128854E+00
  5.44249258E-01  1.68714478E-01  8.00000000E-01  1.87311370E+01  2.82539436E+00
  6.40121692E-01  1.61277759E-01  1.87311370E+01  2.82539436E+00  6.40121692E-01
  1.61277759E-01  1.87311370E+01  2.82539436E+00  6.40121692E-01  1.61277759E-01
  1.87311370E+01  2.82539436E+00  6.40121692E-01  1.61277759E-01  1.87311370E+01
  2.82539436E+00  6.40121692E-01  1.61277759E-01  1.87311370E+01  2.82539436E+00
  6.40121692E-01  1.61277759E-01  1.87311370E+01  2.82539436E+00  6.40121692E-01
  1.61277759E-01  1.87311370E+01  2.82539436E+00  6.40121692E-01  1.61277759E-01
  1.87311370E+01  2.82539436E+00  6.40121692E-01  1.61277759E-01  1.87311370E+01
  2.82539436E+00  6.40121692E-01  1.61277759E-01
Contraction coefficients                   R   N=         128
  1.83107443E-03  1.39501722E-02  6.84450781E-02  2.32714336E-01  4.70192898E-01
  3.58520853E-01 -1.10777550E-01 -1.48026263E-01  1.13076702E+00  1.00000000E+00
  1.00000000E+00  1.83107443E-03  1.39501722E-02  6.84450781E-02  2.32714336E-01
  4.70192898E-01  3.58520853E-01 -1.10777550E-01 -1.48026263E-01  1.13076702E+00
  1.00000000E+00  1.00000000E+00  1.83473713E-03  1.40373228E-02  6.88426223E-02
  2.32184443E-01  4.67941348E-01  3.62311985E-01 -1.19332420E-01 -1.60854152E-01
  1.14345644E+00  1.00000000E+00  1.00000000E+00  1.83473713E-03  1.40373228E-02
  6.88426223E-02  2.32184443E-01  4.67941348E-01  3.62311985E-01 -1.19332420E-01
 -1.60854152E-01  1.14345644E+00  1.00000000E+00  1.00000000E+00  1.83473713E-03
  1.40373228E-02  6.88426223E-02  2.32184443E-01  4.67941348E-01  3.62311985E-01
 -1.19332420E-01 -1.60854152E-01  1.14345644E+00  1.00000000E+00  1.00000000E+00
  1.83473713E-03  1.40373228E-02  6.88426223E-02  2.32184443E-01  4.67941348E-01
  3.62311985E-01 -1.19332420E-01 -1.60854152E-01  1.14345644E+00  1.00000000E+00
  1.00000000E+00  1.83473713E-03  1.40373228E-02  6.88426223E-02  2.32184443E-01
  4.67941348E-01  3.62311985E-01 -1.19332420E-01 -1.60854152E-01  1.14345644E+00
  1.00000000E+00  1.00000000E+00  1.83473713E-03  1.40373228E-02  6.88426223E-02
  2.32184443E-01  4.67941348E-01  3.62311985E-01 -1.19332420E-01 -1.60854152E-01
  1.14345644E+00  1.00000000E+00  1.00000000E+00  3.34946043E-02  2.34726953E-01
  8.13757326E-01  1.00000000E+00  3.34946043E-02  2.34726953E-01  8.13757326E-01
  1.00000000E+00  3.34946043E-02  2.34726953E-01  8.13757326E-01  1.00000000E+00
  3.34946043E-02  2.34726953E-01  8.13757326E-01  1.00000000E+00  3.34946043E-02
  2.34726953E-01  8.13757326E-01  1.00000000E+00  3.34946043E-02  2.34726953E-01
  8.13757326E-01  1.00000000E+00  3.34946043E-02  2.34726953E-01  8.13757326E-01
  1.00000000E+00  3.34946043E-02  2.34726953E-01  8.13757326E-01  1.00000000E+00
  3.34946043E-02  2.34726953E-01  8.13757326E-01  1.00000000E+00  3.34946043E-02
  2.34726953E-01  8.13757326E-01  1.00000000E+00
P(S=P) Contraction coefficients            R   N=         128
  0.00000000E+00  0.00000000E+00  0.00000000E+00  0.00000000E+00  0.00000000E+00
  0.00000000E+00  7.08742682E-02  3.39752839E-01  7.27158577E-01  1.00000000E+00
  0.00000000E+00  0.00000000E+00  0.00000000E+00  0.00000000E+00  0.00000000E+00
  0.00000000E+00  0.00000000E+00  7.08742682E-02  3.39752839E-01  7.27158577E-01
  1.00000000E+00  0.00000000E+00  0.00000000E+00  0.00000000E+00  0.00000000E+00
  0.00000000E+00  0.00000000E+00  0.00000000E+00  6.89990666E-02  3.16423961E-01
  7.44308291E-01  1.00000000E+00  0.00000000E+00  0.00000000E+00  0.00000000E+00
  0.00000000E+00  0.00000000E+00  0.00000000E+00  0.00000000E+00  6.89990666E-02
  3.16423961E-01  7.44308291E-01  1.00000000E+00  0.00000000E+00  0.00000000E+00
  0.00000000E+00  0.00000000E+00  0.00000000E+00  0.00000000E+00  0.00000000E+00
  6.89990666E-02  3.16423961E-01  7.44308291E-01  1.00000000E+00  0.00000000E+00
  0.00000000E+00  0.00000000E+00  0.00000000E+00  0.00000000E+00  0.00000000E+00
  0.00000000E+00  6.89990666E-02  3.16423961E-01  7.44308291E-01  1.00000000E+00
  0.00000000E+00  0.00000000E+00  0.00000000E+00  0.00000000E+00  0.00000000E+00
  0.00000000E+00  0.00000000E+00  6.89990666E-02  3.16423961E-01  7.44308291E-01
  1.00000000E+00  0.00000000E+00  0.00000000E+00  0.00000000E+00  0.00000000E+00
  0.00000000E+00  0.00000000E+00  0.00000000E+00  6.89990666E-02  3.16423961E-01
  7.44308291E-01  1.00000000E+00  0.00000000E+00  0.00000000E+00  0.00000000E+00
  0.00000000E+00  0.00000000E+00  0.00000000E+00  0.00000000E+00  0.00000000E+00
  0.00000000E+00  0.00000000E+00  0.00000000E+00  0.00000000E+00  0.00000000E+00
  0.00000000E+00  0.00000000E+00  0.00000000E+00  0.00000000E+00  0.00000000E+00
  0.00000000E+00  0.00000000E+00  0.00000000E+00  0.00000000E+00  0.00000000E+00
  0.00000000E+00  0.00000000E+00  0.00000000E+00  0.00000000E+00  0.00000000E+00
  0.00000000E+00  0.00000000E+00  0.00000000E+00  0.00000000E+00  0.00000000E+00
  0.00000000E+00  0.00000000E+00  0.00000000E+00  0.00000000E+00  0.00000000E+00
  0.00000000E+00  0.00000000E+00  0.00000000E+00
Coordinates of each shell                  R   N=         156
 -6.09849186E+00 -7.15560327E-01 -2.96618810E-01 -6.09849186E+00 -7.15560327E-01
 -2.96618810E-01 -6.09849186E+00 -7.15560327E-01 -2.96618810E-01 -6.09849186E+00
 -7.15560327E-01 -2.96618810E-01 -3.45357009E+00  2.64432023E+00 -4.94004783E-01
 -3.45357009E+00  2.64432023E+00 -4.94004783E-01 -3.45357009E+00  2.64432023E+00
 -4.94004783E-01 -3.45357009E+00  2.64432023E+00 -4.94004783E-01  5.33387883E+00
 -8.14632165E-01 -7.47012156E-01  5.33387883E+00 -8.14632165E-01 -7.47012156E-01
  5.33387883E+00 -8.14632165E-01 -7.47012156E-01  5.33387883E+00 -8.14632165E-01
 -7.47012156E-01  2.64750231E+00 -1.68980656E+00 -4.57230857E-01  2.64750231E+00
 -1.68980656E+00 -4.57230857E-01  2.64750231E+00 -1.68980656E+00 -4.57230857E-01
  2.64750231E+00 -1.68980656E+00 -4.57230857E-01 -1.85338466E+00 -1.43358918E+00
  9.30923022E-01 -1.85338466E+00 -1.43358918E+00  9.30923022E-01 -1.85338466E+00
 -1.43358918E+00  9.30923022E-01 -1.85338466E+00 -1.43358918E+00  9.30923022E-01
  7.82927230E-01 -4.28805443E-01  7.02952310E-01  7.82927230E-01 -4.28805443E-01
  7.02952310E-01  7.82927230E-01 -4.28805443E-01  7.02952310E-01  7.82927230E-01
 -4.28805443E-01  7.02952310E-01  5.91447450E+00  1.76491379E+00  3.97583892E-01
  5.91447450E+00  1.76491379E+00  3.97583892E-01  5.91447450E+00  1.76491379E+00
  3.97583892E-01  5.91447450E+00  1.76491379E+00  3.97583892E-01 -3.80088802E+00
  4.14888908E-01 -3.63086431E-02 -3.80088802E+00  4.14888908E-01 -3.63086431E-02
 -3.80088802E+00  4.14888908E-01 -3.63086431E-02 -3.80088802E+00  4.14888908E-01
 -3.63086431E-02  6.58757009E+00 -2.24280748E+00  8.85251690E-02  6.58757009E+00
 -2.24280748E+00  8.85251690E-02  5.80142860E+00 -7.94387238E-01 -2.76924824E+00
  5.80142860E+00 -7.94387238E-01 -2.76924824E+00  2.21799673E+00 -3.52886149E+00
 -1.28860125E+00  2.21799673E+00 -3.52886149E+00 -1.28860125E+00 -2.07836269E+00
 -3.22282653E+00 -8.46533767E-02 -2.07836269E+00 -3.22282653E+00 -8.46533767E-02
 -2.34602158E+00 -1.82955595E+00  2.91026022E+00 -2.34602158E+00 -1.82955595E+00
  2.91026022E+00  1.12052446E+00  1.41781452E+00  1.53482154E+00  1.12052446E+00
  1.41781452E+00  1.53482154E+00  7.89741817E+00  2.25980363E+00  9.45403955E-02
  7.89741817E+00  2.25980363E+00  9.45403955E-02  4.74918909E+00  3.23857488E+00
 -4.62113828E-01  4.74918909E+00  3.23857488E+00 -4.62113828E-01  5.56043095E+00
  1.77368120E+00  2.43336387E+00  5.56043095E+00  1.77368120E+00  2.43336387E+00
 -7.24073930E+00  6.20669162E-01 -8.77351155E-01 -7.24073930E+00  6.20669162E-01
 -8.77351155E-01
Constraint Structure                       R   N=          54
 -6.09849186E+00 -7.15560327E-01 -2.96618810E-01 -3.45357009E+00  2.64432023E+00
 -4.94004783E-01  5.33387883E+00 -8.14632165E-01 -7.47012156E-01  2.64750231E+00
 -1.68980656E+00 -4.57230857E-01 -1.85338466E+00 -1.43358918E+00  9.30923022E-01
  7.82927230E-01 -4.28805443E-01  7.02952310E-01  5.91447450E+00  1.76491379E+00
  3.97583892E-01 -3.80088802E+00  4.14888908E-01 -3.63086431E-02  6.58757009E+00
 -2.24280748E+00  8.85251690E-02  5.80142860E+00 -7.94387238E-01 -2.76924824E+00
  2.21799673E+00 -3.52886149E+00 -1.28860125E+00 -2.07836269E+00 -3.22282653E+00
 -8.46533767E-02 -2.34602158E+00 -1.82955595E+00  2.91026022E+00  1.12052446E+00
  1.41781452E+00  1.53482154E+00  7.89741817E+00  2.25980363E+00  9.45403955E-02
  4.74918909E+00  3.23857488E+00 -4.62113828E-01  5.56043095E+00  1.77368120E+00
  2.43336387E+00 -7.24073930E+00  6.20669162E-01 -8.77351155E-01
Num ILSW                                   I              100
ILSW                                       I   N=         100
           0           1           0           1           2           0
           0           0           0           0           0          -1
           0           0           0           0           0           0
           0           0           0           0           1           0
           1           0           0           0           0           0
           0           0      100000           0          -1           0
           0           0           0           0           0           0
           0           0           0           1           1           0
           0           0           1           0           0           0
           0           0           4          40           0           0
           0           0           0           0           0           0
           0           0           0           0           0           0
           0           0           0           0           0           0
           0           0           0           0           0           0
           0           0           0           0           0           0
           0           0           0           0           0           0
           0           0           0           0
Num RLSW                                   I               40
RLSW                                       R   N=          40
  1.00000000E+00  1.00000000E+00  1.00000000E+00  1.00000000E+00  1.00000000E+00
  0.00000000E+00  0.00000000E+00  1.00000000E+00  0.00000000E+00  0.00000000E+00
  0.00000000E+00  0.00000000E+00  1.00000000E+00  0.00000000E+00  0.00000000E+00
  0.00000000E+00  0.00000000E+00  1.00000000E+00  0.00000000E+00  0.00000000E+00
  0.00000000E+00  0.00000000E+00  1.00000000E+00  0.00000000E+00  0.00000000E+00
  0.00000000E+00  0.00000000E+00  1.00000000E+00  0.00000000E+00  0.00000000E+00
  0.00000000E+00  0.00000000E+00  0.00000000E+00  0.00000000E+00  0.00000000E+00
  0.00000000E+00  0.00000000E+00  0.00000000E+00  1.00000000E+00  1.00000000E+00
MxBond                                     I                4
NBond                                      I   N=          18
           2           1           4           3           4           3
           4           3           1           1           1           1
           1           1           1           1           1           1
IBond                                      I   N=          72
           8          18           0           0           8           0
           0           0           4           7           9          10
           3           6          11           0           6           8
          12          13           4           5          14           0
           3          15          16          17           1           2
           5           0           3           0           0           0
           3           0           0           0           4           0
           0           0           5           0           0           0
           5           0           0           0           6           0
           0           0           7           0           0           0
           7           0           0           0           7           0
           0           0           1           0           0           0
RBond                                      R   N=          72
  1.50000000E+00  1.00000000E+00  0.00000000E+00  0.00000000E+00  2.00000000E+00
  0.00000000E+00  0.00000000E+00  0.00000000E+00  1.00000000E+00  1.00000000E+00
  1.00000000E+00  1.00000000E+00  1.00000000E+00  2.00000000E+00  1.00000000E+00
  0.00000000E+00  1.00000000E+00  1.00000000E+00  1.00000000E+00  1.00000000E+00
  2.00000000E+00  1.00000000E+00  1.00000000E+00  0.00000000E+00  1.00000000E+00
  1.00000000E+00  1.00000000E+00  1.00000000E+00  1.50000000E+00  2.00000000E+00
  1.00000000E+00  0.00000000E+00  1.00000000E+00  0.00000000E+00  0.00000000E+00
  0.00000000E+00  1.00000000E+00  0.00000000E+00  0.00000000E+00  0.00000000E+00
  1.00000000E+00  0.00000000E+00  0.00000000E+00  0.00000000E+00  1.00000000E+00
  0.00000000E+00  0.00000000E+00  0.00000000E+00  1.00000000E+00  0.00000000E+00
  0.00000000E+00  0.00000000E+00  1.00000000E+00  0.00000000E+00  0.00000000E+00
  0.00000000E+00  1.00000000E+00  0.00000000E+00  0.00000000E+00  0.00000000E+00
  1.00000000E+00  0.00000000E+00  0.00000000E+00  0.00000000E+00  1.00000000E+00
  0.00000000E+00  0.00000000E+00  0.00000000E+00  1.00000000E+00  0.00000000E+00
  0.00000000E+00  0.00000000E+00
Virial Ratio                               R      2.002477325236168E+00
SCF Energy                                 R     -3.827549788718432E+02
MP2 Energy                                 R     -3.838804546392196E+02
Total Energy                               R     -3.838804546392196E+02
Post-SCF wavefunction norm                 R      1.650927268839558E+00
RMS Force                                  R      1.635488346348156E-06
RMS Density                                R      1.743579500207856E-09
External E-field                           R   N=          35
  0.00000000E+00  0.00000000E+00  0.00000000E+00  0.00000000E+00  0.00000000E+00
  0.00000000E+00  0.00000000E+00  0.00000000E+00  0.00000000E+00  0.00000000E+00
  0.00000000E+00  0.00000000E+00  0.00000000E+00  0.00000000E+00  0.00000000E+00
  0.00000000E+00  0.00000000E+00  0.00000000E+00  0.00000000E+00  0.00000000E+00
  0.00000000E+00  0.00000000E+00  0.00000000E+00  0.00000000E+00  0.00000000E+00
  0.00000000E+00  0.00000000E+00  0.00000000E+00  0.00000000E+00  0.00000000E+00
  0.00000000E+00  0.00000000E+00  0.00000000E+00  0.00000000E+00  0.00000000E+00
IOpCl                                      I                0
IROHF                                      I                0
Alpha Orbital Energies                     R   N=         140
 -2.06195662E+01 -2.05578314E+01 -1.13924333E+01 -1.12523438E+01 -1.12344482E+01
 -1.12311482E+01 -1.12290077E+01 -1.12147412E+01 -1.45653064E+00 -1.35322874E+00
 -1.10034576E+00 -1.04360811E+00 -9.58383521E-01 -8.68572824E-01 -8.04048764E-01
 -7.37189357E-01 -6.97053455E-01 -6.77869160E-01 -6.51863332E-01 -6.21644725E-01
 -6.11393781E-01 -5.96130765E-01 -5.76342420E-01 -5.51197225E-01 -5.26343661E-01
 -4.97475006E-01 -4.90524713E-01 -4.80362275E-01 -4.74143267E-01 -4.49367430E-01
 -3.49642699E-01  1.78125675E-01  1.86582369E-01  2.27526298E-01  2.42167554E-01
  2.53380739E-01  2.69348635E-01  3.08339809E-01  3.12551425E-01  3.16453270E-01
  3.39369072E-01  3.45123440E-01  3.55687239E-01  4.02473400E-01  4.19545751E-01
  4.27945049E-01  4.72735603E-01  5.11949937E-01  5.36781129E-01  6.02662271E-01
  6.94408190E-01  7.29022366E-01  7.43805551E-01  7.65552160E-01  7.96410564E-01
  8.10049182E-01  8.14731588E-01  8.30594241E-01  8.53787092E-01  9.03992393E-01
  9.24944569E-01  9.28394389E-01  9.45948943E-01  9.76597488E-01  1.00811140E+00
  1.05923673E+00  1.06133965E+00  1.08012149E+00  1.10923453E+00  1.11145985E+00
  1.11853444E+00  1.13685790E+00  1.14177244E+00  1.15253054E+00  1.17587628E+00
  1.19326771E+00  1.20452131E+00  1.20807800E+00  1.21489527E+00  1.23006978E+00
  1.24407992E+00  1.26387793E+00  1.35278169E+00  1.37656072E+00  1.39496131E+00
  1.42020689E+00  1.50038676E+00  1.53162100E+00  1.63393201E+00  1.66764769E+00
  1.69728684E+00  1.75868621E+00  1.80475640E+00  1.82425907E+00  1.87172211E+00
  1.91463196E+00  1.95701453E+00  2.00191859E+00  2.02788911E+00  2.06564233E+00
  2.08810139E+00  2.10608847E+00  2.11318776E+00  2.18240830E+00  2.21699385E+00
  2.24081928E+00  2.25414486E+00  2.26116695E+00  2.29699753E+00  2.36597043E+00
  2.37410995E+00  2.42240614E+00  2.47926301E+00  2.58313304E+00  2.61821540E+00
  2.63198779E+00  2.65105964E+00  2.67395642E+00  2.70539783E+00  2.72236372E+00
  2.77934837E+00  2.79253596E+00  2.82088531E+00  2.89625806E+00  2.98433846E+00
  3.01178881E+00  3.07158785E+00  3.19999357E+00  3.25010881E+00  3.31689255E+00
  3.36358987E+00  3.47161190E+00  4.23927281E+00  4.48618727E+00  4.55747895E+00
  4.60943277E+00  4.64466026E+00  4.76881574E+00  4.91162979E+00  4.95441860E+00
Alpha MO coefficients                      R   N=       19600
  9.94637879E-01  2.11657008E-02  2.92011148E-04  1.21564089E-03 -2.18521387E-04
  4.08635944E-03  1.90351082E-06 -6.27996960E-04  1.47655409E-04 -4.14330110E-03
 -4.08759803E-03 -3.97008340E-03  1.60246461E-05 -5.46517286E-05  4.06315333E-05
 -2.78686395E-04  3.61499333E-05  3.37235806E-05  2.67719480E-05  3.11665814E-06
 -3.56081501E-04  8.69707965E-05  7.70518281E-05 -5.08860461E-06 -2.17673537E-06
  5.10369664E-07  3.81209462E-06 -6.53120225E-05  1.53876212E-05 -1.50900989E-05
  4.52187233E-07  3.71955499E-07 -3.12200604E-06  1.39189796E-06  2.18011618E-06
  5.27840780E-05 -1.39747770E-05  2.82969459E-06  1.06624766E-06  1.85831113E-07
  2.04089224E-06  2.84649740E-06 -5.52463228E-07  7.44158236E-07 -3.11424464E-07
  1.23862153E-06  2.90192668E-06 -4.33563780E-06  2.10778424E-06  1.04456438E-06
 -1.79217044E-05 -6.12432405E-05 -5.29687141E-05 -6.62383316E-06  5.46259770E-06
 -5.02046472E-07  4.66220679E-06 -1.90877621E-06 -1.66383806E-06 -2.18685163E-06
 -1.03085532E-05 -7.37592317E-06 -1.46267537E-05 -3.35434994E-06  4.77830870E-06
  7.27257525E-04  2.70404737E-04  1.73946369E-04 -8.74322279E-05 -5.73834519E-05
 -1.55908357E-05 -3.70670361E-05  2.43976357E-05 -2.53132389E-05 -8.78546821E-06
  6.19093061E-06  3.88621310E-05  3.92591309E-07 -4.44587529E-06  2.97126535E-06
 -4.20115803E-04  2.78962350E-04  1.35230299E-04 -4.35322603E-06 -1.33740621E-05
  6.60404687E-06  1.25574522E-05 -3.42694535E-06  3.32481480E-08 -6.88397863E-06
  2.14451540E-06  8.09994739E-06 -6.39339555E-06 -1.84299579E-06  9.07126464E-07
 -3.75760811E-05  3.68061080E-05  1.36295046E-05 -2.34299605E-06  4.47598975E-06
  2.73109770E-06  3.30754669E-06 -5.32918109E-07 -7.20564986E-07 -3.68004655E-07
 -2.58143928E-06  3.84325144E-04 -2.83572825E-04 -1.41494290E-04 -3.05085993E-05
 -1.56309999E-04 -1.29509822E-04  4.96691478E-04 -1.34183940E-04 -7.57816868E-05
 -1.36806532E-05 -4.83233570E-05 -3.36217321E-05  3.42922909E-06 -2.15889442E-05
 -1.39236595E-06  1.45565164E-06 -2.35521872E-06 -8.63097264E-07 -6.29907040E-06
 -1.78101043E-05  2.69533803E-05 -9.78306180E-05  1.01228844E-05 -5.46836560E-06
  7.30109611E-06 -4.23144677E-05 -1.68921278E-06 -1.68510365E-05  4.68825128E-06
  7.13118073E-06  4.24037461E-06  7.18106836E-06  4.30076293E-04 -2.48627545E-04
  2.76265123E-04 -5.94632786E-05 -1.84408663E-05 -3.60383889E-05  4.15941845E-06
  2.49689336E-04  9.07751786E-05  6.21985836E-05  6.21058520E-06  3.77264745E-05
 -1.00994395E-04 -7.17995419E-05 -3.55665056E-05  4.05065433E-05 -3.06161628E-06
  9.94692755E-01  2.09931296E-02 -2.81536590E-04 -1.51965188E-03  3.07298166E-04
  4.46543984E-03 -6.44817559E-06  2.71733124E-05 -1.31659679E-05 -3.91316269E-03
 -3.61756526E-03 -4.09489128E-03  6.91370264E-05  4.13001040E-05 -1.26572611E-04
  6.86263478E-07  1.90702436E-06 -3.06956926E-06  1.35271533E-06  4.59923458E-08
  2.40610082E-05 -7.47617514E-07 -2.28808205E-05  1.04519559E-05  8.33286289E-07
  2.24489371E-06  1.58514127E-06  1.39335075E-06  2.79050503E-07 -2.23711303E-06
 -1.28237783E-06 -3.85353011E-06  6.49403113E-06 -3.64943246E-06  3.49985355E-06
  2.78920567E-05 -7.57553741E-05 -1.80841045E-05 -3.06545373E-05 -1.27371120E-06
 -2.08997317E-06 -6.28189551E-06  3.79640757E-07  1.66836279E-06 -3.47229474E-06