
    -----------------------------------------------------------------------
          Psi4: An Open-Source Ab Initio Electronic Structure Package
                               Psi4 1.3.2 release

                         Git: Rev {HEAD} ecbda83 


    R. M. Parrish, L. A. Burns, D. G. A. Smith, A. C. Simmonett,
    A. E. DePrince III, E. G. Hohenstein, U. Bozkaya, A. Yu. Sokolov,
    R. Di Remigio, R. M. Richard, J. F. Gonthier, A. M. James,
    H. R. McAlexander, A. Kumar, M. Saitow, X. Wang, B. P. Pritchard,
    P. Verma, H. F. Schaefer III, K. Patkowski, R. A. King, E. F. Valeev,
    F. A. Evangelista, J. M. Turney, T. D. Crawford, and C. D. Sherrill,
    J. Chem. Theory Comput. 13(7) pp 3185--3197 (2017).
    (doi: 10.1021/acs.jctc.7b00174)


                         Additional Contributions by
    P. Kraus, H. Kruse, M. H. Lechner, M. C. Schieber, R. A. Shaw,
    A. Alenaizan, R. Galvelis, Z. L. Glick, S. Lehtola, and J. P. Misiewicz

    -----------------------------------------------------------------------


    Psi4 started on: Tuesday, 03 November 2020 06:59AM

    Process ID: 39044
    Host:       node37.bme.utexas.edu
    PSIDATADIR: /home/xy3866/psi4conda/share/psi4
    Memory:     500.0 MiB
    Threads:    8
    
  ==> Input File <==

--------------------------------------------------------------------------
#psi4
#
memory 32 gb

molecule  {
0 1
  O       -2.3409430    -1.1152500    -0.1201430
  C       -1.5156830    -0.0261920     0.3177710
  C       -0.1329157    -0.2627971    -0.3483068
  C        2.3348890    -0.4444240    -0.1997250
  C        0.9740050    -0.2811540     0.4036300
  C       -2.1103090     1.3065560    -0.1212920
  C        3.2132980     0.7871720     0.0273270
  H       -1.4208040    -0.0402330     1.4151950
  H       -0.1609320    -0.3839550    -1.3725900
  H        2.2351040    -0.6390970    -1.2733090
  H        2.8261900    -1.3231820     0.2368400
  H        0.9937158    -0.1636516     1.4890518
  H       -1.4764410     2.1380570     0.1977940
  H       -2.2008650     1.3268630    -1.2105240
  H       -3.1068830     1.4512670     0.3117270
  H        3.3300870     0.9922950     1.0954650
  H        2.7636150     1.6688370    -0.4368240
  H        4.2103780     0.6456890    -0.3991480
  H       -3.2411570    -0.9446250     0.2124840
units angstrom
no_reorient  #important for SAPT in psi4, default
symmetry c1  #important for SAPT in psi4, default
}

set PROPERTIES_ORIGIN ["COM"]
properties('MP2/aug-cc-pvtz', properties = ['dipole'])
--------------------------------------------------------------------------

  Memory set to  29.802 GiB by Python driver.
    SCF Algorithm Type (re)set to DF.

*** tstart() called on node37.bme.utexas.edu
*** at Tue Nov  3 06:59:08 2020

   => Loading Basis Set <=

    Name: AUG-CC-PVTZ
    Role: ORBITAL
    Keyword: BASIS
    atoms 1    entry O          line   327 file /home/xy3866/psi4conda/share/psi4/basis/aug-cc-pvtz.gbs 
    atoms 2-7  entry C          line   235 file /home/xy3866/psi4conda/share/psi4/basis/aug-cc-pvtz.gbs 
    atoms 8-19 entry H          line    36 file /home/xy3866/psi4conda/share/psi4/basis/aug-cc-pvtz.gbs 


         ---------------------------------------------------------
                                   SCF
               by Justin Turney, Rob Parrish, Andy Simmonett
                          and Daniel G. A. Smith
                              RHF Reference
                        8 Threads,  30517 MiB Core
         ---------------------------------------------------------

  ==> Geometry <==

    Molecular point group: c1
    Full point group: C1

    Geometry (in Angstrom), charge = 0, multiplicity = 1:

       Center              X                  Y                   Z               Mass       
    ------------   -----------------  -----------------  -----------------  -----------------
         O           -2.345992721089    -1.114019747567    -0.113143395674    15.994914619570
         C           -1.520732721089    -0.024961747567     0.324770604326    12.000000000000
         C           -0.137965421089    -0.261566847567    -0.341307195674    12.000000000000
         C            2.329839278911    -0.443193747567    -0.192725395674    12.000000000000
         C            0.968955278911    -0.279923747567     0.410629604326    12.000000000000
         C           -2.115358721089     1.307786252433    -0.114292395674    12.000000000000
         C            3.208248278911     0.788402252433     0.034326604326    12.000000000000
         H           -1.425853721089    -0.039002747567     1.422194604326     1.007825032230
         H           -0.165981721089    -0.382724747567    -1.365590395674     1.007825032230
         H            2.230054278911    -0.637866747567    -1.266309395674     1.007825032230
         H            2.821140278911    -1.321951747567     0.243839604326     1.007825032230
         H            0.988666078911    -0.162421347567     1.496051404326     1.007825032230
         H           -1.481490721089     2.139287252433     0.204793604326     1.007825032230
         H           -2.205914721089     1.328093252433    -1.203524395674     1.007825032230
         H           -3.111932721089     1.452497252433     0.318726604326     1.007825032230
         H            3.325037278911     0.993525252433     1.102464604326     1.007825032230
         H            2.758565278911     1.670067252433    -0.429824395674     1.007825032230
         H            4.205328278911     0.646919252433    -0.392148395674     1.007825032230
         H           -3.246206721089    -0.943394747567     0.219483604326     1.007825032230

  Running in c1 symmetry.

  Rotational constants: A =      0.20250  B =      0.03605  C =      0.03255 [cm^-1]
  Rotational constants: A =   6070.81285  B =   1080.60857  C =    975.96503 [MHz]
  Nuclear repulsion =  298.660437294188171

  Charge       = 0
  Multiplicity = 1
  Electrons    = 56
  Nalpha       = 28
  Nbeta        = 28

  ==> Algorithm <==

  SCF Algorithm Type is DF.
  DIIS enabled.
  MOM disabled.
  Fractional occupation disabled.
  Guess Type is SAD.
  Energy threshold   = 1.00e-10
  Density threshold  = 1.00e-10
  Integral threshold = 0.00e+00

  ==> Primary Basis <==

  Basis Set: AUG-CC-PVTZ
    Blend: AUG-CC-PVTZ
    Number of shells: 206
    Number of basis function: 598
    Number of Cartesian functions: 685
    Spherical Harmonics?: true
    Max angular momentum: 3

   => Loading Basis Set <=

    Name: (AUG-CC-PVTZ AUX)
    Role: JKFIT
    Keyword: DF_BASIS_SCF
    atoms 1    entry O          line   286 file /home/xy3866/psi4conda/share/psi4/basis/aug-cc-pvtz-jkfit.gbs 
    atoms 2-7  entry C          line   162 file /home/xy3866/psi4conda/share/psi4/basis/aug-cc-pvtz-jkfit.gbs 
    atoms 8-19 entry H          line    70 file /home/xy3866/psi4conda/share/psi4/basis/aug-cc-pvtz-jkfit.gbs 

  ==> Pre-Iterations <==

   -------------------------------------------------------
    Irrep   Nso     Nmo     Nalpha   Nbeta   Ndocc  Nsocc
   -------------------------------------------------------
     A        598     598       0       0       0       0
   -------------------------------------------------------
    Total     598     598      28      28      28       0
   -------------------------------------------------------

  ==> Integral Setup <==

  DFHelper Memory: AOs need 3.285 GiB; user supplied 22.352 GiB. Using in-core AOs.

  ==> MemDFJK: Density-Fitted J/K Matrices <==

    J tasked:                   Yes
    K tasked:                   Yes
    wK tasked:                   No
    OpenMP threads:               8
    Memory [MiB]:             22888
    Algorithm:                 Disk
    Schwarz Cutoff:           1E-12
    Mask sparsity (%):       6.7695
    Fitting Condition:        1E-10

   => Auxiliary Basis Set <=

  Basis Set: (AUG-CC-PVTZ AUX)
    Blend: AUG-CC-PVTZ-JKFIT
    Number of shells: 378
    Number of basis function: 1280
    Number of Cartesian functions: 1577
    Spherical Harmonics?: true
    Max angular momentum: 4

  Minimum eigenvalue in the overlap matrix is 2.6410204394E-06.
  Using Symmetric Orthogonalization.

  SCF Guess: Superposition of Atomic Densities via on-the-fly atomic UHF.

  ==> Iterations <==

                           Total Energy        Delta E     RMS |[F,P]|

   @DF-RHF iter SAD:  -308.17998509860757   -3.08180e+02   0.00000e+00 
   @DF-RHF iter   1:  -308.84453342036272   -6.64548e-01   1.19080e-03 DIIS
   @DF-RHF iter   2:  -309.09010889982022   -2.45575e-01   5.67566e-04 DIIS
   @DF-RHF iter   3:  -309.14015075517977   -5.00419e-02   1.09105e-04 DIIS
   @DF-RHF iter   4:  -309.14348493938570   -3.33418e-03   4.39490e-05 DIIS
   @DF-RHF iter   5:  -309.14384294239903   -3.58003e-04   7.71240e-06 DIIS
   @DF-RHF iter   6:  -309.14386166897867   -1.87266e-05   1.85153e-06 DIIS
   @DF-RHF iter   7:  -309.14386286192052   -1.19294e-06   4.87153e-07 DIIS
   @DF-RHF iter   8:  -309.14386295777103   -9.58505e-08   1.90374e-07 DIIS
   @DF-RHF iter   9:  -309.14386296947367   -1.17026e-08   5.82913e-08 DIIS
   @DF-RHF iter  10:  -309.14386297104568   -1.57200e-09   2.32015e-08 DIIS
   @DF-RHF iter  11:  -309.14386297123593   -1.90255e-10   6.04087e-09 DIIS
   @DF-RHF iter  12:  -309.14386297125310   -1.71667e-11   2.17936e-09 DIIS
   @DF-RHF iter  13:  -309.14386297125560   -2.50111e-12   7.29023e-10 DIIS
   @DF-RHF iter  14:  -309.14386297125731   -1.70530e-12   2.53209e-10 DIIS
   @DF-RHF iter  15:  -309.14386297125719    1.13687e-13   7.53590e-11 DIIS
  Energy and wave function converged.


  ==> Post-Iterations <==

    Orbital Energies [Eh]
    ---------------------

    Doubly Occupied:                                                      

       1A    -20.554316     2A    -11.284757     3A    -11.228367  
       4A    -11.221315     5A    -11.220239     6A    -11.218323  
       7A    -11.214331     8A     -1.352285     9A     -1.088208  
      10A     -1.028265    11A     -0.970597    12A     -0.871175  
      13A     -0.806721    14A     -0.764245    15A     -0.681589  
      16A     -0.629010    17A     -0.625600    18A     -0.595467  
      19A     -0.593829    20A     -0.549228    21A     -0.541073  
      22A     -0.533327    23A     -0.514507    24A     -0.500793  
      25A     -0.481884    26A     -0.450374    27A     -0.442649  
      28A     -0.350666  

    Virtual:                                                              

      29A      0.028464    30A      0.032761    31A      0.035845  
      32A      0.040093    33A      0.048384    34A      0.051136  
      35A      0.053247    36A      0.061124    37A      0.064984  
      38A      0.071886    39A      0.074250    40A      0.084396  
      41A      0.103000    42A      0.106555    43A      0.111397  
      44A      0.122111    45A      0.123395    46A      0.127743  
      47A      0.132865    48A      0.135282    49A      0.139870  
      50A      0.143163    51A      0.145256    52A      0.146491  
      53A      0.153519    54A      0.157047    55A      0.159888  
      56A      0.171182    57A      0.175438    58A      0.178207  
      59A      0.188706    60A      0.189667    61A      0.198586  
      62A      0.206496    63A      0.216694    64A      0.227987  
      65A      0.233991    66A      0.242126    67A      0.247940  
      68A      0.248986    69A      0.258419    70A      0.265330  
      71A      0.274059    72A      0.279413    73A      0.288261  
      74A      0.290880    75A      0.296651    76A      0.301649  
      77A      0.303242    78A      0.317810    79A      0.319231  
      80A      0.327615    81A      0.333136    82A      0.335746  
      83A      0.338980    84A      0.347737    85A      0.356495  
      86A      0.358279    87A      0.360484    88A      0.366366  
      89A      0.368105    90A      0.377591    91A      0.378643  
      92A      0.382776    93A      0.385224    94A      0.389121  
      95A      0.394731    96A      0.398150    97A      0.403754  
      98A      0.406007    99A      0.414872   100A      0.417700  
     101A      0.423071   102A      0.428419   103A      0.436261  
     104A      0.446020   105A      0.450177   106A      0.453732  
     107A      0.455448   108A      0.460829   109A      0.470111  
     110A      0.473024   111A      0.477642   112A      0.483052  
     113A      0.485335   114A      0.489904   115A      0.497066  
     116A      0.499094   117A      0.501874   118A      0.507736  
     119A      0.508784   120A      0.513106   121A      0.520592  
     122A      0.524230   123A      0.525661   124A      0.537913  
     125A      0.539301   126A      0.550712   127A      0.553831  
     128A      0.555552   129A      0.563358   130A      0.568420  
     131A      0.580806   132A      0.582750   133A      0.591454  
     134A      0.601018   135A      0.610734   136A      0.614697  
     137A      0.616388   138A      0.620563   139A      0.634417  
     140A      0.642510   141A      0.646221   142A      0.654410  
     143A      0.662651   144A      0.666344   145A      0.667673  
     146A      0.681308   147A      0.690676   148A      0.696039  
     149A      0.704376   150A      0.720497   151A      0.732970  
     152A      0.746932   153A      0.752691   154A      0.766646  
     155A      0.786770   156A      0.793069   157A      0.800351  
     158A      0.806592   159A      0.814632   160A      0.824790  
     161A      0.834237   162A      0.841487   163A      0.842274  
     164A      0.846577   165A      0.855791   166A      0.865979  
     167A      0.871508   168A      0.874448   169A      0.884655  
     170A      0.893598   171A      0.896313   172A      0.900693  
     173A      0.903439   174A      0.909336   175A      0.918086  
     176A      0.923612   177A      0.931832   178A      0.938315  
     179A      0.943115   180A      0.945514   181A      0.955781  
     182A      0.960496   183A      0.967425   184A      0.970690  
     185A      0.981089   186A      0.985294   187A      0.988727  
     188A      0.996558   189A      1.001303   190A      1.019294  
     191A      1.023582   192A      1.025329   193A      1.031220  
     194A      1.039739   195A      1.044083   196A      1.051132  
     197A      1.057702   198A      1.061908   199A      1.070454  
     200A      1.073543   201A      1.078606   202A      1.084792  
     203A      1.090478   204A      1.097126   205A      1.107072  
     206A      1.110099   207A      1.118937   208A      1.127332  
     209A      1.130510   210A      1.141131   211A      1.149167  
     212A      1.157707   213A      1.159159   214A      1.165511  
     215A      1.175730   216A      1.186027   217A      1.192951  
     218A      1.194812   219A      1.202807   220A      1.209108  
     221A      1.218253   222A      1.219371   223A      1.229452  
     224A      1.236105   225A      1.237677   226A      1.240817  
     227A      1.258034   228A      1.265318   229A      1.269481  
     230A      1.274219   231A      1.282866   232A      1.287784  
     233A      1.294205   234A      1.301211   235A      1.310957  
     236A      1.312635   237A      1.319112   238A      1.335392  
     239A      1.342428   240A      1.354805   241A      1.368079  
     242A      1.379690   243A      1.393870   244A      1.396665  
     245A      1.403223   246A      1.409100   247A      1.424406  
     248A      1.428473   249A      1.446993   250A      1.453771  
     251A      1.478022   252A      1.482988   253A      1.487828  
     254A      1.499015   255A      1.502872   256A      1.513216  
     257A      1.525053   258A      1.531848   259A      1.534043  
     260A      1.542736   261A      1.549951   262A      1.560292  
     263A      1.578315   264A      1.583170   265A      1.593166  
     266A      1.601247   267A      1.624440   268A      1.633441  
     269A      1.644050   270A      1.653905   271A      1.668702  
     272A      1.671075   273A      1.677792   274A      1.686638  
     275A      1.688372   276A      1.699076   277A      1.703204  
     278A      1.717978   279A      1.725421   280A      1.737238  
     281A      1.741376   282A      1.745831   283A      1.752678  
     284A      1.763372   285A      1.769046   286A      1.772213  
     287A      1.782992   288A      1.791711   289A      1.803527  
     290A      1.809379   291A      1.816506   292A      1.825352  
     293A      1.838538   294A      1.844073   295A      1.857576  
     296A      1.860916   297A      1.874185   298A      1.877725  
     299A      1.887689   300A      1.893894   301A      1.906870  
     302A      1.915766   303A      1.921067   304A      1.929577  
     305A      1.939805   306A      1.949697   307A      1.950624  
     308A      1.987763   309A      1.994016   310A      2.000138  
     311A      2.005759   312A      2.011207   313A      2.018999  
     314A      2.027801   315A      2.038822   316A      2.048167  
     317A      2.059077   318A      2.074363   319A      2.084937  
     320A      2.088067   321A      2.121788   322A      2.128566  
     323A      2.130975   324A      2.142295   325A      2.156988  
     326A      2.169233   327A      2.187503   328A      2.205799  
     329A      2.210563   330A      2.211968   331A      2.221608  
     332A      2.240841   333A      2.250017   334A      2.259834  
     335A      2.265161   336A      2.280789   337A      2.288595  
     338A      2.297355   339A      2.309181   340A      2.317041  
     341A      2.335201   342A      2.354538   343A      2.378406  
     344A      2.386015   345A      2.413734   346A      2.419295  
     347A      2.439596   348A      2.447269   349A      2.452013  
     350A      2.473481   351A      2.480317   352A      2.494420  
     353A      2.518439   354A      2.542376   355A      2.556631  
     356A      2.580021   357A      2.602124   358A      2.631557  
     359A      2.651053   360A      2.671020   361A      2.704611  
     362A      2.732251   363A      2.739071   364A      2.785517  
     365A      2.820392   366A      2.860904   367A      2.882346  
     368A      2.889141   369A      2.944855   370A      2.971074  
     371A      3.006472   372A      3.032090   373A      3.062748  
     374A      3.094574   375A      3.115567   376A      3.131493  
     377A      3.192355   378A      3.222490   379A      3.223282  
     380A      3.275227   381A      3.314925   382A      3.327320  
     383A      3.337616   384A      3.367810   385A      3.404693  
     386A      3.428817   387A      3.441168   388A      3.462455  
     389A      3.469680   390A      3.487403   391A      3.506210  
     392A      3.517968   393A      3.542968   394A      3.551968  
     395A      3.567048   396A      3.576058   397A      3.591471  
     398A      3.595724   399A      3.616306   400A      3.630455  
     401A      3.636384   402A      3.651975   403A      3.655047  
     404A      3.663277   405A      3.679536   406A      3.697127  
     407A      3.713139   408A      3.715427   409A      3.734068  
     410A      3.745128   411A      3.755026   412A      3.757171  
     413A      3.771277   414A      3.783927   415A      3.794259  
     416A      3.799151   417A      3.819927   418A      3.825185  
     419A      3.847060   420A      3.851528   421A      3.857198  
     422A      3.874543   423A      3.878301   424A      3.891056  
     425A      3.920092   426A      3.924955   427A      3.940710  
     428A      3.952167   429A      3.971397   430A      3.975642  
     431A      3.979562   432A      3.997212   433A      4.001354  
     434A      4.010886   435A      4.028046   436A      4.036407  
     437A      4.047439   438A      4.062941   439A      4.075554  
     440A      4.088976   441A      4.096007   442A      4.108090  
     443A      4.123864   444A      4.136356   445A      4.153884  
     446A      4.159717   447A      4.177789   448A      4.184288  
     449A      4.202383   450A      4.210188   451A      4.223644  
     452A      4.235402   453A      4.237292   454A      4.253244  
     455A      4.261560   456A      4.275083   457A      4.316863  
     458A      4.321236   459A      4.340562   460A      4.358607  
     461A      4.373380   462A      4.377512   463A      4.385691  
     464A      4.400938   465A      4.414509   466A      4.424735  
     467A      4.430278   468A      4.472225   469A      4.496432  
     470A      4.506342   471A      4.519035   472A      4.531990  
     473A      4.545706   474A      4.555218   475A      4.578239  
     476A      4.583351   477A      4.604804   478A      4.615816  
     479A      4.624278   480A      4.644271   481A      4.658533  
     482A      4.689949   483A      4.710671   484A      4.734540  
     485A      4.750476   486A      4.756315   487A      4.768550  
     488A      4.805705   489A      4.836792   490A      4.840057  
     491A      4.847280   492A      4.853947   493A      4.871607  
     494A      4.876362   495A      4.880865   496A      4.896022  
     497A      4.915317   498A      4.940152   499A      4.955267  
     500A      4.975591   501A      4.997103   502A      5.005339  
     503A      5.023997   504A      5.034144   505A      5.048832  
     506A      5.059592   507A      5.064158   508A      5.090091  
     509A      5.103121   510A      5.105320   511A      5.109870  
     512A      5.153224   513A      5.169025   514A      5.171955  
     515A      5.200103   516A      5.205539   517A      5.222496  
     518A      5.226197   519A      5.237393   520A      5.250450  
     521A      5.269662   522A      5.283957   523A      5.306654  
     524A      5.330967   525A      5.347525   526A      5.365799  
     527A      5.369403   528A      5.400212   529A      5.410204  
     530A      5.430753   531A      5.448960   532A      5.454996  
     533A      5.478170   534A      5.490256   535A      5.519630  
     536A      5.531211   537A      5.546129   538A      5.565356  
     539A      5.581683   540A      5.605606   541A      5.621999  
     542A      5.638042   543A      5.665344   544A      5.687870  
     545A      5.706149   546A      5.736728   547A      5.739588  
     548A      5.774764   549A      5.784606   550A      5.823891  
     551A      5.844752   552A      5.862580   553A      5.903727  
     554A      5.977556   555A      5.996904   556A      6.029809  
     557A      6.083738   558A      6.107020   559A      6.133015  
     560A      6.188166   561A      6.199721   562A      6.209790  
     563A      6.228804   564A      6.232516   565A      6.255461  
     566A      6.285893   567A      6.359380   568A      6.396297  
     569A      6.544138   570A      6.640244   571A      6.697278  
     572A      6.732288   573A      6.753536   574A      6.777157  
     575A      6.809773   576A      6.826999   577A      6.864942  
     578A      6.894556   579A      6.976230   580A      6.991324  
     581A      7.006314   582A      7.124487   583A      7.342970  
     584A      7.362739   585A      7.518056   586A      7.574755  
     587A      7.678091   588A      7.870532   589A      7.988465  
     590A      8.268099   591A      8.609437   592A     16.116468  
     593A     17.315766   594A     17.593378   595A     17.944251  
     596A     18.468383   597A     18.646109   598A     20.116971  

    Final Occupation by Irrep:
              A 
    DOCC [    28 ]

  @DF-RHF Final Energy:  -309.14386297125719

   => Energetics <=

    Nuclear Repulsion Energy =            298.6604372941881707
    One-Electron Energy =               -1010.9823164588299278
    Two-Electron Energy =                 403.1780161933846216
    Total Energy =                       -309.1438629712571924

Computation Completed

*** tstop() called on node37.bme.utexas.edu at Tue Nov  3 07:00:18 2020
Module time:
	user time   =     244.59 seconds =       4.08 minutes
	system time =      54.17 seconds =       0.90 minutes
	total time  =         70 seconds =       1.17 minutes
Total time:
	user time   =     244.59 seconds =       4.08 minutes
	system time =      54.17 seconds =       0.90 minutes
	total time  =         70 seconds =       1.17 minutes
   => Loading Basis Set <=

    Name: (AUG-CC-PVTZ AUX)
    Role: RIFIT
    Keyword: DF_BASIS_MP2
    atoms 1    entry O          line   264 file /home/xy3866/psi4conda/share/psi4/basis/aug-cc-pvtz-ri.gbs 
    atoms 2-7  entry C          line   148 file /home/xy3866/psi4conda/share/psi4/basis/aug-cc-pvtz-ri.gbs 
    atoms 8-19 entry H          line    30 file /home/xy3866/psi4conda/share/psi4/basis/aug-cc-pvtz-ri.gbs 


*** tstart() called on node37.bme.utexas.edu
*** at Tue Nov  3 07:00:19 2020


  //>>>>>>>>>>>>>>>>>>>>>>>>>>>>>>>>>>>//
  //               DFMP2               //
  //<<<<<<<<<<<<<<<<<<<<<<<<<<<<<<<<<<<//

	 --------------------------------------------------------
	                          DF-MP2                         
	      2nd-Order Density-Fitted Moller-Plesset Theory     
	              RMP2 Wavefunction,   8 Threads             
	                                                         
	        Rob Parrish, Justin Turney, Andy Simmonett,      
	           Ed Hohenstein, and C. David Sherrill          
	 --------------------------------------------------------

   => Auxiliary Basis Set <=

  Basis Set: (AUG-CC-PVTZ AUX)
    Blend: AUG-CC-PVTZ-RI
    Number of shells: 364
    Number of basis function: 1294
    Number of Cartesian functions: 1612
    Spherical Harmonics?: true
    Max angular momentum: 4

	 --------------------------------------------------------
	                 NBF =   598, NAUX =  1294
	 --------------------------------------------------------
	   CLASS    FOCC     OCC    AOCC    AVIR     VIR    FVIR
	   PAIRS       0      28      28     570     570       0
	 --------------------------------------------------------

  DFHelper Memory: AOs need 3.285 GiB; user supplied 22.352 GiB. Using in-core AOs.


         ------------------------------------------------------------
                                     CPHF                           
                                  Rob Parrish                       
         ------------------------------------------------------------

  ==> Geometry <==

    Molecular point group: c1
    Full point group: C1

    Geometry (in Angstrom), charge = 0, multiplicity = 1:

       Center              X                  Y                   Z               Mass       
    ------------   -----------------  -----------------  -----------------  -----------------
         O           -2.345992721089    -1.114019747567    -0.113143395674    15.994914619570
         C           -1.520732721089    -0.024961747567     0.324770604326    12.000000000000
         C           -0.137965421089    -0.261566847567    -0.341307195674    12.000000000000
         C            2.329839278911    -0.443193747567    -0.192725395674    12.000000000000
         C            0.968955278911    -0.279923747567     0.410629604326    12.000000000000
         C           -2.115358721089     1.307786252433    -0.114292395674    12.000000000000
         C            3.208248278911     0.788402252433     0.034326604326    12.000000000000
         H           -1.425853721089    -0.039002747567     1.422194604326     1.007825032230
         H           -0.165981721089    -0.382724747567    -1.365590395674     1.007825032230
         H            2.230054278911    -0.637866747567    -1.266309395674     1.007825032230
         H            2.821140278911    -1.321951747567     0.243839604326     1.007825032230
         H            0.988666078911    -0.162421347567     1.496051404326     1.007825032230
         H           -1.481490721089     2.139287252433     0.204793604326     1.007825032230
         H           -2.205914721089     1.328093252433    -1.203524395674     1.007825032230
         H           -3.111932721089     1.452497252433     0.318726604326     1.007825032230
         H            3.325037278911     0.993525252433     1.102464604326     1.007825032230
         H            2.758565278911     1.670067252433    -0.429824395674     1.007825032230
         H            4.205328278911     0.646919252433    -0.392148395674     1.007825032230
         H           -3.246206721089    -0.943394747567     0.219483604326     1.007825032230

  Nuclear repulsion =  298.660437294188171
  Reference energy  = -309.143862971257192

  ==> Basis Set <==

  Basis Set: AUG-CC-PVTZ
    Blend: AUG-CC-PVTZ
    Number of shells: 206
    Number of basis function: 598
    Number of Cartesian functions: 685
    Spherical Harmonics?: true
    Max angular momentum: 3

  ==> CGRSolver (by Rob Parrish) <==

   Number of roots    =         1
   Preconditioning    =    JACOBI
   Convergence cutoff =     1E-06
   Maximum iterations =       100

  ==> CPHFRHamiltonian (by Rob Parrish) <== 

  ==> MemDFJK: Density-Fitted J/K Matrices <==

    J tasked:                   Yes
    K tasked:                   Yes
    wK tasked:                   No
    OpenMP threads:               8
    Memory [MiB]:             22888
    Algorithm:                 Disk
    Schwarz Cutoff:           1E-12
    Mask sparsity (%):       6.7695
    Fitting Condition:        1E-10

   => Auxiliary Basis Set <=

  Basis Set: (AUG-CC-PVTZ AUX)
    Blend: AUG-CC-PVTZ-JKFIT
    Number of shells: 378
    Number of basis function: 1280
    Number of Cartesian functions: 1577
    Spherical Harmonics?: true
    Max angular momentum: 4

  ==> CPHF Iterations <==

  => Iterations <=

             Iter  Converged  Remaining    Residual
  CGR           1          0          1   7.869E-02
  CGR           2          0          1   1.664E-02
  CGR           3          0          1   6.613E-03
  CGR           4          0          1   1.624E-03
  CGR           5          0          1   4.248E-04
  CGR           6          0          1   1.309E-04
  CGR           7          0          1   4.127E-05
  CGR           8          0          1   1.392E-05
  CGR           9          0          1   5.504E-06
  CGR          10          0          1   1.876E-06
  CGR          11          1          0   5.268E-07

    CGRSolver converged.

	-----------------------------------------------------------
	 ==================> DF-MP2 Energies <==================== 
	-----------------------------------------------------------
	 Reference Energy          =    -309.1438629712571924 [Eh]
	 Singles Energy            =      -0.0000000000000000 [Eh]
	 Same-Spin Energy          =      -0.3160968788576917 [Eh]
	 Opposite-Spin Energy      =      -1.1022127635468055 [Eh]
	 Correlation Energy        =      -1.4183096424044972 [Eh]
	 Total Energy              =    -310.5621726136616871 [Eh]
	-----------------------------------------------------------
	 ================> DF-SCS-MP2 Energies <================== 
	-----------------------------------------------------------
	 SCS Same-Spin Scale       =       0.3333333333333333 [-]
	 SCS Opposite-Spin Scale   =       1.2000000000000000 [-]
	 SCS Same-Spin Energy      =      -0.1053656262858972 [Eh]
	 SCS Opposite-Spin Energy  =      -1.3226553162561665 [Eh]
	 SCS Correlation Energy    =      -1.4280209425420638 [Eh]
	 SCS Total Energy          =    -310.5718839137992404 [Eh]
	-----------------------------------------------------------



Properties will be evaluated at  -0.000000,  -0.000000,   0.000000 [a0]

Properties computed using the MP2 density matrix

  Nuclear Dipole Moment: [e a0]
     X:     4.3868      Y:     4.4411      Z:     0.3277

  Electronic Dipole Moment: [e a0]
     X:    -4.4268      Y:    -3.9053      Z:    -0.0084

  Dipole Moment: [e a0]
     X:    -0.0400      Y:     0.5358      Z:     0.3193     Total:     0.6250

  Dipole Moment: [D]
     X:    -0.1017      Y:     1.3618      Z:     0.8115     Total:     1.5886


*** tstop() called on node37.bme.utexas.edu at Tue Nov  3 07:02:35 2020
Module time:
	user time   =     641.52 seconds =      10.69 minutes
	system time =      80.22 seconds =       1.34 minutes
	total time  =        136 seconds =       2.27 minutes
Total time:
	user time   =     887.34 seconds =      14.79 minutes
	system time =     134.49 seconds =       2.24 minutes
	total time  =        207 seconds =       3.45 minutes

    Psi4 stopped on: Tuesday, 03 November 2020 07:02AM
    Psi4 wall time for execution: 0:03:26.70

*** Psi4 exiting successfully. Buy a developer a beer!
