
    -----------------------------------------------------------------------
          Psi4: An Open-Source Ab Initio Electronic Structure Package
                               Psi4 1.3.2 release

                         Git: Rev {HEAD} ecbda83 


    R. M. Parrish, L. A. Burns, D. G. A. Smith, A. C. Simmonett,
    A. E. DePrince III, E. G. Hohenstein, U. Bozkaya, A. Yu. Sokolov,
    R. Di Remigio, R. M. Richard, J. F. Gonthier, A. M. James,
    H. R. McAlexander, A. Kumar, M. Saitow, X. Wang, B. P. Pritchard,
    P. Verma, H. F. Schaefer III, K. Patkowski, R. A. King, E. F. Valeev,
    F. A. Evangelista, J. M. Turney, T. D. Crawford, and C. D. Sherrill,
    J. Chem. Theory Comput. 13(7) pp 3185--3197 (2017).
    (doi: 10.1021/acs.jctc.7b00174)


                         Additional Contributions by
    P. Kraus, H. Kruse, M. H. Lechner, M. C. Schieber, R. A. Shaw,
    A. Alenaizan, R. Galvelis, Z. L. Glick, S. Lehtola, and J. P. Misiewicz

    -----------------------------------------------------------------------


    Psi4 started on: Tuesday, 03 November 2020 04:39AM

    Process ID: 19300
    Host:       node37.bme.utexas.edu
    PSIDATADIR: /home/xy3866/psi4conda/share/psi4
    Memory:     500.0 MiB
    Threads:    8
    
  ==> Input File <==

--------------------------------------------------------------------------
#psi4
#
memory 32 gb

molecule  {
0 1
  O       -2.3409430    -1.1152500    -0.1201430
  C       -1.5156830    -0.0261920     0.3177710
  C       -0.3504131    -0.2225979    -0.2084773
  C        2.3348890    -0.4444240    -0.1997250
  C        0.9740050    -0.2811540     0.4036300
  C       -2.1103090     1.3065560    -0.1212920
  C        3.2132980     0.7871720     0.0273270
  H       -1.4208040    -0.0402330     1.4151950
  H       -0.1609320    -0.3839550    -1.3725900
  H        2.2351040    -0.6390970    -1.2733090
  H        2.8261900    -1.3231820     0.2368400
  H        0.9367840    -0.1585690     1.4880300
  H       -1.4764410     2.1380570     0.1977940
  H       -2.2008650     1.3268630    -1.2105240
  H       -3.1068830     1.4512670     0.3117270
  H        3.3300870     0.9922950     1.0954650
  H        2.7636150     1.6688370    -0.4368240
  H        4.2103780     0.6456890    -0.3991480
  H       -3.2411570    -0.9446250     0.2124840
units angstrom
no_reorient  #important for SAPT in psi4, default
symmetry c1  #important for SAPT in psi4, default
}

set PROPERTIES_ORIGIN ["COM"]
properties('MP2/aug-cc-pvtz', properties = ['dipole'])
--------------------------------------------------------------------------

  Memory set to  29.802 GiB by Python driver.
    SCF Algorithm Type (re)set to DF.

*** tstart() called on node37.bme.utexas.edu
*** at Tue Nov  3 04:39:24 2020

   => Loading Basis Set <=

    Name: AUG-CC-PVTZ
    Role: ORBITAL
    Keyword: BASIS
    atoms 1    entry O          line   327 file /home/xy3866/psi4conda/share/psi4/basis/aug-cc-pvtz.gbs 
    atoms 2-7  entry C          line   235 file /home/xy3866/psi4conda/share/psi4/basis/aug-cc-pvtz.gbs 
    atoms 8-19 entry H          line    36 file /home/xy3866/psi4conda/share/psi4/basis/aug-cc-pvtz.gbs 


         ---------------------------------------------------------
                                   SCF
               by Justin Turney, Rob Parrish, Andy Simmonett
                          and Daniel G. A. Smith
                              RHF Reference
                        8 Threads,  30517 MiB Core
         ---------------------------------------------------------

  ==> Geometry <==

    Molecular point group: c1
    Full point group: C1

    Geometry (in Angstrom), charge = 0, multiplicity = 1:

       Center              X                  Y                   Z               Mass       
    ------------   -----------------  -----------------  -----------------  -----------------
         O           -2.319342929172    -1.118890549279    -0.129897757331    15.994914619570
         C           -1.494082929172    -0.029832549279     0.308016242669    12.000000000000
         C           -0.328813029172    -0.226238449279    -0.218232057331    12.000000000000
         C            2.356489070828    -0.448064549279    -0.209479757331    12.000000000000
         C            0.995605070828    -0.284794549279     0.393875242669    12.000000000000
         C           -2.088708929172     1.302915450721    -0.131046757331    12.000000000000
         C            3.234898070828     0.783531450721     0.017572242669    12.000000000000
         H           -1.399203929172    -0.043873549279     1.405440242669     1.007825032230
         H           -0.139331929172    -0.387595549279    -1.382344757331     1.007825032230
         H            2.256704070828    -0.642737549279    -1.283063757331     1.007825032230
         H            2.847790070828    -1.326822549279     0.227085242669     1.007825032230
         H            0.958384070828    -0.162209549279     1.478275242669     1.007825032230
         H           -1.454840929172     2.134416450721     0.188039242669     1.007825032230
         H           -2.179264929172     1.323222450721    -1.220278757331     1.007825032230
         H           -3.085282929172     1.447626450721     0.301972242669     1.007825032230
         H            3.351687070828     0.988654450721     1.085710242669     1.007825032230
         H            2.785215070828     1.665196450721    -0.446578757331     1.007825032230
         H            4.231978070828     0.642048450721    -0.408902757331     1.007825032230
         H           -3.219556929172    -0.948265549279     0.202729242669     1.007825032230

  Running in c1 symmetry.

  Rotational constants: A =      0.20556  B =      0.03603  C =      0.03250 [cm^-1]
  Rotational constants: A =   6162.49341  B =   1080.05741  C =    974.35604 [MHz]
  Nuclear repulsion =  300.438579872762091

  Charge       = 0
  Multiplicity = 1
  Electrons    = 56
  Nalpha       = 28
  Nbeta        = 28

  ==> Algorithm <==

  SCF Algorithm Type is DF.
  DIIS enabled.
  MOM disabled.
  Fractional occupation disabled.
  Guess Type is SAD.
  Energy threshold   = 1.00e-10
  Density threshold  = 1.00e-10
  Integral threshold = 0.00e+00

  ==> Primary Basis <==

  Basis Set: AUG-CC-PVTZ
    Blend: AUG-CC-PVTZ
    Number of shells: 206
    Number of basis function: 598
    Number of Cartesian functions: 685
    Spherical Harmonics?: true
    Max angular momentum: 3

   => Loading Basis Set <=

    Name: (AUG-CC-PVTZ AUX)
    Role: JKFIT
    Keyword: DF_BASIS_SCF
    atoms 1    entry O          line   286 file /home/xy3866/psi4conda/share/psi4/basis/aug-cc-pvtz-jkfit.gbs 
    atoms 2-7  entry C          line   162 file /home/xy3866/psi4conda/share/psi4/basis/aug-cc-pvtz-jkfit.gbs 
    atoms 8-19 entry H          line    70 file /home/xy3866/psi4conda/share/psi4/basis/aug-cc-pvtz-jkfit.gbs 

  ==> Pre-Iterations <==

   -------------------------------------------------------
    Irrep   Nso     Nmo     Nalpha   Nbeta   Ndocc  Nsocc
   -------------------------------------------------------
     A        598     598       0       0       0       0
   -------------------------------------------------------
    Total     598     598      28      28      28       0
   -------------------------------------------------------

  ==> Integral Setup <==

  DFHelper Memory: AOs need 3.284 GiB; user supplied 22.352 GiB. Using in-core AOs.

  ==> MemDFJK: Density-Fitted J/K Matrices <==

    J tasked:                   Yes
    K tasked:                   Yes
    wK tasked:                   No
    OpenMP threads:               8
    Memory [MiB]:             22888
    Algorithm:                 Disk
    Schwarz Cutoff:           1E-12
    Mask sparsity (%):       6.7958
    Fitting Condition:        1E-10

   => Auxiliary Basis Set <=

  Basis Set: (AUG-CC-PVTZ AUX)
    Blend: AUG-CC-PVTZ-JKFIT
    Number of shells: 378
    Number of basis function: 1280
    Number of Cartesian functions: 1577
    Spherical Harmonics?: true
    Max angular momentum: 4

  Minimum eigenvalue in the overlap matrix is 1.9077110279E-06.
  Using Symmetric Orthogonalization.

  SCF Guess: Superposition of Atomic Densities via on-the-fly atomic UHF.

  ==> Iterations <==

                           Total Energy        Delta E     RMS |[F,P]|

   @DF-RHF iter SAD:  -308.35428878777202   -3.08354e+02   0.00000e+00 
   @DF-RHF iter   1:  -308.77316542443685   -4.18877e-01   1.19744e-03 DIIS
   @DF-RHF iter   2:  -309.01987119154990   -2.46706e-01   6.04293e-04 DIIS
   @DF-RHF iter   3:  -309.07712265135751   -5.72515e-02   1.21892e-04 DIIS
   @DF-RHF iter   4:  -309.08092487101453   -3.80222e-03   5.65624e-05 DIIS
   @DF-RHF iter   5:  -309.08157781355590   -6.52943e-04   9.62139e-06 DIIS
   @DF-RHF iter   6:  -309.08160576496795   -2.79514e-05   3.55022e-06 DIIS
   @DF-RHF iter   7:  -309.08160883351889   -3.06855e-06   1.06363e-06 DIIS
   @DF-RHF iter   8:  -309.08160920284649   -3.69328e-07   3.81680e-07 DIIS
   @DF-RHF iter   9:  -309.08160927465775   -7.18113e-08   1.31376e-07 DIIS
   @DF-RHF iter  10:  -309.08160928701705   -1.23593e-08   4.92827e-08 DIIS
   @DF-RHF iter  11:  -309.08160928881932   -1.80228e-09   1.61440e-08 DIIS
   @DF-RHF iter  12:  -309.08160928897996   -1.60640e-10   4.79359e-09 DIIS
   @DF-RHF iter  13:  -309.08160928899503   -1.50635e-11   1.35422e-09 DIIS
   @DF-RHF iter  14:  -309.08160928899656   -1.53477e-12   4.27783e-10 DIIS
   @DF-RHF iter  15:  -309.08160928899628    2.84217e-13   1.45844e-10 DIIS
   @DF-RHF iter  16:  -309.08160928899815   -1.87583e-12   7.71226e-11 DIIS
  Energy and wave function converged.


  ==> Post-Iterations <==

    Orbital Energies [Eh]
    ---------------------

    Doubly Occupied:                                                      

       1A    -20.556664     2A    -11.270962     3A    -11.246772  
       4A    -11.234159     5A    -11.231666     6A    -11.222170  
       7A    -11.218091     8A     -1.361385     9A     -1.100794  
      10A     -1.052655    11A     -0.960707    12A     -0.896409  
      13A     -0.810429    14A     -0.748785    15A     -0.687045  
      16A     -0.645253    17A     -0.631914    18A     -0.604405  
      19A     -0.580707    20A     -0.551744    21A     -0.540840  
      22A     -0.522380    23A     -0.511656    24A     -0.499282  
      25A     -0.492135    26A     -0.468618    27A     -0.441567  
      28A     -0.320633  

    Virtual:                                                              

      29A      0.028490    30A      0.031965    31A      0.036577  
      32A      0.040241    33A      0.048648    34A      0.050984  
      35A      0.053164    36A      0.061213    37A      0.065292  
      38A      0.072103    39A      0.074050    40A      0.082923  
      41A      0.102824    42A      0.104847    43A      0.109841  
      44A      0.121208    45A      0.124602    46A      0.126239  
      47A      0.132058    48A      0.136120    49A      0.136681  
      50A      0.140859    51A      0.144232    52A      0.145262  
      53A      0.152901    54A      0.157880    55A      0.161343  
      56A      0.165255    57A      0.173160    58A      0.178728  
      59A      0.187152    60A      0.189705    61A      0.196265  
      62A      0.205467    63A      0.215309    64A      0.226588  
      65A      0.235535    66A      0.242088    67A      0.244701  
      68A      0.256455    69A      0.258479    70A      0.264810  
      71A      0.272778    72A      0.283696    73A      0.287642  
      74A      0.288585    75A      0.291368    76A      0.300190  
      77A      0.304012    78A      0.318902    79A      0.320727  
      80A      0.322930    81A      0.335001    82A      0.338194  
      83A      0.339335    84A      0.346291    85A      0.353618  
      86A      0.358621    87A      0.360028    88A      0.365464  
      89A      0.366398    90A      0.374603    91A      0.376005  
      92A      0.384142    93A      0.385474    94A      0.388558  
      95A      0.391844    96A      0.400178    97A      0.401972  
      98A      0.407955    99A      0.410288   100A      0.415311  
     101A      0.422849   102A      0.426747   103A      0.440793  
     104A      0.443688   105A      0.452171   106A      0.454020  
     107A      0.458250   108A      0.465693   109A      0.468922  
     110A      0.471949   111A      0.478212   112A      0.482565  
     113A      0.487438   114A      0.493463   115A      0.495342  
     116A      0.500009   117A      0.502016   118A      0.505337  
     119A      0.512033   120A      0.514987   121A      0.521082  
     122A      0.524872   123A      0.534365   124A      0.539125  
     125A      0.541787   126A      0.552563   127A      0.554392  
     128A      0.556409   129A      0.562867   130A      0.573088  
     131A      0.579526   132A      0.583681   133A      0.589820  
     134A      0.600292   135A      0.608652   136A      0.616066  
     137A      0.617275   138A      0.619990   139A      0.632004  
     140A      0.640528   141A      0.653743   142A      0.656444  
     143A      0.661650   144A      0.668791   145A      0.674980  
     146A      0.683198   147A      0.687435   148A      0.693718  
     149A      0.715407   150A      0.728956   151A      0.732160  
     152A      0.742390   153A      0.761910   154A      0.773280  
     155A      0.784616   156A      0.792454   157A      0.804705  
     158A      0.807890   159A      0.818982   160A      0.825322  
     161A      0.834695   162A      0.838401   163A      0.850478  
     164A      0.851437   165A      0.858352   166A      0.866130  
     167A      0.872641   168A      0.879009   169A      0.886608  
     170A      0.887782   171A      0.894478   172A      0.901343  
     173A      0.903589   174A      0.907978   175A      0.913681  
     176A      0.932309   177A      0.936764   178A      0.947137  
     179A      0.951696   180A      0.955475   181A      0.957907  
     182A      0.965452   183A      0.971772   184A      0.974544  
     185A      0.978086   186A      0.987605   187A      0.988988  
     188A      1.001995   189A      1.005783   190A      1.013124  
     191A      1.023880   192A      1.029872   193A      1.032707  
     194A      1.041489   195A      1.044987   196A      1.049991  
     197A      1.057652   198A      1.061961   199A      1.068097  
     200A      1.070212   201A      1.080257   202A      1.081509  
     203A      1.091987   204A      1.095637   205A      1.105547  
     206A      1.113516   207A      1.120990   208A      1.132447  
     209A      1.135330   210A      1.137218   211A      1.144491  
     212A      1.156598   213A      1.158426   214A      1.166715  
     215A      1.178288   216A      1.184464   217A      1.188986  
     218A      1.191260   219A      1.195234   220A      1.215166  
     221A      1.221698   222A      1.229949   223A      1.234448  
     224A      1.236225   225A      1.245191   226A      1.247782  
     227A      1.252707   228A      1.263226   229A      1.266684  
     230A      1.277946   231A      1.286820   232A      1.287897  
     233A      1.295279   234A      1.298627   235A      1.312505  
     236A      1.317820   237A      1.322222   238A      1.338222  
     239A      1.344715   240A      1.356401   241A      1.369441  
     242A      1.377408   243A      1.388975   244A      1.400576  
     245A      1.405861   246A      1.413108   247A      1.430347  
     248A      1.431678   249A      1.450954   250A      1.454218  
     251A      1.470763   252A      1.478080   253A      1.488726  
     254A      1.500765   255A      1.506433   256A      1.514145  
     257A      1.524538   258A      1.525957   259A      1.533345  
     260A      1.537486   261A      1.547400   262A      1.566920  
     263A      1.574730   264A      1.583534   265A      1.595772  
     266A      1.600961   267A      1.613256   268A      1.630771  
     269A      1.638927   270A      1.658199   271A      1.663249  
     272A      1.668715   273A      1.676615   274A      1.684029  
     275A      1.688754   276A      1.692164   277A      1.708351  
     278A      1.712213   279A      1.724076   280A      1.733336  
     281A      1.741673   282A      1.744101   283A      1.758060  
     284A      1.764604   285A      1.769531   286A      1.775567  
     287A      1.786233   288A      1.792122   289A      1.797504  
     290A      1.803401   291A      1.821667   292A      1.829471  
     293A      1.841206   294A      1.847307   295A      1.853171  
     296A      1.862036   297A      1.866783   298A      1.878793  
     299A      1.894149   300A      1.897688   301A      1.903320  
     302A      1.917926   303A      1.923881   304A      1.936965  
     305A      1.938511   306A      1.939248   307A      1.965294  
     308A      1.977862   309A      1.994374   310A      2.002527  
     311A      2.004397   312A      2.009930   313A      2.012960  
     314A      2.030804   315A      2.046697   316A      2.052016  
     317A      2.061456   318A      2.082669   319A      2.090431  
     320A      2.097701   321A      2.116770   322A      2.131373  
     323A      2.142527   324A      2.147448   325A      2.162083  
     326A      2.173836   327A      2.178304   328A      2.194929  
     329A      2.209079   330A      2.231500   331A      2.232059  
     332A      2.236845   333A      2.250605   334A      2.257481  
     335A      2.264934   336A      2.278604   337A      2.289952  
     338A      2.298892   339A      2.312898   340A      2.330660  
     341A      2.355909   342A      2.362994   343A      2.376891  
     344A      2.386200   345A      2.409182   346A      2.417942  
     347A      2.427349   348A      2.442487   349A      2.452850  
     350A      2.475215   351A      2.479347   352A      2.491531  
     353A      2.507726   354A      2.530672   355A      2.557228  
     356A      2.566563   357A      2.640739   358A      2.665842  
     359A      2.673820   360A      2.700838   361A      2.723786  
     362A      2.767285   363A      2.775832   364A      2.812267  
     365A      2.828955   366A      2.882605   367A      2.901192  
     368A      2.947501   369A      2.963113   370A      2.997211  
     371A      3.032570   372A      3.063846   373A      3.089789  
     374A      3.128565   375A      3.139787   376A      3.185246  
     377A      3.197758   378A      3.236479   379A      3.254427  
     380A      3.284404   381A      3.334092   382A      3.346960  
     383A      3.358231   384A      3.395867   385A      3.417269  
     386A      3.430380   387A      3.433802   388A      3.462628  
     389A      3.472090   390A      3.499947   391A      3.513756  
     392A      3.530415   393A      3.543501   394A      3.560552  
     395A      3.568584   396A      3.572910   397A      3.600166  
     398A      3.607690   399A      3.624231   400A      3.627474  
     401A      3.635319   402A      3.656645   403A      3.667452  
     404A      3.669835   405A      3.683921   406A      3.691538  
     407A      3.700938   408A      3.711551   409A      3.731453  
     410A      3.751766   411A      3.756549   412A      3.759670  
     413A      3.765453   414A      3.781576   415A      3.791875  
     416A      3.804675   417A      3.807290   418A      3.827877  
     419A      3.837309   420A      3.847972   421A      3.865714  
     422A      3.882069   423A      3.897642   424A      3.900163  
     425A      3.903465   426A      3.921822   427A      3.945865  
     428A      3.960404   429A      3.965814   430A      3.984798  
     431A      3.990837   432A      4.003911   433A      4.009738  
     434A      4.019070   435A      4.030388   436A      4.041659  
     437A      4.052828   438A      4.055999   439A      4.061395  
     440A      4.077315   441A      4.086420   442A      4.108585  
     443A      4.118530   444A      4.136046   445A      4.144710  
     446A      4.153862   447A      4.178465   448A      4.188356  
     449A      4.200514   450A      4.208678   451A      4.225643  
     452A      4.230165   453A      4.234228   454A      4.245068  
     455A      4.264405   456A      4.283468   457A      4.299522  
     458A      4.316937   459A      4.320236   460A      4.337242  
     461A      4.351575   462A      4.385527   463A      4.391975  
     464A      4.413109   465A      4.429973   466A      4.449196  
     467A      4.453066   468A      4.470437   469A      4.497450  
     470A      4.502593   471A      4.525522   472A      4.531981  
     473A      4.544352   474A      4.574366   475A      4.581023  
     476A      4.595131   477A      4.624611   478A      4.633813  
     479A      4.639582   480A      4.668282   481A      4.677638  
     482A      4.700481   483A      4.703268   484A      4.729428  
     485A      4.733279   486A      4.744214   487A      4.770587  
     488A      4.799903   489A      4.820092   490A      4.836107  
     491A      4.853593   492A      4.863086   493A      4.869445  
     494A      4.878639   495A      4.896083   496A      4.921972  
     497A      4.924275   498A      4.947728   499A      4.957353  
     500A      4.980597   501A      4.989764   502A      4.993838  
     503A      5.006019   504A      5.020010   505A      5.045437  
     506A      5.056486   507A      5.080740   508A      5.098094  
     509A      5.102945   510A      5.126739   511A      5.137115  
     512A      5.155082   513A      5.175077   514A      5.177607  
     515A      5.187196   516A      5.197618   517A      5.201452  
     518A      5.222624   519A      5.247142   520A      5.253448  
     521A      5.261761   522A      5.285874   523A      5.297114  
     524A      5.329671   525A      5.351483   526A      5.367127  
     527A      5.384291   528A      5.398991   529A      5.403671  
     530A      5.422628   531A      5.431697   532A      5.448271  
     533A      5.474263   534A      5.491423   535A      5.494309  
     536A      5.500086   537A      5.536098   538A      5.550946  
     539A      5.589966   540A      5.602281   541A      5.613169  
     542A      5.635855   543A      5.662782   544A      5.669946  
     545A      5.691038   546A      5.735115   547A      5.754621  
     548A      5.800078   549A      5.807267   550A      5.846213  
     551A      5.849140   552A      5.892777   553A      5.935011  
     554A      5.956749   555A      6.016536   556A      6.033440  
     557A      6.070038   558A      6.086215   559A      6.163793  
     560A      6.188392   561A      6.200735   562A      6.225939  
     563A      6.229358   564A      6.258590   565A      6.285010  
     566A      6.328015   567A      6.385992   568A      6.398133  
     569A      6.443632   570A      6.560173   571A      6.615151  
     572A      6.726956   573A      6.752954   574A      6.770631  
     575A      6.816712   576A      6.822093   577A      6.854075  
     578A      6.896658   579A      6.949159   580A      6.994128  
     581A      7.009624   582A      7.134445   583A      7.358463  
     584A      7.383126   585A      7.552426   586A      7.595126  
     587A      7.694835   588A      7.878359   589A      8.026443  
     590A      8.328307   591A      8.613416   592A     15.906185  
     593A     16.857875   594A     17.846134   595A     18.300421  
     596A     18.542433   597A     19.915732   598A     20.944133  

    Final Occupation by Irrep:
              A 
    DOCC [    28 ]

  @DF-RHF Final Energy:  -309.08160928899815

   => Energetics <=

    Nuclear Repulsion Energy =            300.4385798727620909
    One-Electron Energy =               -1014.2207248318788970
    Two-Electron Energy =                 404.7005356701185974
    Total Energy =                       -309.0816092889981519

Computation Completed

*** tstop() called on node37.bme.utexas.edu at Tue Nov  3 04:40:36 2020
Module time:
	user time   =     248.69 seconds =       4.14 minutes
	system time =      56.90 seconds =       0.95 minutes
	total time  =         72 seconds =       1.20 minutes
Total time:
	user time   =     248.69 seconds =       4.14 minutes
	system time =      56.90 seconds =       0.95 minutes
	total time  =         72 seconds =       1.20 minutes
   => Loading Basis Set <=

    Name: (AUG-CC-PVTZ AUX)
    Role: RIFIT
    Keyword: DF_BASIS_MP2
    atoms 1    entry O          line   264 file /home/xy3866/psi4conda/share/psi4/basis/aug-cc-pvtz-ri.gbs 
    atoms 2-7  entry C          line   148 file /home/xy3866/psi4conda/share/psi4/basis/aug-cc-pvtz-ri.gbs 
    atoms 8-19 entry H          line    30 file /home/xy3866/psi4conda/share/psi4/basis/aug-cc-pvtz-ri.gbs 


*** tstart() called on node37.bme.utexas.edu
*** at Tue Nov  3 04:40:36 2020


  //>>>>>>>>>>>>>>>>>>>>>>>>>>>>>>>>>>>//
  //               DFMP2               //
  //<<<<<<<<<<<<<<<<<<<<<<<<<<<<<<<<<<<//

	 --------------------------------------------------------
	                          DF-MP2                         
	      2nd-Order Density-Fitted Moller-Plesset Theory     
	              RMP2 Wavefunction,   8 Threads             
	                                                         
	        Rob Parrish, Justin Turney, Andy Simmonett,      
	           Ed Hohenstein, and C. David Sherrill          
	 --------------------------------------------------------

   => Auxiliary Basis Set <=

  Basis Set: (AUG-CC-PVTZ AUX)
    Blend: AUG-CC-PVTZ-RI
    Number of shells: 364
    Number of basis function: 1294
    Number of Cartesian functions: 1612
    Spherical Harmonics?: true
    Max angular momentum: 4

	 --------------------------------------------------------
	                 NBF =   598, NAUX =  1294
	 --------------------------------------------------------
	   CLASS    FOCC     OCC    AOCC    AVIR     VIR    FVIR
	   PAIRS       0      28      28     570     570       0
	 --------------------------------------------------------

  DFHelper Memory: AOs need 3.284 GiB; user supplied 22.352 GiB. Using in-core AOs.


         ------------------------------------------------------------
                                     CPHF                           
                                  Rob Parrish                       
         ------------------------------------------------------------

  ==> Geometry <==

    Molecular point group: c1
    Full point group: C1

    Geometry (in Angstrom), charge = 0, multiplicity = 1:

       Center              X                  Y                   Z               Mass       
    ------------   -----------------  -----------------  -----------------  -----------------
         O           -2.319342929172    -1.118890549279    -0.129897757331    15.994914619570
         C           -1.494082929172    -0.029832549279     0.308016242669    12.000000000000
         C           -0.328813029172    -0.226238449279    -0.218232057331    12.000000000000
         C            2.356489070828    -0.448064549279    -0.209479757331    12.000000000000
         C            0.995605070828    -0.284794549279     0.393875242669    12.000000000000
         C           -2.088708929172     1.302915450721    -0.131046757331    12.000000000000
         C            3.234898070828     0.783531450721     0.017572242669    12.000000000000
         H           -1.399203929172    -0.043873549279     1.405440242669     1.007825032230
         H           -0.139331929172    -0.387595549279    -1.382344757331     1.007825032230
         H            2.256704070828    -0.642737549279    -1.283063757331     1.007825032230
         H            2.847790070828    -1.326822549279     0.227085242669     1.007825032230
         H            0.958384070828    -0.162209549279     1.478275242669     1.007825032230
         H           -1.454840929172     2.134416450721     0.188039242669     1.007825032230
         H           -2.179264929172     1.323222450721    -1.220278757331     1.007825032230
         H           -3.085282929172     1.447626450721     0.301972242669     1.007825032230
         H            3.351687070828     0.988654450721     1.085710242669     1.007825032230
         H            2.785215070828     1.665196450721    -0.446578757331     1.007825032230
         H            4.231978070828     0.642048450721    -0.408902757331     1.007825032230
         H           -3.219556929172    -0.948265549279     0.202729242669     1.007825032230

  Nuclear repulsion =  300.438579872762091
  Reference energy  = -309.081609288998152

  ==> Basis Set <==

  Basis Set: AUG-CC-PVTZ
    Blend: AUG-CC-PVTZ
    Number of shells: 206
    Number of basis function: 598
    Number of Cartesian functions: 685
    Spherical Harmonics?: true
    Max angular momentum: 3

  ==> CGRSolver (by Rob Parrish) <==

   Number of roots    =         1
   Preconditioning    =    JACOBI
   Convergence cutoff =     1E-06
   Maximum iterations =       100

  ==> CPHFRHamiltonian (by Rob Parrish) <== 

  ==> MemDFJK: Density-Fitted J/K Matrices <==

    J tasked:                   Yes
    K tasked:                   Yes
    wK tasked:                   No
    OpenMP threads:               8
    Memory [MiB]:             22888
    Algorithm:                 Disk
    Schwarz Cutoff:           1E-12
    Mask sparsity (%):       6.7958
    Fitting Condition:        1E-10

   => Auxiliary Basis Set <=

  Basis Set: (AUG-CC-PVTZ AUX)
    Blend: AUG-CC-PVTZ-JKFIT
    Number of shells: 378
    Number of basis function: 1280
    Number of Cartesian functions: 1577
    Spherical Harmonics?: true
    Max angular momentum: 4

  ==> CPHF Iterations <==

  => Iterations <=

             Iter  Converged  Remaining    Residual
  CGR           1          0          1   8.604E-02
  CGR           2          0          1   1.845E-02
  CGR           3          0          1   7.093E-03
  CGR           4          0          1   1.783E-03
  CGR           5          0          1   6.522E-04
  CGR           6          0          1   2.098E-04
  CGR           7          0          1   7.230E-05
  CGR           8          0          1   2.498E-05
  CGR           9          0          1   8.945E-06
  CGR          10          0          1   2.910E-06
  CGR          11          1          0   7.430E-07

    CGRSolver converged.

	-----------------------------------------------------------
	 ==================> DF-MP2 Energies <==================== 
	-----------------------------------------------------------
	 Reference Energy          =    -309.0816092889981519 [Eh]
	 Singles Energy            =      -0.0000000000000000 [Eh]
	 Same-Spin Energy          =      -0.3220939051753389 [Eh]
	 Opposite-Spin Energy      =      -1.1112107571054533 [Eh]
	 Correlation Energy        =      -1.4333046622807921 [Eh]
	 Total Energy              =    -310.5149139512789702 [Eh]
	-----------------------------------------------------------
	 ================> DF-SCS-MP2 Energies <================== 
	-----------------------------------------------------------
	 SCS Same-Spin Scale       =       0.3333333333333333 [-]
	 SCS Opposite-Spin Scale   =       1.2000000000000000 [-]
	 SCS Same-Spin Energy      =      -0.1073646350584463 [Eh]
	 SCS Opposite-Spin Energy  =      -1.3334529085265439 [Eh]
	 SCS Correlation Energy    =      -1.4408175435849901 [Eh]
	 SCS Total Energy          =    -310.5224268325831645 [Eh]
	-----------------------------------------------------------



Properties will be evaluated at   0.000000,   0.000000,  -0.000000 [a0]

Properties computed using the MP2 density matrix

  Nuclear Dipole Moment: [e a0]
     X:     4.6333      Y:     4.3910      Z:     0.1382

  Electronic Dipole Moment: [e a0]
     X:    -4.6395      Y:    -3.8278      Z:     0.1909

  Dipole Moment: [e a0]
     X:    -0.0062      Y:     0.5632      Z:     0.3291     Total:     0.6524

  Dipole Moment: [D]
     X:    -0.0157      Y:     1.4316      Z:     0.8365     Total:     1.6582


*** tstop() called on node37.bme.utexas.edu at Tue Nov  3 04:42:51 2020
Module time:
	user time   =     641.63 seconds =      10.69 minutes
	system time =      72.98 seconds =       1.22 minutes
	total time  =        135 seconds =       2.25 minutes
Total time:
	user time   =     891.57 seconds =      14.86 minutes
	system time =     130.01 seconds =       2.17 minutes
	total time  =        207 seconds =       3.45 minutes

    Psi4 stopped on: Tuesday, 03 November 2020 04:42AM
    Psi4 wall time for execution: 0:03:28.17

*** Psi4 exiting successfully. Buy a developer a beer!
