057_Isobutane Gaussian SP Calculation on g2-node38.bme.utexas.edu       
Freq      RMP2-FC                                                     6-31G(d)            
Number of atoms                            I               14
Info1-9                                    I   N=           9
          25          24        1002           0           0         100
           6           2           1
Charge                                     I                0
Multiplicity                               I                1
Number of electrons                        I               34
Number of alpha electrons                  I               17
Number of beta electrons                   I               17
Number of basis functions                  I               80
Number of independent functions            I               80
Number of point charges in /Mol/           I                0
Number of translation vectors              I                0
Atomic numbers                             I   N=          14
           6           6           6           6           1           1
           1           1           1           1           1           1
           1           1
Nuclear charges                            R   N=          14
  6.00000000E+00  6.00000000E+00  6.00000000E+00  6.00000000E+00  1.00000000E+00
  1.00000000E+00  1.00000000E+00  1.00000000E+00  1.00000000E+00  1.00000000E+00
  1.00000000E+00  1.00000000E+00  1.00000000E+00  1.00000000E+00
Current cartesian coordinates              R   N=          42
 -5.20103509E-05 -2.43233601E-06 -7.12035447E-01  4.75009658E-01  2.70262234E+00
  1.81953293E-01  2.10305611E+00 -1.76266882E+00  1.81845731E-01 -2.57802685E+00
 -9.39951436E-01  1.82180900E-01 -1.96462357E-04 -6.08567045E-06 -2.78808789E+00
  4.89544361E-01  2.78478710E+00  2.25111916E+00  2.29845199E+00  3.40690841E+00
 -4.94972737E-01 -9.99041248E-01  3.98649813E+00 -4.94819713E-01  2.16714033E+00
 -1.81623048E+00  2.25100659E+00  3.95187796E+00 -1.12806046E+00 -4.95144226E-01
  1.80121982E+00 -3.69399998E+00 -4.94945420E-01 -2.65622573E+00 -9.68546878E-01
  2.25135343E+00 -2.95293260E+00 -2.85842156E+00 -4.94653556E-01 -4.09975982E+00
  2.87073875E-01 -4.94522484E-01
Force Field                                I                0
Int Atom Types                             I   N=          14
           0           0           0           0           0           0
           0           0           0           0           0           0
           0           0
MM charges                                 R   N=          14
  0.00000000E+00  0.00000000E+00  0.00000000E+00  0.00000000E+00  0.00000000E+00
  0.00000000E+00  0.00000000E+00  0.00000000E+00  0.00000000E+00  0.00000000E+00
  0.00000000E+00  0.00000000E+00  0.00000000E+00  0.00000000E+00
Integer atomic weights                     I   N=          14
          12          12          12          12           1           1
           1           1           1           1           1           1
           1           1
Real atomic weights                        R   N=          14
  1.20000000E+01  1.20000000E+01  1.20000000E+01  1.20000000E+01  1.00782504E+00
  1.00782504E+00  1.00782504E+00  1.00782504E+00  1.00782504E+00  1.00782504E+00
  1.00782504E+00  1.00782504E+00  1.00782504E+00  1.00782504E+00
Atom fragment info                         I   N=          14
           0           0           0           0           0           0
           0           0           0           0           0           0
           0           0
Atom residue num                           I   N=          14
           0           0           0           0           0           0
           0           0           0           0           0           0
           0           0
Nuclear spins                              I   N=          14
           0           0           0           0           1           1
           1           1           1           1           1           1
           1           1
Nuclear ZEff                               R   N=          14
 -3.60000000E+00 -3.60000000E+00 -3.60000000E+00 -3.60000000E+00 -1.00000000E+00
 -1.00000000E+00 -1.00000000E+00 -1.00000000E+00 -1.00000000E+00 -1.00000000E+00
 -1.00000000E+00 -1.00000000E+00 -1.00000000E+00 -1.00000000E+00
Nuclear QMom                               R   N=          14
  0.00000000E+00  0.00000000E+00  0.00000000E+00  0.00000000E+00  0.00000000E+00
  0.00000000E+00  0.00000000E+00  0.00000000E+00  0.00000000E+00  0.00000000E+00
  0.00000000E+00  0.00000000E+00  0.00000000E+00  0.00000000E+00
Nuclear GFac                               R   N=          14
  0.00000000E+00  0.00000000E+00  0.00000000E+00  0.00000000E+00  2.79284600E+00
  2.79284600E+00  2.79284600E+00  2.79284600E+00  2.79284600E+00  2.79284600E+00
  2.79284600E+00  2.79284600E+00  2.79284600E+00  2.79284600E+00
MicOpt                                     I   N=          14
          -1          -1          -1          -1          -1          -1
          -1          -1          -1          -1          -1          -1
          -1          -1
Number of contracted shells                I               36
Number of primitive shells                 I               84
Pure/Cartesian d shells                    I                1
Pure/Cartesian f shells                    I                0
Highest angular momentum                   I                2
Largest degree of contraction              I                6
Shell types                                I   N=          36
           0          -1          -1           2           0          -1
          -1           2           0          -1          -1           2
           0          -1          -1           2           0           0
           0           0           0           0           0           0
           0           0           0           0           0           0
           0           0           0           0           0           0
Number of primitives per shell             I   N=          36
           6           3           1           1           6           3
           1           1           6           3           1           1
           6           3           1           1           3           1
           3           1           3           1           3           1
           3           1           3           1           3           1
           3           1           3           1           3           1
Shell to atom map                          I   N=          36
           1           1           1           1           2           2
           2           2           3           3           3           3
           4           4           4           4           5           5
           6           6           7           7           8           8
           9           9          10          10          11          11
          12          12          13          13          14          14
Primitive exponents                        R   N=          84
  3.04752488E+03  4.57369518E+02  1.03948685E+02  2.92101553E+01  9.28666296E+00
  3.16392696E+00  7.86827235E+00  1.88128854E+00  5.44249258E-01  1.68714478E-01
  8.00000000E-01  3.04752488E+03  4.57369518E+02  1.03948685E+02  2.92101553E+01
  9.28666296E+00  3.16392696E+00  7.86827235E+00  1.88128854E+00  5.44249258E-01
  1.68714478E-01  8.00000000E-01  3.04752488E+03  4.57369518E+02  1.03948685E+02
  2.92101553E+01  9.28666296E+00  3.16392696E+00  7.86827235E+00  1.88128854E+00
  5.44249258E-01  1.68714478E-01  8.00000000E-01  3.04752488E+03  4.57369518E+02
  1.03948685E+02  2.92101553E+01  9.28666296E+00  3.16392696E+00  7.86827235E+00
  1.88128854E+00  5.44249258E-01  1.68714478E-01  8.00000000E-01  1.87311370E+01
  2.82539436E+00  6.40121692E-01  1.61277759E-01  1.87311370E+01  2.82539436E+00
  6.40121692E-01  1.61277759E-01  1.87311370E+01  2.82539436E+00  6.40121692E-01
  1.61277759E-01  1.87311370E+01  2.82539436E+00  6.40121692E-01  1.61277759E-01
  1.87311370E+01  2.82539436E+00  6.40121692E-01  1.61277759E-01  1.87311370E+01
  2.82539436E+00  6.40121692E-01  1.61277759E-01  1.87311370E+01  2.82539436E+00
  6.40121692E-01  1.61277759E-01  1.87311370E+01  2.82539436E+00  6.40121692E-01
  1.61277759E-01  1.87311370E+01  2.82539436E+00  6.40121692E-01  1.61277759E-01
  1.87311370E+01  2.82539436E+00  6.40121692E-01  1.61277759E-01
Contraction coefficients                   R   N=          84
  1.83473713E-03  1.40373228E-02  6.88426223E-02  2.32184443E-01  4.67941348E-01
  3.62311985E-01 -1.19332420E-01 -1.60854152E-01  1.14345644E+00  1.00000000E+00
  1.00000000E+00  1.83473713E-03  1.40373228E-02  6.88426223E-02  2.32184443E-01
  4.67941348E-01  3.62311985E-01 -1.19332420E-01 -1.60854152E-01  1.14345644E+00
  1.00000000E+00  1.00000000E+00  1.83473713E-03  1.40373228E-02  6.88426223E-02
  2.32184443E-01  4.67941348E-01  3.62311985E-01 -1.19332420E-01 -1.60854152E-01
  1.14345644E+00  1.00000000E+00  1.00000000E+00  1.83473713E-03  1.40373228E-02
  6.88426223E-02  2.32184443E-01  4.67941348E-01  3.62311985E-01 -1.19332420E-01
 -1.60854152E-01  1.14345644E+00  1.00000000E+00  1.00000000E+00  3.34946043E-02
  2.34726953E-01  8.13757326E-01  1.00000000E+00  3.34946043E-02  2.34726953E-01
  8.13757326E-01  1.00000000E+00  3.34946043E-02  2.34726953E-01  8.13757326E-01
  1.00000000E+00  3.34946043E-02  2.34726953E-01  8.13757326E-01  1.00000000E+00
  3.34946043E-02  2.34726953E-01  8.13757326E-01  1.00000000E+00  3.34946043E-02
  2.34726953E-01  8.13757326E-01  1.00000000E+00  3.34946043E-02  2.34726953E-01
  8.13757326E-01  1.00000000E+00  3.34946043E-02  2.34726953E-01  8.13757326E-01
  1.00000000E+00  3.34946043E-02  2.34726953E-01  8.13757326E-01  1.00000000E+00
  3.34946043E-02  2.34726953E-01  8.13757326E-01  1.00000000E+00
P(S=P) Contraction coefficients            R   N=          84
  0.00000000E+00  0.00000000E+00  0.00000000E+00  0.00000000E+00  0.00000000E+00
  0.00000000E+00  6.89990666E-02  3.16423961E-01  7.44308291E-01  1.00000000E+00
  0.00000000E+00  0.00000000E+00  0.00000000E+00  0.00000000E+00  0.00000000E+00
  0.00000000E+00  0.00000000E+00  6.89990666E-02  3.16423961E-01  7.44308291E-01
  1.00000000E+00  0.00000000E+00  0.00000000E+00  0.00000000E+00  0.00000000E+00
  0.00000000E+00  0.00000000E+00  0.00000000E+00  6.89990666E-02  3.16423961E-01
  7.44308291E-01  1.00000000E+00  0.00000000E+00  0.00000000E+00  0.00000000E+00
  0.00000000E+00  0.00000000E+00  0.00000000E+00  0.00000000E+00  6.89990666E-02
  3.16423961E-01  7.44308291E-01  1.00000000E+00  0.00000000E+00  0.00000000E+00
  0.00000000E+00  0.00000000E+00  0.00000000E+00  0.00000000E+00  0.00000000E+00
  0.00000000E+00  0.00000000E+00  0.00000000E+00  0.00000000E+00  0.00000000E+00
  0.00000000E+00  0.00000000E+00  0.00000000E+00  0.00000000E+00  0.00000000E+00
  0.00000000E+00  0.00000000E+00  0.00000000E+00  0.00000000E+00  0.00000000E+00
  0.00000000E+00  0.00000000E+00  0.00000000E+00  0.00000000E+00  0.00000000E+00
  0.00000000E+00  0.00000000E+00  0.00000000E+00  0.00000000E+00  0.00000000E+00
  0.00000000E+00  0.00000000E+00  0.00000000E+00  0.00000000E+00  0.00000000E+00
  0.00000000E+00  0.00000000E+00  0.00000000E+00  0.00000000E+00
Coordinates of each shell                  R   N=         108
 -5.20103509E-05 -2.43233601E-06 -7.12035447E-01 -5.20103509E-05 -2.43233601E-06
 -7.12035447E-01 -5.20103509E-05 -2.43233601E-06 -7.12035447E-01 -5.20103509E-05
 -2.43233601E-06 -7.12035447E-01  4.75009658E-01  2.70262234E+00  1.81953293E-01
  4.75009658E-01  2.70262234E+00  1.81953293E-01  4.75009658E-01  2.70262234E+00
  1.81953293E-01  4.75009658E-01  2.70262234E+00  1.81953293E-01  2.10305611E+00
 -1.76266882E+00  1.81845731E-01  2.10305611E+00 -1.76266882E+00  1.81845731E-01
  2.10305611E+00 -1.76266882E+00  1.81845731E-01  2.10305611E+00 -1.76266882E+00
  1.81845731E-01 -2.57802685E+00 -9.39951436E-01  1.82180900E-01 -2.57802685E+00
 -9.39951436E-01  1.82180900E-01 -2.57802685E+00 -9.39951436E-01  1.82180900E-01
 -2.57802685E+00 -9.39951436E-01  1.82180900E-01 -1.96462357E-04 -6.08567045E-06
 -2.78808789E+00 -1.96462357E-04 -6.08567045E-06 -2.78808789E+00  4.89544361E-01
  2.78478710E+00  2.25111916E+00  4.89544361E-01  2.78478710E+00  2.25111916E+00
  2.29845199E+00  3.40690841E+00 -4.94972737E-01  2.29845199E+00  3.40690841E+00
 -4.94972737E-01 -9.99041248E-01  3.98649813E+00 -4.94819713E-01 -9.99041248E-01
  3.98649813E+00 -4.94819713E-01  2.16714033E+00 -1.81623048E+00  2.25100659E+00
  2.16714033E+00 -1.81623048E+00  2.25100659E+00  3.95187796E+00 -1.12806046E+00
 -4.95144226E-01  3.95187796E+00 -1.12806046E+00 -4.95144226E-01  1.80121982E+00
 -3.69399998E+00 -4.94945420E-01  1.80121982E+00 -3.69399998E+00 -4.94945420E-01
 -2.65622573E+00 -9.68546878E-01  2.25135343E+00 -2.65622573E+00 -9.68546878E-01
  2.25135343E+00 -2.95293260E+00 -2.85842156E+00 -4.94653556E-01 -2.95293260E+00
 -2.85842156E+00 -4.94653556E-01 -4.09975982E+00  2.87073875E-01 -4.94522484E-01
 -4.09975982E+00  2.87073875E-01 -4.94522484E-01
Constraint Structure                       R   N=          42
 -5.20103509E-05 -2.43233601E-06 -7.12035447E-01  4.75009658E-01  2.70262234E+00
  1.81953293E-01  2.10305611E+00 -1.76266882E+00  1.81845731E-01 -2.57802685E+00
 -9.39951436E-01  1.82180900E-01 -1.96462357E-04 -6.08567045E-06 -2.78808789E+00
  4.89544361E-01  2.78478710E+00  2.25111916E+00  2.29845199E+00  3.40690841E+00
 -4.94972737E-01 -9.99041248E-01  3.98649813E+00 -4.94819713E-01  2.16714033E+00
 -1.81623048E+00  2.25100659E+00  3.95187796E+00 -1.12806046E+00 -4.95144226E-01
  1.80121982E+00 -3.69399998E+00 -4.94945420E-01 -2.65622573E+00 -9.68546878E-01
  2.25135343E+00 -2.95293260E+00 -2.85842156E+00 -4.94653556E-01 -4.09975982E+00
  2.87073875E-01 -4.94522484E-01
Num ILSW                                   I              100
ILSW                                       I   N=         100
           0           1           0           0           2           0
           0           0           0           0           0          -1
           0           0           0           0           0           0
           0           0           0           0           1           0
           1           0           0           0           0           0
           0           0      100000           0          -1           0
           0           0           0           0           0           0
           0           0           0           1           1           0
           0           0           1           0           0           0
           0           0           4          40           0           0
           0           0           0           0           0           0
           0           0           0           0           0           0
           0           0           0           0           0           0
           0           0           0           0           0           0
           0           0           0           0           0           0
           0           0           0           0           0           0
           0           0           0           0
Num RLSW                                   I               40
RLSW                                       R   N=          40
  1.00000000E+00  1.00000000E+00  1.00000000E+00  1.00000000E+00  1.00000000E+00
  0.00000000E+00  0.00000000E+00  1.00000000E+00  0.00000000E+00  0.00000000E+00
  0.00000000E+00  0.00000000E+00  1.00000000E+00  0.00000000E+00  0.00000000E+00
  0.00000000E+00  0.00000000E+00  1.00000000E+00  0.00000000E+00  0.00000000E+00
  0.00000000E+00  0.00000000E+00  1.00000000E+00  0.00000000E+00  0.00000000E+00
  0.00000000E+00  0.00000000E+00  1.00000000E+00  0.00000000E+00  0.00000000E+00
  0.00000000E+00  0.00000000E+00  0.00000000E+00  0.00000000E+00  0.00000000E+00
  0.00000000E+00  0.00000000E+00  0.00000000E+00  1.00000000E+00  1.00000000E+00
MxBond                                     I                4
NBond                                      I   N=          14
           4           4           4           4           1           1
           1           1           1           1           1           1
           1           1
IBond                                      I   N=          56
           2           3           4           5           1           6
           7           8           1           9          10          11
           1          12          13          14           1           0
           0           0           2           0           0           0
           2           0           0           0           2           0
           0           0           3           0           0           0
           3           0           0           0           3           0
           0           0           4           0           0           0
           4           0           0           0           4           0
           0           0
RBond                                      R   N=          56
  1.00000000E+00  1.00000000E+00  1.00000000E+00  1.00000000E+00  1.00000000E+00
  1.00000000E+00  1.00000000E+00  1.00000000E+00  1.00000000E+00  1.00000000E+00
  1.00000000E+00  1.00000000E+00  1.00000000E+00  1.00000000E+00  1.00000000E+00
  1.00000000E+00  1.00000000E+00  0.00000000E+00  0.00000000E+00  0.00000000E+00
  1.00000000E+00  0.00000000E+00  0.00000000E+00  0.00000000E+00  1.00000000E+00
  0.00000000E+00  0.00000000E+00  0.00000000E+00  1.00000000E+00  0.00000000E+00
  0.00000000E+00  0.00000000E+00  1.00000000E+00  0.00000000E+00  0.00000000E+00
  0.00000000E+00  1.00000000E+00  0.00000000E+00  0.00000000E+00  0.00000000E+00
  1.00000000E+00  0.00000000E+00  0.00000000E+00  0.00000000E+00  1.00000000E+00
  0.00000000E+00  0.00000000E+00  0.00000000E+00  1.00000000E+00  0.00000000E+00
  0.00000000E+00  0.00000000E+00  1.00000000E+00  0.00000000E+00  0.00000000E+00
  0.00000000E+00
Virial Ratio                               R      2.000955118647404E+00
SCF Energy                                 R     -1.572984043507597E+02
MP2 Energy                                 R     -1.578287342065233E+02
Total Energy                               R     -1.578287342065233E+02
Post-SCF wavefunction norm                 R      1.534409916872946E+00
RMS Force                                  R      2.814988276443701E-07
RMS Density                                R      3.768335783930754E-10
External E-field                           R   N=          35
  0.00000000E+00  0.00000000E+00  0.00000000E+00  0.00000000E+00  0.00000000E+00
  0.00000000E+00  0.00000000E+00  0.00000000E+00  0.00000000E+00  0.00000000E+00
  0.00000000E+00  0.00000000E+00  0.00000000E+00  0.00000000E+00  0.00000000E+00
  0.00000000E+00  0.00000000E+00  0.00000000E+00  0.00000000E+00  0.00000000E+00
  0.00000000E+00  0.00000000E+00  0.00000000E+00  0.00000000E+00  0.00000000E+00
  0.00000000E+00  0.00000000E+00  0.00000000E+00  0.00000000E+00  0.00000000E+00
  0.00000000E+00  0.00000000E+00  0.00000000E+00  0.00000000E+00  0.00000000E+00
IOpCl                                      I                0
IROHF                                      I                0
Alpha Orbital Energies                     R   N=          80
 -1.12233433E+01 -1.12093342E+01 -1.12093341E+01 -1.12092932E+01 -1.08071200E+00
 -9.25011426E-01 -9.25011253E-01 -7.64350667E-01 -6.30571346E-01 -5.88763237E-01
 -5.88762461E-01 -5.31993957E-01 -5.31993633E-01 -5.08813402E-01 -4.61192619E-01
 -4.61192209E-01 -4.57035746E-01  2.21837559E-01  2.81250532E-01  3.00412013E-01
  3.00412389E-01  3.07511220E-01  3.07511446E-01  3.21647050E-01  3.53199572E-01
  3.53199693E-01  3.87774747E-01  3.92465613E-01  4.32755035E-01  4.32755672E-01
  7.19129101E-01  7.19129863E-01  7.31916891E-01  7.35865512E-01  7.35865950E-01
  8.92989667E-01  9.60396143E-01  9.60397119E-01  9.67906788E-01  9.96987109E-01
  9.96987609E-01  1.11536998E+00  1.15874787E+00  1.16111073E+00  1.17066536E+00
  1.17066664E+00  1.19284883E+00  1.21031804E+00  1.21563048E+00  1.21563128E+00
  1.25964346E+00  1.25964380E+00  1.26180082E+00  1.68919104E+00  1.68919605E+00
  1.71670131E+00  1.71670528E+00  1.89760341E+00  2.02773906E+00  2.09555634E+00
  2.09555688E+00  2.27256569E+00  2.27256680E+00  2.32087444E+00  2.40882557E+00
  2.40882640E+00  2.47250628E+00  2.57858868E+00  2.58576134E+00  2.58576151E+00
  2.61107764E+00  2.83479846E+00  2.85987948E+00  2.85988021E+00  3.06238301E+00
  3.06238382E+00  4.58778980E+00  4.72130121E+00  4.72130145E+00  4.99151538E+00
Alpha MO coefficients                      R   N=        6400
  9.95300646E-01  2.86103064E-02  1.37330227E-08  1.25106854E-09  1.55059834E-04
 -1.97569133E-02 -1.01581092E-07 -8.80134682E-09 -1.21424308E-03 -1.37666250E-03
 -1.37666342E-03 -1.30442465E-03  6.82318217E-11  5.22979268E-09  6.99546228E-12
  2.12634168E-02  6.44004552E-04 -2.50191901E-05 -1.42330517E-04 -1.10186073E-05
  4.43108939E-03 -3.42834330E-04 -1.95053729E-03 -5.31898899E-04 -1.70200064E-04
 -4.50189319E-04 -1.74321481E-04 -5.86463470E-05 -3.04746525E-05 -1.73380840E-04
  2.12633967E-02  6.44004263E-04 -1.10754172E-04  9.28305293E-05 -1.10130410E-05
  4.43108692E-03 -1.51785153E-03  1.27214113E-03 -5.31819463E-04 -3.36232382E-04
 -2.84168595E-04 -1.74309284E-04  1.69320796E-04 -1.34907247E-04  1.13071794E-04
  2.12635607E-02  6.44008929E-04  1.35768591E-04  4.94995956E-05 -1.10303148E-05
  4.43107304E-03  1.86057427E-03  6.78387084E-04 -5.32062809E-04 -4.24145613E-04
 -1.96219468E-04 -1.74347284E-04 -1.10674863E-04  1.65414937E-04  6.03101089E-05
  2.98443883E-04  2.68393298E-03 -1.78132611E-04  2.22601480E-05 -1.50925791E-04
 -6.29733346E-05 -1.50926585E-04 -6.29459813E-05 -1.78132474E-04  2.22592103E-05
 -1.50925832E-04 -6.29506253E-05 -1.50926454E-04 -6.29658830E-05 -1.78131893E-04
  2.22628444E-05 -1.50926353E-04 -6.29498307E-05 -1.50925954E-04 -6.29655851E-05
 -4.63633385E-05 -8.06988029E-07 -9.07345508E-05 -3.82737045E-05  6.23036176E-08
  6.03103841E-06 -1.83146529E-03 -7.72558102E-04  2.59263734E-07 -1.19767232E-04
  1.18729317E-04 -1.82160331E-07 -1.04612621E-04  1.29548579E-04  5.46496561E-05
 -4.40207534E-01 -1.27049874E-02  1.18688516E-04  4.12392943E-05 -3.56357967E-05
  7.05109438E-03 -6.79484507E-04 -3.79437822E-04  1.33806478E-04  7.72123661E-04
  7.76964808E-04  7.51574977E-04  5.38497228E-05 -2.60478321E-05  1.58424405E-05
 -3.70450409E-01 -1.06918044E-02  1.14128451E-04  5.59981783E-05 -3.00072914E-05
  5.93406918E-03 -7.27542202E-04 -2.24131256E-04  1.12753901E-04  6.99318356E-04
  6.04275818E-04  6.32441958E-04 -8.20799586E-06 -1.21605211E-05 -2.90435427E-05
  8.12794299E-01  2.34565303E-02  1.03451534E-04  4.46030889E-05  6.55698829E-05
 -1.30133080E-02 -8.37803566E-04 -3.43319085E-04 -2.45152445E-04 -1.45423972E-03
 -1.40638905E-03 -1.38825593E-03 -2.70597838E-05  1.98481475E-05  5.45706893E-06
 -3.15252782E-07 -1.75651247E-07 -1.13661920E-04 -1.33793793E-03 -2.76651513E-05
 -6.81623839E-04 -1.14026417E-04 -1.47258040E-03 -9.56743670E-05 -1.12607616E-03
 -1.39044248E-05 -4.87605921E-04 -1.05361735E-04 -1.32517688E-03  2.09308371E-04
  2.46836637E-03  1.28071611E-04  1.96564495E-03  1.33167284E-04  2.01225974E-03
  6.97843318E-06  1.22064275E-07  3.82732306E-05 -9.07343427E-05 -1.03855047E-08
 -9.10747669E-07  7.72564978E-04 -1.83147476E-03 -7.50176603E-08 -9.05291066E-05
  9.06817020E-05  3.13842593E-08  1.37715255E-04 -5.46348377E-05  1.29526549E-04
 -6.83254424E-01 -1.97185664E-02 -5.33893121E-05  1.05488891E-04 -5.51773888E-05
  1.09407048E-02  2.51914655E-04 -8.17068553E-04  2.06571419E-04  1.16642002E-03
  1.23820150E-03  1.16685916E-03 -1.90653758E-05  2.10315376E-05  1.38074980E-05
  7.23314245E-01  2.08748828E-02 -3.85247293E-05  1.10103267E-04  5.84368821E-05
 -1.15827948E-02  4.07075416E-04 -7.69073099E-04 -2.18891665E-04 -1.25497532E-03
 -1.29058832E-03 -1.23521283E-03  3.85712138E-05 -2.38933126E-05 -1.06911892E-07
 -4.03812950E-02 -1.16530376E-03 -4.99263062E-05  1.20674113E-04 -3.24362207E-06
  6.46328326E-04  2.87899387E-04 -6.58686229E-04  1.20739208E-05  1.05245790E-04
  3.68901910E-05  6.89914351E-05 -4.39589503E-05  1.06023916E-05 -3.20572544E-05
  4.72714909E-08  2.44437158E-08 -1.76082000E-04 -2.07546956E-03 -1.37723183E-04
 -1.92714694E-03 -8.19765645E-05 -1.41666118E-03  1.86468646E-04  2.19735213E-03
  1.39768277E-04  1.98479207E-03  9.28507909E-05  1.55504322E-03 -1.03833433E-05
 -1.22537511E-04 -5.78129428E-05 -5.68945755E-04  4.48510048E-05  3.71277810E-04
 -3.72991970E-02 -6.47100663E-04  1.23103604E-07  3.06184469E-08  4.48527738E-05
  4.85400782E-03  2.41759434E-06  6.14053881E-07  1.01307962E-04 -4.25102772E-04
 -4.25363589E-04 -1.33715808E-04  1.55181272E-07 -1.46695524E-07 -4.30803461E-08
  5.74868286E-01  1.60755245E-02  8.94641399E-06  5.17632748E-05 -1.31916802E-05
 -7.57299262E-03 -1.14339436E-05 -6.98911503E-05  3.35281311E-04 -1.08890519E-03
 -1.04829129E-03 -1.14158589E-03  8.43091208E-06 -3.20514092E-06 -1.84256844E-05
  5.75044193E-01  1.60806033E-02  4.01541145E-05 -3.38303874E-05 -1.31798529E-05
 -7.57581132E-03 -5.36261963E-05  4.59334183E-05  3.35232321E-04 -1.06519244E-03
 -1.07262681E-03 -1.14188418E-03 -2.45366662E-05 -1.43199530E-05  1.20434667E-05
  5.73434912E-01  1.60341577E-02 -4.95468180E-05 -1.80459871E-05 -1.33051941E-05
 -7.55004607E-03  6.80938409E-05  2.47180799E-05  3.35720270E-04 -1.04950925E-03
 -1.08264158E-03 -1.13913983E-03  1.60774362E-05  1.75301177E-05  6.38728514E-06
 -2.53391631E-04 -1.40201231E-04 -6.90004381E-06  1.17110767E-03  3.74314587E-05
  1.46930433E-03  3.75515761E-05  1.47037267E-03 -6.85566739E-06  1.17164418E-03
  3.74690917E-05  1.46978204E-03  3.75718654E-05  1.47075287E-03 -7.27015651E-06
  1.16674628E-03  3.72566668E-05  1.46627223E-03  3.72665346E-05  1.46639918E-03
 -1.42804710E-01  2.64120654E-01  2.22651447E-06  1.60049207E-07  2.78016034E-02
  2.16422040E-01  5.89452299E-07  5.66966339E-08  6.02651052E-03  6.24893862E-03
  6.24890830E-03  2.97641555E-03 -6.56466087E-09 -2.92643574E-07 -5.70576397E-09
 -8.95964530E-02  1.66030371E-01 -9.82485940E-03 -5.58961575E-02 -1.35277105E-02
  1.30595124E-01 -1.08207695E-03 -6.15605746E-03 -2.23137305E-03  1.66420045E-03
  1.00492143E-02  2.14679310E-03  1.75612286E-03  5.00428138E-04  2.84721361E-03
 -8.95964865E-02  1.66030441E-01 -4.34964521E-02  3.64558095E-02 -1.35254379E-02
  1.30595148E-01 -4.79047117E-03  4.01499064E-03 -2.23115013E-03  6.63626609E-03
  5.07733140E-03  2.14661908E-03 -5.07062997E-03  2.21526889E-03 -1.85672372E-03
 -8.95963283E-02  1.66030145E-01  5.33184254E-02  1.94401846E-02 -1.35323764E-02
  1.30595041E-01  5.87212222E-03  2.14103773E-03 -2.23192427E-03  9.26954662E-03
  2.44341273E-03  2.14723645E-03  3.31449751E-03 -2.71665819E-03 -9.90509334E-04
  7.49514850E-02  1.11846413E-02  4.90640312E-02  9.11888416E-03  4.62549442E-02
  7.41814663E-03  4.62546995E-02  7.41808423E-03  4.90641405E-02  9.11889437E-03
  4.62548541E-02  7.41815182E-03  4.62547974E-02  7.41808703E-03  4.90640487E-02
  9.11892921E-03  4.62547012E-02  7.41807996E-03  4.62547522E-02  7.41806673E-03
 -8.74719561E-08  1.78017664E-07 -1.48288029E-01  8.08501532E-03  1.07453894E-05
  1.35376576E-07 -3.68420894E-02  2.00856294E-03  2.77099828E-06  5.26529109E-03
 -5.26644429E-03  1.15929077E-06  1.20472729E-02 -9.44107268E-03  5.13871867E-04
  1.89886202E-02 -3.51482675E-02 -2.75762084E-02  2.25461214E-03  8.64117476E-06
 -3.65520832E-02 -7.33243697E-03  2.39802173E-04 -3.51117686E-04 -7.22584861E-04
 -6.84595732E-04 -9.83573332E-04  1.33450164E-03  1.28236493E-03  5.45628773E-05
  1.27452655E-01 -2.35917048E-01 -2.38211202E-02 -1.74622705E-03  4.55711275E-05
 -2.45340259E-01 -8.13223715E-03  1.09195192E-03 -2.35919788E-03 -3.59711322E-03
 -5.84812685E-03 -6.60161457E-03 -3.01192330E-03  1.90517290E-03 -6.08792702E-04
 -1.46441475E-01  2.71065722E-01 -2.22336823E-02  3.50610497E-03 -4.89868724E-05
  2.81892648E-01 -8.47003858E-03 -2.67302897E-05  2.71195709E-03  2.72009350E-03
  8.13296455E-03  7.58459109E-03 -1.98307105E-03  2.16915446E-03  2.62516692E-04
 -9.84642946E-08  3.04474149E-08 -1.30821001E-02 -3.52550986E-03 -2.39212628E-02
 -8.86459827E-03 -3.39726559E-03  9.70203627E-04 -8.78109896E-02 -2.36650700E-02
 -9.78781458E-02 -2.94628998E-02 -8.54816223E-02 -2.35226630E-02  1.00893385E-01
  2.71908107E-02  1.01275423E-01  2.84926432E-02  1.09402839E-01  3.23871750E-02
  9.40015308E-09 -1.60166745E-08  8.08507286E-03  1.48287906E-01 -9.30516564E-07
 -4.00219037E-08  2.00868838E-03  3.68420111E-02 -3.12611467E-07 -1.04331869E-02
  1.04332849E-02 -9.75367143E-08  6.08188591E-03  5.15573322E-04  9.44013686E-03
 -1.58132833E-01  2.92706592E-01  4.21759936E-04  2.15112829E-02 -5.45624354E-05
  3.04398176E-01  6.30427829E-04  8.62408881E-03  2.92781180E-03  9.12866876E-03
  2.59051815E-03  8.19044610E-03 -1.21014897E-03 -2.49487631E-04 -2.28845511E-03
  9.55111489E-02 -1.76792796E-01  4.42253660E-03  2.52663438E-02  3.24340841E-05
 -1.83854331E-01 -2.22044732E-04  7.82443148E-03 -1.76840891E-03 -4.03406569E-03
 -3.04423072E-03 -4.94699744E-03 -2.53147047E-03  4.14326007E-04 -1.66538560E-03
  6.26217468E-02 -1.15913939E-01 -8.29748147E-04  2.68535743E-02  2.15834993E-05
 -1.20543881E-01  8.96691883E-04  7.48623276E-03 -1.15947010E-03 -1.92451334E-03
 -2.71638733E-03 -3.24345999E-03  1.89331605E-03 -4.57175512E-04 -1.40242966E-03
  3.08509534E-08 -2.72153058E-08  1.08948507E-01  2.93617130E-02  1.12516553E-01
  3.22795253E-02  1.14981419E-01  3.34606658E-02 -6.58041303E-02 -1.77343069E-02
 -6.04327163E-02 -1.58899876E-02 -7.69746291E-02 -2.38166572E-02 -4.31446327E-02
 -1.16275299E-02 -5.45486051E-02 -1.75705896E-02 -3.55420139E-02 -8.46291328E-03
 -1.26145055E-01  2.39883098E-01 -8.32889573E-06 -2.16385622E-07 -1.21101211E-01
  3.06117244E-01 -3.52416021E-06 -8.23385171E-08 -5.15594378E-02 -5.25109802E-03
 -5.25110539E-03  1.53787614E-02 -4.58428453E-09  1.64275568E-06  3.98333562E-08