opt=Tight                                                               
Freq      RMP2-FC                                                     6-31G(d)            
Number of atoms                            I                9
Info1-9                                    I   N=           9
          18          18        1002           0           0         100
           6           2           1
Charge                                     I               -4
Multiplicity                               I                1
Number of electrons                        I               90
Number of alpha electrons                  I               45
Number of beta electrons                   I               45
Number of basis functions                  I              143
Number of independent functions            I              143
Number of point charges in /Mol/           I                0
Number of translation vectors              I                0
Atomic numbers                             I   N=           9
          15          15           8           8           8           8
           8           8           8
Nuclear charges                            R   N=           9
  1.50000000E+01  1.50000000E+01  8.00000000E+00  8.00000000E+00  8.00000000E+00
  8.00000000E+00  8.00000000E+00  8.00000000E+00  8.00000000E+00
Current cartesian coordinates              R   N=          27
  2.93995331E+00  1.46858223E-03 -2.10078942E-02 -2.94184675E+00 -3.85505913E-03
 -2.14638261E-02  9.52911516E-04 -2.61641599E-02 -1.28606502E+00  4.53061548E+00
  1.00123626E+00 -2.26164923E+00  3.56280479E+00 -2.76842774E+00  6.72410146E-01
 -4.49738363E+00 -1.29760498E+00 -2.13173844E+00 -3.63764556E+00  2.81164084E+00
  3.49367156E-01  2.92451619E+00  1.81007273E+00  2.27021133E+00 -2.88030998E+00
 -1.52627831E+00  2.46709854E+00
Force Field                                I                0
Int Atom Types                             I   N=           9
           0           0           0           0           0           0
           0           0           0
MM charges                                 R   N=           9
  0.00000000E+00  0.00000000E+00  0.00000000E+00  0.00000000E+00  0.00000000E+00
  0.00000000E+00  0.00000000E+00  0.00000000E+00  0.00000000E+00
Integer atomic weights                     I   N=           9
          31          31          16          16          16          16
          16          16          16
Real atomic weights                        R   N=           9
  3.09737634E+01  3.09737634E+01  1.59949146E+01  1.59949146E+01  1.59949146E+01
  1.59949146E+01  1.59949146E+01  1.59949146E+01  1.59949146E+01
Atom fragment info                         I   N=           9
           0           0           0           0           0           0
           0           0           0
Atom residue num                           I   N=           9
           0           0           0           0           0           0
           0           0           0
Nuclear spins                              I   N=           9
           1           1           0           0           0           0
           0           0           0
Nuclear ZEff                               R   N=           9
 -1.29400000E+01 -1.29400000E+01 -5.60000000E+00 -5.60000000E+00 -5.60000000E+00
 -5.60000000E+00 -5.60000000E+00 -5.60000000E+00 -5.60000000E+00
Nuclear QMom                               R   N=           9
  0.00000000E+00  0.00000000E+00  0.00000000E+00  0.00000000E+00  0.00000000E+00
  0.00000000E+00  0.00000000E+00  0.00000000E+00  0.00000000E+00
Nuclear GFac                               R   N=           9
  1.13160000E+00  1.13160000E+00  0.00000000E+00  0.00000000E+00  0.00000000E+00
  0.00000000E+00  0.00000000E+00  0.00000000E+00  0.00000000E+00
MicOpt                                     I   N=           9
          -1          -1          -1          -1          -1          -1
          -1          -1          -1
Number of contracted shells                I               38
Number of primitive shells                 I              111
Pure/Cartesian d shells                    I                1
Pure/Cartesian f shells                    I                0
Highest angular momentum                   I                2
Largest degree of contraction              I                6
Shell types                                I   N=          38
           0          -1          -1          -1           2           0
          -1          -1          -1           2           0          -1
          -1           2           0          -1          -1           2
           0          -1          -1           2           0          -1
          -1           2           0          -1          -1           2
           0          -1          -1           2           0          -1
          -1           2
Number of primitives per shell             I   N=          38
           6           6           3           1           1           6
           6           3           1           1           6           3
           1           1           6           3           1           1
           6           3           1           1           6           3
           1           1           6           3           1           1
           6           3           1           1           6           3
           1           1
Shell to atom map                          I   N=          38
           1           1           1           1           1           2
           2           2           2           2           3           3
           3           3           4           4           4           4
           5           5           5           5           6           6
           6           6           7           7           7           7
           8           8           8           8           9           9
           9           9
Primitive exponents                        R   N=         111
  1.94133000E+04  2.90942000E+03  6.61364000E+02  1.85759000E+02  5.91943000E+01
  2.00310000E+01  3.39478000E+02  8.10101000E+01  2.58780000E+01  9.45221000E+00
  3.66566000E+00  1.46746000E+00  2.15623000E+00  7.48997000E-01  2.83145000E-01
  9.98317000E-02  5.50000000E-01  1.94133000E+04  2.90942000E+03  6.61364000E+02
  1.85759000E+02  5.91943000E+01  2.00310000E+01  3.39478000E+02  8.10101000E+01
  2.58780000E+01  9.45221000E+00  3.66566000E+00  1.46746000E+00  2.15623000E+00
  7.48997000E-01  2.83145000E-01  9.98317000E-02  5.50000000E-01  5.48467166E+03
  8.25234946E+02  1.88046958E+02  5.29645000E+01  1.68975704E+01  5.79963534E+00
  1.55396162E+01  3.59993359E+00  1.01376175E+00  2.70005823E-01  8.00000000E-01
  5.48467166E+03  8.25234946E+02  1.88046958E+02  5.29645000E+01  1.68975704E+01
  5.79963534E+00  1.55396162E+01  3.59993359E+00  1.01376175E+00  2.70005823E-01
  8.00000000E-01  5.48467166E+03  8.25234946E+02  1.88046958E+02  5.29645000E+01
  1.68975704E+01  5.79963534E+00  1.55396162E+01  3.59993359E+00  1.01376175E+00
  2.70005823E-01  8.00000000E-01  5.48467166E+03  8.25234946E+02  1.88046958E+02
  5.29645000E+01  1.68975704E+01  5.79963534E+00  1.55396162E+01  3.59993359E+00
  1.01376175E+00  2.70005823E-01  8.00000000E-01  5.48467166E+03  8.25234946E+02
  1.88046958E+02  5.29645000E+01  1.68975704E+01  5.79963534E+00  1.55396162E+01
  3.59993359E+00  1.01376175E+00  2.70005823E-01  8.00000000E-01  5.48467166E+03
  8.25234946E+02  1.88046958E+02  5.29645000E+01  1.68975704E+01  5.79963534E+00
  1.55396162E+01  3.59993359E+00  1.01376175E+00  2.70005823E-01  8.00000000E-01
  5.48467166E+03  8.25234946E+02  1.88046958E+02  5.29645000E+01  1.68975704E+01
  5.79963534E+00  1.55396162E+01  3.59993359E+00  1.01376175E+00  2.70005823E-01
  8.00000000E-01
Contraction coefficients                   R   N=         111
  1.85159892E-03  1.42061917E-02  6.99994593E-02  2.40078860E-01  4.84761718E-01
  3.35199805E-01 -2.78217010E-03 -3.60499014E-02 -1.16631004E-01  9.68328036E-02
  6.14418023E-01  4.03798015E-01 -2.52924114E-01  3.28518447E-02  1.08125476E+00
  1.00000000E+00  1.00000000E+00  1.85159892E-03  1.42061917E-02  6.99994593E-02
  2.40078860E-01  4.84761718E-01  3.35199805E-01 -2.78217010E-03 -3.60499014E-02
 -1.16631004E-01  9.68328036E-02  6.14418023E-01  4.03798015E-01 -2.52924114E-01
  3.28518447E-02  1.08125476E+00  1.00000000E+00  1.00000000E+00  1.83107443E-03
  1.39501722E-02  6.84450781E-02  2.32714336E-01  4.70192898E-01  3.58520853E-01
 -1.10777550E-01 -1.48026263E-01  1.13076702E+00  1.00000000E+00  1.00000000E+00
  1.83107443E-03  1.39501722E-02  6.84450781E-02  2.32714336E-01  4.70192898E-01
  3.58520853E-01 -1.10777550E-01 -1.48026263E-01  1.13076702E+00  1.00000000E+00
  1.00000000E+00  1.83107443E-03  1.39501722E-02  6.84450781E-02  2.32714336E-01
  4.70192898E-01  3.58520853E-01 -1.10777550E-01 -1.48026263E-01  1.13076702E+00
  1.00000000E+00  1.00000000E+00  1.83107443E-03  1.39501722E-02  6.84450781E-02
  2.32714336E-01  4.70192898E-01  3.58520853E-01 -1.10777550E-01 -1.48026263E-01
  1.13076702E+00  1.00000000E+00  1.00000000E+00  1.83107443E-03  1.39501722E-02
  6.84450781E-02  2.32714336E-01  4.70192898E-01  3.58520853E-01 -1.10777550E-01
 -1.48026263E-01  1.13076702E+00  1.00000000E+00  1.00000000E+00  1.83107443E-03
  1.39501722E-02  6.84450781E-02  2.32714336E-01  4.70192898E-01  3.58520853E-01
 -1.10777550E-01 -1.48026263E-01  1.13076702E+00  1.00000000E+00  1.00000000E+00
  1.83107443E-03  1.39501722E-02  6.84450781E-02  2.32714336E-01  4.70192898E-01
  3.58520853E-01 -1.10777550E-01 -1.48026263E-01  1.13076702E+00  1.00000000E+00
  1.00000000E+00
P(S=P) Contraction coefficients            R   N=         111
  0.00000000E+00  0.00000000E+00  0.00000000E+00  0.00000000E+00  0.00000000E+00
  0.00000000E+00  4.56461619E-03  3.36935719E-02  1.39754883E-01  3.39361717E-01
  4.50920624E-01  2.38585801E-01 -1.77653127E-02  2.74058196E-01  7.85421563E-01
  1.00000000E+00  0.00000000E+00  0.00000000E+00  0.00000000E+00  0.00000000E+00
  0.00000000E+00  0.00000000E+00  0.00000000E+00  4.56461619E-03  3.36935719E-02
  1.39754883E-01  3.39361717E-01  4.50920624E-01  2.38585801E-01 -1.77653127E-02
  2.74058196E-01  7.85421563E-01  1.00000000E+00  0.00000000E+00  0.00000000E+00
  0.00000000E+00  0.00000000E+00  0.00000000E+00  0.00000000E+00  0.00000000E+00
  7.08742682E-02  3.39752839E-01  7.27158577E-01  1.00000000E+00  0.00000000E+00
  0.00000000E+00  0.00000000E+00  0.00000000E+00  0.00000000E+00  0.00000000E+00
  0.00000000E+00  7.08742682E-02  3.39752839E-01  7.27158577E-01  1.00000000E+00
  0.00000000E+00  0.00000000E+00  0.00000000E+00  0.00000000E+00  0.00000000E+00
  0.00000000E+00  0.00000000E+00  7.08742682E-02  3.39752839E-01  7.27158577E-01
  1.00000000E+00  0.00000000E+00  0.00000000E+00  0.00000000E+00  0.00000000E+00
  0.00000000E+00  0.00000000E+00  0.00000000E+00  7.08742682E-02  3.39752839E-01
  7.27158577E-01  1.00000000E+00  0.00000000E+00  0.00000000E+00  0.00000000E+00
  0.00000000E+00  0.00000000E+00  0.00000000E+00  0.00000000E+00  7.08742682E-02
  3.39752839E-01  7.27158577E-01  1.00000000E+00  0.00000000E+00  0.00000000E+00
  0.00000000E+00  0.00000000E+00  0.00000000E+00  0.00000000E+00  0.00000000E+00
  7.08742682E-02  3.39752839E-01  7.27158577E-01  1.00000000E+00  0.00000000E+00
  0.00000000E+00  0.00000000E+00  0.00000000E+00  0.00000000E+00  0.00000000E+00
  0.00000000E+00  7.08742682E-02  3.39752839E-01  7.27158577E-01  1.00000000E+00
  0.00000000E+00
Coordinates of each shell                  R   N=         114
  2.93995331E+00  1.46858223E-03 -2.10078942E-02  2.93995331E+00  1.46858223E-03
 -2.10078942E-02  2.93995331E+00  1.46858223E-03 -2.10078942E-02  2.93995331E+00
  1.46858223E-03 -2.10078942E-02  2.93995331E+00  1.46858223E-03 -2.10078942E-02
 -2.94184675E+00 -3.85505913E-03 -2.14638261E-02 -2.94184675E+00 -3.85505913E-03
 -2.14638261E-02 -2.94184675E+00 -3.85505913E-03 -2.14638261E-02 -2.94184675E+00
 -3.85505913E-03 -2.14638261E-02 -2.94184675E+00 -3.85505913E-03 -2.14638261E-02
  9.52911516E-04 -2.61641599E-02 -1.28606502E+00  9.52911516E-04 -2.61641599E-02
 -1.28606502E+00  9.52911516E-04 -2.61641599E-02 -1.28606502E+00  9.52911516E-04
 -2.61641599E-02 -1.28606502E+00  4.53061548E+00  1.00123626E+00 -2.26164923E+00
  4.53061548E+00  1.00123626E+00 -2.26164923E+00  4.53061548E+00  1.00123626E+00
 -2.26164923E+00  4.53061548E+00  1.00123626E+00 -2.26164923E+00  3.56280479E+00
 -2.76842774E+00  6.72410146E-01  3.56280479E+00 -2.76842774E+00  6.72410146E-01
  3.56280479E+00 -2.76842774E+00  6.72410146E-01  3.56280479E+00 -2.76842774E+00
  6.72410146E-01 -4.49738363E+00 -1.29760498E+00 -2.13173844E+00 -4.49738363E+00
 -1.29760498E+00 -2.13173844E+00 -4.49738363E+00 -1.29760498E+00 -2.13173844E+00
 -4.49738363E+00 -1.29760498E+00 -2.13173844E+00 -3.63764556E+00  2.81164084E+00
  3.49367156E-01 -3.63764556E+00  2.81164084E+00  3.49367156E-01 -3.63764556E+00
  2.81164084E+00  3.49367156E-01 -3.63764556E+00  2.81164084E+00  3.49367156E-01
  2.92451619E+00  1.81007273E+00  2.27021133E+00  2.92451619E+00  1.81007273E+00
  2.27021133E+00  2.92451619E+00  1.81007273E+00  2.27021133E+00  2.92451619E+00
  1.81007273E+00  2.27021133E+00 -2.88030998E+00 -1.52627831E+00  2.46709854E+00
 -2.88030998E+00 -1.52627831E+00  2.46709854E+00 -2.88030998E+00 -1.52627831E+00
  2.46709854E+00 -2.88030998E+00 -1.52627831E+00  2.46709854E+00
Constraint Structure                       R   N=          27
  2.93995331E+00  1.46858223E-03 -2.10078942E-02 -2.94184675E+00 -3.85505913E-03
 -2.14638261E-02  9.52911516E-04 -2.61641599E-02 -1.28606502E+00  4.53061548E+00
  1.00123626E+00 -2.26164923E+00  3.56280479E+00 -2.76842774E+00  6.72410146E-01
 -4.49738363E+00 -1.29760498E+00 -2.13173844E+00 -3.63764556E+00  2.81164084E+00
  3.49367156E-01  2.92451619E+00  1.81007273E+00  2.27021133E+00 -2.88030998E+00
 -1.52627831E+00  2.46709854E+00
Num ILSW                                   I              100
ILSW                                       I   N=         100
           0           1           0           0           2           0
           0           0           0           0           0          -1
           0           0           0           0           0           0
           0           0           0           0           1           0
           1           0           0           0           0           0
           0           0      100000           0          -1           0
           0           0           0           0           0           0
           0           0           0           1           1           0
           0           0           1           0           0           0
           0           0           4          40           0           0
           0           0           0           0           0           0
           0           0           0           0           0           0
           0           0           0           0           0           0
           0           0           0           0           0           0
           0           0           0           0           0           0
           0           0           0           0           0           0
           0           0           0           0
Num RLSW                                   I               40
RLSW                                       R   N=          40
  1.00000000E+00  1.00000000E+00  1.00000000E+00  1.00000000E+00  1.00000000E+00
  0.00000000E+00  0.00000000E+00  1.00000000E+00  0.00000000E+00  0.00000000E+00
  0.00000000E+00  0.00000000E+00  1.00000000E+00  0.00000000E+00  0.00000000E+00
  0.00000000E+00  0.00000000E+00  1.00000000E+00  0.00000000E+00  0.00000000E+00
  0.00000000E+00  0.00000000E+00  1.00000000E+00  0.00000000E+00  0.00000000E+00
  0.00000000E+00  0.00000000E+00  1.00000000E+00  0.00000000E+00  0.00000000E+00
  0.00000000E+00  0.00000000E+00  0.00000000E+00  0.00000000E+00  0.00000000E+00
  0.00000000E+00  0.00000000E+00  0.00000000E+00  1.00000000E+00  1.00000000E+00
MxBond                                     I                4
NBond                                      I   N=           9
           4           4           2           1           1           1
           1           1           1
IBond                                      I   N=          36
           3           4           5           8           3           6
           7           9           1           2           0           0
           1           0           0           0           1           0
           0           0           2           0           0           0
           2           0           0           0           1           0
           0           0           2           0           0           0
RBond                                      R   N=          36
  1.00000000E+00  1.00000000E+00  1.00000000E+00  1.00000000E+00  1.00000000E+00
  1.00000000E+00  1.00000000E+00  1.00000000E+00  1.00000000E+00  1.00000000E+00
  0.00000000E+00  0.00000000E+00  1.00000000E+00  0.00000000E+00  0.00000000E+00
  0.00000000E+00  1.00000000E+00  0.00000000E+00  0.00000000E+00  0.00000000E+00
  1.00000000E+00  0.00000000E+00  0.00000000E+00  0.00000000E+00  1.00000000E+00
  0.00000000E+00  0.00000000E+00  0.00000000E+00  1.00000000E+00  0.00000000E+00
  0.00000000E+00  0.00000000E+00  1.00000000E+00  0.00000000E+00  0.00000000E+00
  0.00000000E+00
Virial Ratio                               R      2.002505116441738E+00
SCF Energy                                 R     -1.206103768156182E+03
MP2 Energy                                 R     -1.207596208880857E+03
Total Energy                               R     -1.207596208880857E+03
Post-SCF wavefunction norm                 R      1.692250540413871E+00
RMS Force                                  R      1.187612045477808E-04
RMS Density                                R      1.269877757473313E-09
External E-field                           R   N=          35
  0.00000000E+00  0.00000000E+00  0.00000000E+00  0.00000000E+00  0.00000000E+00
  0.00000000E+00  0.00000000E+00  0.00000000E+00  0.00000000E+00  0.00000000E+00
  0.00000000E+00  0.00000000E+00  0.00000000E+00  0.00000000E+00  0.00000000E+00
  0.00000000E+00  0.00000000E+00  0.00000000E+00  0.00000000E+00  0.00000000E+00
  0.00000000E+00  0.00000000E+00  0.00000000E+00  0.00000000E+00  0.00000000E+00
  0.00000000E+00  0.00000000E+00  0.00000000E+00  0.00000000E+00  0.00000000E+00
  0.00000000E+00  0.00000000E+00  0.00000000E+00  0.00000000E+00  0.00000000E+00
IOpCl                                      I                0
IROHF                                      I                0
Alpha Orbital Energies                     R   N=         143
 -7.99718071E+01 -7.99714655E+01 -2.04734772E+01 -2.04090701E+01 -2.04087084E+01
 -2.04075228E+01 -2.04073697E+01 -2.04058710E+01 -2.04052071E+01 -7.48948245E+00
 -7.48913779E+00 -5.38891614E+00 -5.38857589E+00 -5.38740655E+00 -5.38731552E+00
 -5.38706027E+00 -5.38697499E+00 -1.28013498E+00 -1.22664169E+00 -1.17925261E+00
 -1.14373615E+00 -1.14337373E+00 -1.14135635E+00 -1.14083412E+00 -6.92840946E-01
 -5.88308810E-01 -5.37509301E-01 -5.16512993E-01 -5.13957872E-01 -4.79263566E-01
 -4.75890986E-01 -4.52998340E-01 -4.27289372E-01 -4.06440342E-01 -3.86913780E-01
 -3.85258291E-01 -3.78805916E-01 -3.78624365E-01 -3.64598938E-01 -3.42290141E-01
 -3.38210347E-01 -3.32050086E-01 -3.24067376E-01 -3.10996001E-01 -3.09262686E-01
  3.23097366E-01  3.53199469E-01  3.81970532E-01  3.96940899E-01  4.26387865E-01
  4.33375812E-01  4.33869562E-01  5.04900522E-01  5.14164536E-01  6.30611259E-01
  6.34348358E-01  6.87979251E-01  6.94834977E-01  6.98811154E-01  7.07422943E-01
  7.16244365E-01  1.01138530E+00  1.01794837E+00  1.03147603E+00  1.03870757E+00
  1.13389013E+00  1.13697127E+00  1.14073899E+00  1.14356135E+00  1.16047979E+00
  1.20447198E+00  1.27603008E+00  1.29311120E+00  1.33735853E+00  1.34509744E+00
  1.39386395E+00  1.41222977E+00  1.41494451E+00  1.41545774E+00  1.42066560E+00
  1.42564669E+00  1.43140366E+00  1.44557096E+00  1.45442308E+00  1.50947507E+00
  1.53922575E+00  1.57554514E+00  1.61446133E+00  1.62672330E+00  1.63567066E+00
  1.63964871E+00  1.66711748E+00  1.73185250E+00  1.73838629E+00  1.74819010E+00
  1.76879515E+00  1.78393116E+00  1.90580585E+00  1.98199797E+00  2.16062206E+00
  2.16921472E+00  2.18026533E+00  2.18936303E+00  2.19029463E+00  2.22074289E+00
  2.22255024E+00  2.22618785E+00  2.22714494E+00  2.23750036E+00  2.23828236E+00
  2.23967713E+00  2.24041685E+00  2.24383729E+00  2.24759827E+00  2.25354812E+00
  2.28909297E+00  2.39517553E+00  2.46342886E+00  2.49128340E+00  2.54930084E+00
  2.56527162E+00  2.58932629E+00  2.67812622E+00  2.69334642E+00  2.71256617E+00
  2.72091655E+00  2.88563516E+00  2.93036090E+00  3.13545205E+00  3.14988597E+00
  3.25502537E+00  3.25681571E+00  3.26721253E+00  3.27374385E+00  3.97425258E+00
  3.99943331E+00  4.19277224E+00  4.21391107E+00  4.22084131E+00  4.27705472E+00
  4.32488172E+00  4.40821521E+00  4.52097878E+00
Alpha MO coefficients                      R   N=       20449
 -4.11815196E-03 -4.42661727E-05 -2.98414134E-06  2.64558349E-06  5.65374686E-06
  2.34065328E-04  1.66596438E-05 -2.84192411E-05 -1.96054290E-05 -5.14703312E-04
  2.28589622E-04 -2.79669114E-05 -3.30317839E-05 -1.13477532E-04 -5.82980507E-05
 -3.14977249E-05 -3.06410993E-06  2.54759173E-05 -1.25898100E-06  9.96421252E-01
  1.34932565E-02  3.95665200E-05 -7.17497684E-07 -1.34559957E-05 -2.19264554E-02
 -5.72028204E-05  1.19225134E-05  2.07179432E-05  1.98822299E-03  1.66903002E-04
  3.16892928E-05  1.48391086E-04  7.45624529E-03  7.44305478E-03  7.44519973E-03
  1.99079415E-07 -1.65160099E-05 -2.61305389E-06 -3.39672899E-05 -1.28158609E-04
  3.18293303E-05 -5.91908481E-07 -4.44984400E-05  9.90656640E-04 -2.91402453E-04
  4.87815761E-06  2.57743845E-04 -1.93088887E-04 -1.11829778E-04 -1.13913731E-04
  7.11773250E-07  6.63208932E-05 -1.16452757E-06 -1.17178359E-05 -4.29449847E-05
  1.87860987E-05  1.00870877E-06 -1.78385425E-06  1.89865166E-04 -8.26845213E-05
 -4.60136413E-06  2.99898152E-05 -3.44403880E-05 -4.17840701E-05 -3.05062918E-05
  1.45190159E-06 -7.08446627E-06 -1.54281209E-06 -7.27003826E-07 -1.17654797E-05
 -6.20867779E-06  1.10758561E-06 -4.24140839E-06  6.96073459E-05 -1.05868340E-05
  1.54792259E-05  1.10977138E-05 -3.06602596E-06  1.69393511E-06  8.34655819E-06
 -2.44761798E-06 -1.14161478E-06  4.30002032E-06 -1.67085105E-05 -1.21515883E-04
 -6.22887244E-05 -6.32706082E-05 -9.83366766E-05  9.00471881E-04  2.43648173E-04
  2.39632470E-04  3.66544305E-04 -9.03585650E-05 -7.42243720E-05 -1.24898820E-04
 -3.94532112E-05 -6.59013031E-05 -5.32566324E-05 -4.10651525E-06 -7.39317073E-05
 -2.10956355E-05  1.26300634E-04  2.41194781E-05  6.49234206E-04  7.38679478E-05
 -4.51781491E-04 -9.78210683E-05 -1.51814144E-05 -1.49212968E-04 -1.10400937E-05
  4.24555944E-05  4.11919297E-06 -1.46513807E-05 -7.16601868E-06 -3.17751922E-05
 -8.69903468E-06  5.03762774E-06  2.33723610E-06  1.92171729E-04  1.24721217E-05
 -3.62167956E-05 -4.16318746E-05 -3.53672493E-05 -1.17437442E-05 -8.23879631E-06
  3.59455181E-06  2.26588185E-06 -3.14162039E-07 -2.87853339E-06 -6.87752757E-05
  3.09576073E-06 -6.49080234E-05  1.15783493E-04  6.03752735E-04 -1.53553280E-05
  2.20574858E-04 -4.12953121E-04 -8.21547963E-07 -5.42869375E-05 -1.11174908E-04
  3.82090211E-06 -5.60575194E-06  7.53728229E-05  9.96421239E-01  1.34930642E-02
 -3.95085436E-05  2.07996601E-07 -1.34930989E-05 -2.19272534E-02  5.64115978E-05
 -1.07576059E-05  2.36746603E-05  1.99012240E-03 -1.71640834E-04 -2.59934998E-05
  1.56420701E-04  7.45566381E-03  7.44317032E-03  7.44514545E-03  8.85488733E-07
  1.69823270E-05  2.23213998E-06  4.12254655E-03  6.73581067E-05  3.38300849E-06
 -2.60381657E-06  6.28968160E-06  5.39392105E-05 -1.79583656E-05  2.95570623E-05
 -2.77773178E-05 -5.10305039E-04 -2.33537043E-04  2.79292316E-05 -4.01958563E-05
 -5.13483273E-05  2.33380693E-06  2.78977485E-05 -4.12100857E-06 -2.49198393E-05
  2.53039556E-06 -3.42354473E-05 -1.29688950E-04 -3.18156488E-05 -1.27699847E-06
 -4.49942617E-05  1.00150579E-03  2.87294374E-04  5.46859075E-06  2.59840580E-04
 -1.95420894E-04 -1.12350205E-04 -1.15329398E-04 -1.76694034E-06 -6.61150323E-05
  6.99820959E-07 -1.74491162E-05 -1.24125293E-04  6.41976910E-05  4.90648237E-05
 -1.04916624E-04  9.14473702E-04 -2.51972294E-04 -1.86581155E-04  3.93319396E-04
 -9.44610744E-05 -6.55309556E-05 -1.36327694E-04 -3.10140214E-05  7.11225648E-05
  4.33099792E-05 -3.41027074E-06 -7.15267824E-05  1.82610226E-05 -1.23384807E-04
  3.85282221E-05  6.34824652E-04 -6.24304583E-05  4.37773504E-04 -1.49174292E-04
 -1.10020891E-05 -1.44139458E-04 -1.38989572E-05  3.76781062E-05 -8.02458693E-06
  3.26404701E-05 -1.14183026E-05 -4.29120015E-05 -1.83392689E-05 -1.69436296E-06
 -2.50877717E-06  1.92879729E-04  8.28266250E-05  9.10495398E-06  3.29418676E-05
 -3.37604679E-05 -4.04680538E-05 -3.01121592E-05  1.78696849E-06  6.35454015E-06
  2.01551409E-06 -1.15953270E-06 -1.38240181E-05  4.77712322E-06 -4.18214454E-07
 -3.85781422E-06  7.91838943E-05  1.60421245E-05 -1.85583875E-05  1.32913594E-05
 -3.80449930E-06 -1.35874876E-06  6.89114784E-06 -2.13455794E-06  1.55058934E-06
 -3.99635449E-06 -2.74831223E-06 -6.81589383E-05 -1.98176821E-06  7.75365180E-05
  1.07140664E-04  6.02841540E-04  1.17807754E-05 -2.65288422E-04 -3.84951899E-04
 -4.19580718E-07 -7.04324885E-05 -9.41563206E-05  2.32398126E-06  2.57513512E-06
 -8.15714445E-05 -8.46409610E-06 -3.67221848E-05  8.50703560E-06 -5.74764277E-06
  5.14050653E-06  2.19872491E-04 -1.38110633E-05  3.64208955E-05 -5.59602139E-05
 -4.08266371E-05 -1.58655004E-05 -1.21242738E-05  3.40698016E-06 -2.99689318E-06
  2.76436288E-07  6.84392237E-06 -3.92044593E-05  6.85620175E-05 -5.10524050E-07
  2.66261897E-05  7.08478884E-06 -2.82965014E-04  7.94862352E-06 -1.08172313E-04
 -3.98262354E-04  1.21535391E-04  2.09218326E-05  2.98506245E-04  2.66467443E-04
 -3.79761401E-05  1.18166205E-05  3.59350010E-06  1.24644519E-04 -2.82683624E-06
  6.77463118E-06 -3.89422661E-05 -6.86964702E-05  1.66393661E-06  2.63197120E-05
  3.35387077E-06  2.82119478E-04 -1.31854640E-05 -1.04704822E-04 -3.95165916E-04
 -1.19421374E-04 -1.06334695E-05  3.02941080E-04  2.67241982E-04 -3.55012644E-05
  1.15792596E-05 -1.16295500E-06 -1.24322511E-04  5.52265720E-06  9.94595698E-01
  2.10711457E-02  7.94861982E-07  1.40146692E-05  6.94923095E-04  4.64641502E-03
 -1.18553700E-06 -7.63414219E-06 -3.92711635E-04 -4.36028190E-03 -4.07968300E-03
 -4.17275267E-03 -1.35179100E-06  3.74438433E-09 -2.00546491E-06 -1.08488118E-04
 -2.82696410E-05 -1.07937000E-05  1.72308357E-06  5.21931355E-06  2.41397502E-04
  3.72642897E-05 -3.03790594E-05  2.41066760E-05 -7.43514714E-05  3.01255410E-06
 -2.53514563E-06 -1.16723743E-05  1.22100816E-07 -1.39599747E-06 -1.07610160E-04
 -9.21903825E-06 -3.67394526E-07  8.46052803E-06  1.28767254E-05  8.97150056E-05
  2.41395386E-05  1.48266243E-05 -6.27573244E-05 -2.70979138E-05  1.03339461E-05
  5.83233460E-06  1.41510045E-05 -1.83890390E-05 -4.79457247E-06 -1.09791372E-04
 -2.79294854E-05  1.05762955E-05 -1.69546452E-06  5.86585123E-06  2.37873550E-04
 -3.77786852E-05  3.65477464E-05  1.80144611E-05 -7.27966969E-05  3.27255945E-06
 -3.02582375E-06 -1.37581779E-05  1.26560161E-06  1.23190172E-06 -1.08532625E-04
 -1.20833329E-05  1.14258469E-06 -6.90691697E-06  1.35531740E-05  1.06727427E-04
 -2.51257066E-05 -2.34259661E-05 -6.08711519E-05 -3.06495019E-05  9.44666037E-06
  2.92676976E-06  1.56396219E-05  1.72161158E-05  4.36479710E-06 -1.03002302E-04
  2.26112060E-05  6.12669589E-06 -1.12105300E-05  3.67406051E-06 -8.73340989E-05
  1.32552583E-05  2.56431793E-05 -3.12852940E-05  5.93890659E-06  2.94179414E-05
  3.08332027E-05 -7.89944186E-06 -2.17665850E-05 -6.38478627E-07 -1.02293864E-04
  2.60850021E-05 -6.55237261E-06  1.06397173E-05  1.79960164E-06 -1.05955239E-04
 -1.18565034E-05 -2.69369344E-05 -2.40476206E-05  9.27753275E-06  3.25513453E-05
  3.30816276E-05 -5.98163815E-06  2.20250832E-05  1.23826924E-06  4.37494348E-08
  1.47714695E-06  3.54799724E-08 -2.21000610E-07 -8.30583664E-08  5.51678582E-06
 -5.28688994E-07  3.02047303E-06 -9.32146870E-06 -1.19786794E-04  6.02121470E-05
  2.92545436E-05 -6.23945477E-05  1.68413017E-06 -7.94733044E-06 -1.42186879E-06
  4.44939583E-06 -1.12128508E-05 -6.59410994E-06  1.68780642E-05 -6.78897481E-05
 -2.15900371E-06  1.97340676E-05 -3.26092639E-05  5.85094475E-04  1.15509701E-05
 -1.98988102E-04  3.25461226E-04 -3.57613720E-04 -1.37472808E-05  1.86433919E-04
 -3.01122194E-04 -1.60385945E-04 -1.24633596E-04 -4.17326019E-05 -1.89675763E-06
  3.51018029E-06 -9.18294686E-05  1.07330772E-04 -1.24040911E-05 -7.33883422E-07
  8.94353692E-06 -1.35169948E-05  8.95698564E-05  2.26281534E-05 -2.09387637E-05
  3.73502697E-05 -1.05889791E-06 -8.47842347E-06 -2.49126003E-05 -7.23685978E-06
  1.34701782E-05  1.20345035E-05 -4.07094454E-05  7.73440471E-06  1.41373717E-06
  5.07728881E-07 -4.62168566E-07 -4.59141187E-05 -8.28337309E-07  1.03083432E-06
 -4.07100342E-06  7.85736227E-06  7.62020407E-06  5.23759597E-06 -3.27619026E-07
  1.27841393E-06  1.29139716E-06 -2.09431319E-04 -3.48039951E-05  6.07588367E-06
 -2.75876601E-06 -2.08344052E-06  1.37794549E-04 -3.06115394E-05  2.85870812E-05
  6.91029094E-06 -1.87976056E-05 -1.86458859E-05 -2.37562452E-05 -3.67549874E-06
 -1.33776909E-07  2.55870008E-07 -2.65731789E-03 -4.65442766E-05  1.54291396E-06
  1.17233058E-05 -1.35092595E-05 -1.96179851E-05 -2.75993800E-06 -2.16750796E-05
  1.77550609E-05  2.34281845E-05  2.22536552E-05 -1.07032258E-05  5.45432503E-06
 -5.92908074E-06  1.24239656E-05 -5.55928571E-03 -1.08693399E-04 -1.24258393E-06
  8.68785919E-06 -1.65607412E-05 -2.69253699E-05  3.26591283E-06 -7.33390157E-06
  2.80129831E-05  3.29938131E-05  1.58334246E-05  1.81006450E-05  7.20079945E-07
 -3.46761818E-06  2.40737336E-05 -1.25874546E-03 -6.18429559E-05  7.50472304E-06