159_PropionaldehydeOxime Gaussian SP Calculation on g2-node38.bme.utexas
Freq      RMP2-FC                                                     6-31G(d)            
Number of atoms                            I               12
Info1-9                                    I   N=           9
          23          22        1002           0           0         100
           6           2           1
Charge                                     I                0
Multiplicity                               I                1
Number of electrons                        I               40
Number of alpha electrons                  I               20
Number of beta electrons                   I               20
Number of basis functions                  I               89
Number of independent functions            I               89
Number of point charges in /Mol/           I                0
Number of translation vectors              I                0
Atomic numbers                             I   N=          12
           8           7           6           6           6           1
           1           1           1           1           1           1
Nuclear charges                            R   N=          12
  8.00000000E+00  7.00000000E+00  6.00000000E+00  6.00000000E+00  6.00000000E+00
  1.00000000E+00  1.00000000E+00  1.00000000E+00  1.00000000E+00  1.00000000E+00
  1.00000000E+00  1.00000000E+00
Current cartesian coordinates              R   N=          36
  4.36773842E+00 -6.37457833E-01  1.05953588E-01  2.14647116E+00  6.30933996E-01
 -6.89289454E-01 -2.26543763E+00  1.13860842E+00  2.52557832E-01 -4.20046139E+00
 -9.16601372E-01 -3.84858755E-01  2.88400266E-01  4.73473612E-02  7.64498126E-01
 -2.89849141E+00  2.19573782E+00  1.91978060E+00 -2.09375272E+00  2.48638672E+00
 -1.30598519E+00 -3.63939104E+00 -1.93369366E+00 -2.09289785E+00 -4.36496557E+00
 -2.28818454E+00  1.15324570E+00 -6.06744976E+00 -9.10538228E-02 -7.04659078E-01
  5.63605638E-01 -1.26529562E+00  2.33655365E+00  5.59823185E+00 -3.68986741E-02
 -1.12182357E+00
Force Field                                I                0
Int Atom Types                             I   N=          12
           0           0           0           0           0           0
           0           0           0           0           0           0
MM charges                                 R   N=          12
  0.00000000E+00  0.00000000E+00  0.00000000E+00  0.00000000E+00  0.00000000E+00
  0.00000000E+00  0.00000000E+00  0.00000000E+00  0.00000000E+00  0.00000000E+00
  0.00000000E+00  0.00000000E+00
Integer atomic weights                     I   N=          12
          16          14          12          12          12           1
           1           1           1           1           1           1
Real atomic weights                        R   N=          12
  1.59949146E+01  1.40030740E+01  1.20000000E+01  1.20000000E+01  1.20000000E+01
  1.00782504E+00  1.00782504E+00  1.00782504E+00  1.00782504E+00  1.00782504E+00
  1.00782504E+00  1.00782504E+00
Atom fragment info                         I   N=          12
           0           0           0           0           0           0
           0           0           0           0           0           0
Atom residue num                           I   N=          12
           0           0           0           0           0           0
           0           0           0           0           0           0
Nuclear spins                              I   N=          12
           0           2           0           0           0           1
           1           1           1           1           1           1
Nuclear ZEff                               R   N=          12
 -5.60000000E+00 -4.55000000E+00 -3.60000000E+00 -3.60000000E+00 -3.60000000E+00
 -1.00000000E+00 -1.00000000E+00 -1.00000000E+00 -1.00000000E+00 -1.00000000E+00
 -1.00000000E+00 -1.00000000E+00
Nuclear QMom                               R   N=          12
  0.00000000E+00  2.04400000E+00  0.00000000E+00  0.00000000E+00  0.00000000E+00
  0.00000000E+00  0.00000000E+00  0.00000000E+00  0.00000000E+00  0.00000000E+00
  0.00000000E+00  0.00000000E+00
Nuclear GFac                               R   N=          12
  0.00000000E+00  4.03761000E-01  0.00000000E+00  0.00000000E+00  0.00000000E+00
  2.79284600E+00  2.79284600E+00  2.79284600E+00  2.79284600E+00  2.79284600E+00
  2.79284600E+00  2.79284600E+00
MicOpt                                     I   N=          12
          -1          -1          -1          -1          -1          -1
          -1          -1          -1          -1          -1          -1
Number of contracted shells                I               34
Number of primitive shells                 I               83
Pure/Cartesian d shells                    I                1
Pure/Cartesian f shells                    I                0
Highest angular momentum                   I                2
Largest degree of contraction              I                6
Shell types                                I   N=          34
           0          -1          -1           2           0          -1
          -1           2           0          -1          -1           2
           0          -1          -1           2           0          -1
          -1           2           0           0           0           0
           0           0           0           0           0           0
           0           0           0           0
Number of primitives per shell             I   N=          34
           6           3           1           1           6           3
           1           1           6           3           1           1
           6           3           1           1           6           3
           1           1           3           1           3           1
           3           1           3           1           3           1
           3           1           3           1
Shell to atom map                          I   N=          34
           1           1           1           1           2           2
           2           2           3           3           3           3
           4           4           4           4           5           5
           5           5           6           6           7           7
           8           8           9           9          10          10
          11          11          12          12
Primitive exponents                        R   N=          83
  5.48467166E+03  8.25234946E+02  1.88046958E+02  5.29645000E+01  1.68975704E+01
  5.79963534E+00  1.55396162E+01  3.59993359E+00  1.01376175E+00  2.70005823E-01
  8.00000000E-01  4.17351146E+03  6.27457911E+02  1.42902093E+02  4.02343293E+01
  1.28202129E+01  4.39043701E+00  1.16263619E+01  2.71627981E+00  7.72218397E-01
  2.12031498E-01  8.00000000E-01  3.04752488E+03  4.57369518E+02  1.03948685E+02
  2.92101553E+01  9.28666296E+00  3.16392696E+00  7.86827235E+00  1.88128854E+00
  5.44249258E-01  1.68714478E-01  8.00000000E-01  3.04752488E+03  4.57369518E+02
  1.03948685E+02  2.92101553E+01  9.28666296E+00  3.16392696E+00  7.86827235E+00
  1.88128854E+00  5.44249258E-01  1.68714478E-01  8.00000000E-01  3.04752488E+03
  4.57369518E+02  1.03948685E+02  2.92101553E+01  9.28666296E+00  3.16392696E+00
  7.86827235E+00  1.88128854E+00  5.44249258E-01  1.68714478E-01  8.00000000E-01
  1.87311370E+01  2.82539436E+00  6.40121692E-01  1.61277759E-01  1.87311370E+01
  2.82539436E+00  6.40121692E-01  1.61277759E-01  1.87311370E+01  2.82539436E+00
  6.40121692E-01  1.61277759E-01  1.87311370E+01  2.82539436E+00  6.40121692E-01
  1.61277759E-01  1.87311370E+01  2.82539436E+00  6.40121692E-01  1.61277759E-01
  1.87311370E+01  2.82539436E+00  6.40121692E-01  1.61277759E-01  1.87311370E+01
  2.82539436E+00  6.40121692E-01  1.61277759E-01
Contraction coefficients                   R   N=          83
  1.83107443E-03  1.39501722E-02  6.84450781E-02  2.32714336E-01  4.70192898E-01
  3.58520853E-01 -1.10777550E-01 -1.48026263E-01  1.13076702E+00  1.00000000E+00
  1.00000000E+00  1.83477216E-03  1.39946270E-02  6.85865518E-02  2.32240873E-01
  4.69069948E-01  3.60455199E-01 -1.14961182E-01 -1.69117479E-01  1.14585195E+00
  1.00000000E+00  1.00000000E+00  1.83473713E-03  1.40373228E-02  6.88426223E-02
  2.32184443E-01  4.67941348E-01  3.62311985E-01 -1.19332420E-01 -1.60854152E-01
  1.14345644E+00  1.00000000E+00  1.00000000E+00  1.83473713E-03  1.40373228E-02
  6.88426223E-02  2.32184443E-01  4.67941348E-01  3.62311985E-01 -1.19332420E-01
 -1.60854152E-01  1.14345644E+00  1.00000000E+00  1.00000000E+00  1.83473713E-03
  1.40373228E-02  6.88426223E-02  2.32184443E-01  4.67941348E-01  3.62311985E-01
 -1.19332420E-01 -1.60854152E-01  1.14345644E+00  1.00000000E+00  1.00000000E+00
  3.34946043E-02  2.34726953E-01  8.13757326E-01  1.00000000E+00  3.34946043E-02
  2.34726953E-01  8.13757326E-01  1.00000000E+00  3.34946043E-02  2.34726953E-01
  8.13757326E-01  1.00000000E+00  3.34946043E-02  2.34726953E-01  8.13757326E-01
  1.00000000E+00  3.34946043E-02  2.34726953E-01  8.13757326E-01  1.00000000E+00
  3.34946043E-02  2.34726953E-01  8.13757326E-01  1.00000000E+00  3.34946043E-02
  2.34726953E-01  8.13757326E-01  1.00000000E+00
P(S=P) Contraction coefficients            R   N=          83
  0.00000000E+00  0.00000000E+00  0.00000000E+00  0.00000000E+00  0.00000000E+00
  0.00000000E+00  7.08742682E-02  3.39752839E-01  7.27158577E-01  1.00000000E+00
  0.00000000E+00  0.00000000E+00  0.00000000E+00  0.00000000E+00  0.00000000E+00
  0.00000000E+00  0.00000000E+00  6.75797439E-02  3.23907296E-01  7.40895140E-01
  1.00000000E+00  0.00000000E+00  0.00000000E+00  0.00000000E+00  0.00000000E+00
  0.00000000E+00  0.00000000E+00  0.00000000E+00  6.89990666E-02  3.16423961E-01
  7.44308291E-01  1.00000000E+00  0.00000000E+00  0.00000000E+00  0.00000000E+00
  0.00000000E+00  0.00000000E+00  0.00000000E+00  0.00000000E+00  6.89990666E-02
  3.16423961E-01  7.44308291E-01  1.00000000E+00  0.00000000E+00  0.00000000E+00
  0.00000000E+00  0.00000000E+00  0.00000000E+00  0.00000000E+00  0.00000000E+00
  6.89990666E-02  3.16423961E-01  7.44308291E-01  1.00000000E+00  0.00000000E+00
  0.00000000E+00  0.00000000E+00  0.00000000E+00  0.00000000E+00  0.00000000E+00
  0.00000000E+00  0.00000000E+00  0.00000000E+00  0.00000000E+00  0.00000000E+00
  0.00000000E+00  0.00000000E+00  0.00000000E+00  0.00000000E+00  0.00000000E+00
  0.00000000E+00  0.00000000E+00  0.00000000E+00  0.00000000E+00  0.00000000E+00
  0.00000000E+00  0.00000000E+00  0.00000000E+00  0.00000000E+00  0.00000000E+00
  0.00000000E+00  0.00000000E+00  0.00000000E+00
Coordinates of each shell                  R   N=         102
  4.36773842E+00 -6.37457833E-01  1.05953588E-01  4.36773842E+00 -6.37457833E-01
  1.05953588E-01  4.36773842E+00 -6.37457833E-01  1.05953588E-01  4.36773842E+00
 -6.37457833E-01  1.05953588E-01  2.14647116E+00  6.30933996E-01 -6.89289454E-01
  2.14647116E+00  6.30933996E-01 -6.89289454E-01  2.14647116E+00  6.30933996E-01
 -6.89289454E-01  2.14647116E+00  6.30933996E-01 -6.89289454E-01 -2.26543763E+00
  1.13860842E+00  2.52557832E-01 -2.26543763E+00  1.13860842E+00  2.52557832E-01
 -2.26543763E+00  1.13860842E+00  2.52557832E-01 -2.26543763E+00  1.13860842E+00
  2.52557832E-01 -4.20046139E+00 -9.16601372E-01 -3.84858755E-01 -4.20046139E+00
 -9.16601372E-01 -3.84858755E-01 -4.20046139E+00 -9.16601372E-01 -3.84858755E-01
 -4.20046139E+00 -9.16601372E-01 -3.84858755E-01  2.88400266E-01  4.73473612E-02
  7.64498126E-01  2.88400266E-01  4.73473612E-02  7.64498126E-01  2.88400266E-01
  4.73473612E-02  7.64498126E-01  2.88400266E-01  4.73473612E-02  7.64498126E-01
 -2.89849141E+00  2.19573782E+00  1.91978060E+00 -2.89849141E+00  2.19573782E+00
  1.91978060E+00 -2.09375272E+00  2.48638672E+00 -1.30598519E+00 -2.09375272E+00
  2.48638672E+00 -1.30598519E+00 -3.63939104E+00 -1.93369366E+00 -2.09289785E+00
 -3.63939104E+00 -1.93369366E+00 -2.09289785E+00 -4.36496557E+00 -2.28818454E+00
  1.15324570E+00 -4.36496557E+00 -2.28818454E+00  1.15324570E+00 -6.06744976E+00
 -9.10538228E-02 -7.04659078E-01 -6.06744976E+00 -9.10538228E-02 -7.04659078E-01
  5.63605638E-01 -1.26529562E+00  2.33655365E+00  5.63605638E-01 -1.26529562E+00
  2.33655365E+00  5.59823185E+00 -3.68986741E-02 -1.12182357E+00  5.59823185E+00
 -3.68986741E-02 -1.12182357E+00
Constraint Structure                       R   N=          36
  4.36773842E+00 -6.37457833E-01  1.05953588E-01  2.14647116E+00  6.30933996E-01
 -6.89289454E-01 -2.26543763E+00  1.13860842E+00  2.52557832E-01 -4.20046139E+00
 -9.16601372E-01 -3.84858755E-01  2.88400266E-01  4.73473612E-02  7.64498126E-01
 -2.89849141E+00  2.19573782E+00  1.91978060E+00 -2.09375272E+00  2.48638672E+00
 -1.30598519E+00 -3.63939104E+00 -1.93369366E+00 -2.09289785E+00 -4.36496557E+00
 -2.28818454E+00  1.15324570E+00 -6.06744976E+00 -9.10538228E-02 -7.04659078E-01
  5.63605638E-01 -1.26529562E+00  2.33655365E+00  5.59823185E+00 -3.68986741E-02
 -1.12182357E+00
Num ILSW                                   I              100
ILSW                                       I   N=         100
           0           1           0           0           2           0
           0           0           0           0           0          -1
           0           0           0           0           0           0
           0           0           0           0           1           0
           1           0           0           0           0           0
           0           0      100000           0          -1           0
           0           0           0           0           0           0
           0           0           0           1           1           0
           0           0           1           0           0           0
           0           0           4          40           0           0
           0           0           0           0           0           0
           0           0           0           0           0           0
           0           0           0           0           0           0
           0           0           0           0           0           0
           0           0           0           0           0           0
           0           0           0           0           0           0
           0           0           0           0
Num RLSW                                   I               40
RLSW                                       R   N=          40
  1.00000000E+00  1.00000000E+00  1.00000000E+00  1.00000000E+00  1.00000000E+00
  0.00000000E+00  0.00000000E+00  1.00000000E+00  0.00000000E+00  0.00000000E+00
  0.00000000E+00  0.00000000E+00  1.00000000E+00  0.00000000E+00  0.00000000E+00
  0.00000000E+00  0.00000000E+00  1.00000000E+00  0.00000000E+00  0.00000000E+00
  0.00000000E+00  0.00000000E+00  1.00000000E+00  0.00000000E+00  0.00000000E+00
  0.00000000E+00  0.00000000E+00  1.00000000E+00  0.00000000E+00  0.00000000E+00
  0.00000000E+00  0.00000000E+00  0.00000000E+00  0.00000000E+00  0.00000000E+00
  0.00000000E+00  0.00000000E+00  0.00000000E+00  1.00000000E+00  1.00000000E+00
MxBond                                     I                4
NBond                                      I   N=          12
           2           2           4           4           3           1
           1           1           1           1           1           1
IBond                                      I   N=          48
           2          12           0           0           1           5
           0           0           4           5           6           7
           3           8           9          10           2           3
          11           0           3           0           0           0
           3           0           0           0           4           0
           0           0           4           0           0           0
           4           0           0           0           5           0
           0           0           1           0           0           0
RBond                                      R   N=          48
  1.00000000E+00  1.00000000E+00  0.00000000E+00  0.00000000E+00  1.00000000E+00
  2.00000000E+00  0.00000000E+00  0.00000000E+00  1.00000000E+00  1.00000000E+00
  1.00000000E+00  1.00000000E+00  1.00000000E+00  1.00000000E+00  1.00000000E+00
  1.00000000E+00  2.00000000E+00  1.00000000E+00  1.00000000E+00  0.00000000E+00
  1.00000000E+00  0.00000000E+00  0.00000000E+00  0.00000000E+00  1.00000000E+00
  0.00000000E+00  0.00000000E+00  0.00000000E+00  1.00000000E+00  0.00000000E+00
  0.00000000E+00  0.00000000E+00  1.00000000E+00  0.00000000E+00  0.00000000E+00
  0.00000000E+00  1.00000000E+00  0.00000000E+00  0.00000000E+00  0.00000000E+00
  1.00000000E+00  0.00000000E+00  0.00000000E+00  0.00000000E+00  1.00000000E+00
  0.00000000E+00  0.00000000E+00  0.00000000E+00
Virial Ratio                               R      2.002674814903059E+00
SCF Energy                                 R     -2.469148520172349E+02
MP2 Energy                                 R     -2.476497381154230E+02
Total Energy                               R     -2.476497381154230E+02
Post-SCF wavefunction norm                 R      1.574068124529168E+00
RMS Force                                  R      3.414025775681034E-07
RMS Density                                R      2.283751193666979E-09
External E-field                           R   N=          35
  0.00000000E+00  0.00000000E+00  0.00000000E+00  0.00000000E+00  0.00000000E+00
  0.00000000E+00  0.00000000E+00  0.00000000E+00  0.00000000E+00  0.00000000E+00
  0.00000000E+00  0.00000000E+00  0.00000000E+00  0.00000000E+00  0.00000000E+00
  0.00000000E+00  0.00000000E+00  0.00000000E+00  0.00000000E+00  0.00000000E+00
  0.00000000E+00  0.00000000E+00  0.00000000E+00  0.00000000E+00  0.00000000E+00
  0.00000000E+00  0.00000000E+00  0.00000000E+00  0.00000000E+00  0.00000000E+00
  0.00000000E+00  0.00000000E+00  0.00000000E+00  0.00000000E+00  0.00000000E+00
IOpCl                                      I                0
IROHF                                      I                0
Alpha Orbital Energies                     R   N=          89
 -2.05947426E+01 -1.56252602E+01 -1.12761685E+01 -1.12388768E+01 -1.12271805E+01
 -1.40525600E+00 -1.15700235E+00 -1.03656995E+00 -8.79542725E-01 -7.70867601E-01
 -6.99008943E-01 -6.50026937E-01 -6.13274231E-01 -5.84718374E-01 -5.75980358E-01
 -5.30525544E-01 -5.10267734E-01 -4.99574735E-01 -4.37957035E-01 -3.79686318E-01
  1.66659044E-01  2.33370769E-01  2.50803363E-01  2.76951264E-01  2.93259868E-01
  3.10565798E-01  3.23131910E-01  3.27110656E-01  3.83557197E-01  4.09366038E-01
  4.52130468E-01  5.21413467E-01  7.14703613E-01  7.46303284E-01  7.58202864E-01
  7.98773776E-01  8.59195837E-01  8.76892974E-01  9.15917280E-01  9.47488257E-01
  9.76724528E-01  1.03973218E+00  1.04206629E+00  1.05803064E+00  1.10491293E+00
  1.12572325E+00  1.14112516E+00  1.15852339E+00  1.18346211E+00  1.19874723E+00
  1.22585662E+00  1.22973645E+00  1.23796220E+00  1.27304653E+00  1.39960984E+00
  1.47293492E+00  1.55669841E+00  1.65787417E+00  1.69154794E+00  1.71223807E+00
  1.79954628E+00  1.86550776E+00  1.92497145E+00  2.02405090E+00  2.06021341E+00
  2.08080472E+00  2.21751513E+00  2.23018119E+00  2.27888309E+00  2.32452835E+00
  2.41126338E+00  2.48772477E+00  2.53050519E+00  2.62659261E+00  2.62888575E+00
  2.69463601E+00  2.75025197E+00  2.79692038E+00  2.84467436E+00  2.92375158E+00
  2.94573292E+00  3.12641996E+00  3.25482889E+00  3.35455725E+00  4.03997093E+00
  4.23679700E+00  4.54768846E+00  4.67575125E+00  4.87525510E+00
Alpha MO coefficients                      R   N=        7921
  9.94705486E-01  2.11082827E-02 -1.78104151E-04  8.60381002E-04 -1.03481436E-03
  3.45996293E-03  1.64887469E-04 -5.05340762E-04  5.84926014E-04 -4.14697491E-03
 -3.87809162E-03 -3.89920971E-03  1.33576260E-04 -2.28538656E-06  1.30413271E-04
 -9.83450531E-06  1.28309750E-04  2.48395314E-04 -1.63670095E-04  1.16146996E-04
  6.27807990E-04  1.98300995E-04 -1.84245804E-04  1.68691360E-04  3.88790732E-05
 -3.98547819E-05 -3.04553586E-05 -4.73238936E-05  6.03960593E-06 -5.09956212E-05
  6.57350536E-06  3.47904179E-05 -1.80740435E-05  5.73244170E-07  8.87797730E-06
 -5.00351420E-04 -1.14833301E-04  1.09737451E-04 -1.37611728E-04  8.49967064E-06
  5.70304179E-06  8.41491127E-06  1.28132785E-06 -4.73272608E-06 -5.83898567E-06
  2.00326329E-06  5.78374289E-06  1.25603973E-05  4.19838643E-06 -1.35577791E-06
  3.51984624E-05 -3.08909730E-05  2.42960987E-05  5.08993376E-05  6.79887149E-07
  5.19747840E-06  8.16879941E-06  2.89345278E-06  3.29098052E-06  2.55008912E-06
 -3.10661927E-06  2.45035468E-05 -1.13180776E-05 -1.12255105E-05  2.08918709E-05
  2.83451935E-05 -6.20726897E-04  1.63467872E-04  1.48751712E-05 -8.09137225E-05
 -1.44920647E-05 -2.47877001E-05 -3.65071744E-06  3.26214984E-05 -2.10728492E-06
  2.72355550E-05  4.06351402E-05 -6.36482636E-06 -2.21626225E-06  3.93081575E-06
  3.14849298E-05 -2.61269518E-06 -1.47869515E-05 -2.02419785E-06 -3.28904730E-05
  6.05952368E-05 -5.22037436E-05  4.31041269E-04 -1.80939413E-04 -1.05003753E-04
  1.89807230E-04 -2.37821918E-04  1.19657229E-04 -6.45303785E-05  9.88941382E-04
 -7.73398232E-05  6.36002679E-05 -5.23139514E-05 -3.06101300E-04 -7.53030377E-05
 -2.07286833E-05  2.37061134E-04 -1.43338154E-04  1.19043135E-04  9.95288487E-01
  2.40607670E-02  1.43538003E-04 -1.36496929E-03  1.70705352E-03 -3.73022297E-03
  2.28415498E-04  1.17488091E-03 -1.59341844E-03 -2.78555610E-03 -3.01179041E-03
 -2.79838825E-03  1.16156452E-04 -2.93778992E-04 -1.99012970E-04 -6.36266543E-06
 -3.97112194E-05  7.49670727E-06  9.76360221E-06 -2.48180652E-05  3.28327967E-04
 -3.08162942E-04 -2.64805406E-04  4.06879138E-04 -3.59663597E-05  1.47403219E-05
  1.40233023E-07 -1.91879928E-05  4.34087002E-05 -2.17940592E-05  1.07039019E-05
  3.96093430E-05  2.87612239E-06 -9.97525816E-06  9.78690031E-06 -3.79248808E-04
 -5.83494915E-05 -6.58187484E-05 -2.11137558E-04  2.21466710E-05  1.53006560E-05
  1.28069308E-05 -2.22930165E-06 -1.12701671E-05 -1.34587978E-05  2.21747654E-05
  2.12715136E-04 -8.48051355E-05 -2.36316483E-05  6.92587330E-05  2.70017002E-03
  1.37174584E-03  8.14986399E-05 -6.44907967E-04 -4.40993129E-04 -8.80390961E-05
 -2.33726146E-04 -8.68015493E-05  2.79976812E-04  7.24406392E-05 -3.14798209E-05
 -1.54410897E-04  5.35533608E-05  1.03802794E-04  1.71121108E-05 -8.03494326E-05
  1.14076230E-05  1.52899613E-04  1.34442696E-05  3.39934691E-06 -1.26151554E-04
 -2.19057702E-04 -1.04496677E-04 -6.81261114E-05 -1.24433324E-06 -1.39201631E-04
 -4.16159713E-05  1.26420971E-05 -3.46449401E-06  4.96077973E-04 -3.11592941E-04
  1.22199640E-04 -6.64836423E-06  1.72257036E-04 -8.88263393E-06 -5.32068402E-05
 -8.14446474E-05  1.13131301E-05  1.44824522E-05 -4.67910308E-04  9.31371418E-05
  3.56790434E-05  5.77244720E-06  1.45072876E-05  8.17458791E-04 -3.31184797E-04
  2.51537197E-04 -4.07436708E-04 -3.59229569E-04 -1.04887232E-04 -2.15829007E-04
  1.27962746E-04  5.27579467E-05  2.27713349E-04  9.13246594E-03  6.14165189E-04
 -7.70169259E-05  4.40576597E-05 -1.53798173E-05  1.09770636E-03  1.36579085E-03
  9.24338134E-05  3.99643512E-04 -4.42290111E-04 -1.92186956E-04 -4.57368290E-05
  1.39582003E-04 -8.97817982E-05  5.94509312E-05 -1.38875861E-04 -3.60795160E-04
 -1.54250446E-04  3.36699841E-05 -1.03226806E-05  1.42197573E-03  1.17307503E-03
  8.52602345E-05  1.98115160E-04 -4.99562114E-06 -8.34462416E-05 -9.84848731E-05
  5.70239866E-05  2.58938694E-05  2.31133028E-05  9.95595586E-01  2.72822926E-02
  1.37070574E-04  9.65782898E-05 -3.07186243E-04 -9.50503209E-03  1.14066137E-03
  2.68306048E-05 -1.33350157E-04 -1.53653111E-03 -2.25024098E-03 -1.94417866E-03
 -3.75103275E-06 -3.91167854E-04 -3.86168416E-04 -1.14695569E-04  2.92304879E-04
 -1.78173394E-06  5.04724384E-05 -2.01079457E-04 -3.98160521E-05 -1.16317405E-04
 -1.58979310E-04  1.69588759E-05  4.74290865E-04 -1.16472899E-04  2.04589579E-03
  1.41298019E-06 -5.62037999E-05 -4.04333775E-05 -1.60745456E-04  4.13920802E-05
 -6.18855693E-06 -1.92702601E-05  7.93469798E-04 -3.71132617E-04  1.17125953E-04
  3.79159924E-05 -7.76780863E-05 -1.22666061E-04 -1.27895925E-04 -3.18869940E-05
  2.85828556E-07 -1.65755172E-05 -1.82461216E-05 -1.61704345E-04  6.39406580E-05
  6.21534556E-06  2.54692719E-06  3.13870309E-04 -5.24676359E-04 -3.82892875E-05
  1.42775863E-04  1.69007714E-07 -1.01548107E-04 -3.84767191E-05  3.15671243E-05
 -7.83926230E-05 -5.44168956E-05  9.95492709E-01  2.87109031E-02  1.98285654E-04
 -2.26057864E-04  1.03116874E-04 -1.78679213E-02 -6.90660410E-04  1.22982436E-03
 -1.66220964E-04 -1.63498543E-03 -1.65828882E-03 -1.58451371E-03 -1.65489849E-05
 -1.89776991E-05 -1.70207290E-05  2.47087025E-02  7.48173605E-04  9.37597241E-05
  2.79892852E-05  2.82486945E-05  3.92279341E-03  1.26372723E-03  1.33513608E-03
  4.24453502E-04 -3.09061133E-04 -3.93429096E-04 -1.54040754E-04 -1.93503934E-04
 -6.73750543E-05 -7.06876742E-05 -9.38625829E-03 -1.44416733E-04 -2.98165578E-05
 -6.46154828E-05  5.00888469E-05  4.13929058E-03 -2.52421754E-03  8.46676387E-04
 -2.62116053E-04 -4.25432198E-04 -1.84024820E-04 -1.11683034E-04  1.58564722E-04
 -3.82283652E-05  3.08246189E-05  2.45733060E-04  2.65285941E-03  2.68925766E-04
  2.54243126E-03 -1.65930630E-04  9.23262515E-05 -1.53852567E-04  5.36152320E-05
 -1.38445914E-04 -1.16562567E-04 -1.03825696E-04  8.98806141E-05  6.71729122E-06
  8.87102973E-05 -2.11732864E-06 -6.35769701E-06  5.19023982E-06  7.72195142E-06
 -5.65864523E-06  3.22695836E-05 -5.66420293E-05 -6.27662093E-05  3.80461117E-05
  7.53641671E-06 -2.44132388E-05 -8.74363807E-06  7.43192511E-06 -5.06304635E-07
  1.53014946E-05  2.96447519E-05  1.16719832E-04 -4.79158910E-05 -2.64778259E-05
 -7.97994910E-06 -8.49718438E-04  4.58996862E-04  1.75259814E-04 -7.88951491E-05
  4.17551856E-05  7.84687558E-05  8.19225200E-05 -1.53982454E-05  2.53851296E-06
  6.52613431E-06 -2.49906779E-02 -5.29883521E-04 -6.62205109E-05  1.26887260E-05
 -1.27744998E-05  3.18495602E-03 -1.51675272E-03 -1.10741575E-03 -3.62578384E-04
 -2.89522381E-04 -2.75372408E-04 -6.33164338E-05 -1.86471092E-04 -7.67121509E-05
 -7.78634300E-05  9.95442508E-01  2.83783637E-02  1.31808712E-04  6.41573558E-05
  6.41287934E-05 -1.49787951E-02 -6.42822169E-04 -4.16876705E-04 -2.08894357E-04
 -1.81123208E-03 -1.82925662E-03 -1.80472024E-03 -3.09319769E-05 -5.66829481E-06
 -1.38320410E-05  2.49739576E-04 -3.03707661E-04  1.20978576E-04  1.55325738E-05
  1.11832843E-05  1.58995612E-03 -2.98395249E-04  1.43895013E-04 -4.34582939E-04
  3.50819955E-06 -6.95747126E-05 -1.27965292E-04  1.05472898E-05  4.03733041E-05
 -9.16369014E-06 -1.23110428E-04 -2.62586216E-05 -1.32510778E-04  6.47878453E-05
  1.64087744E-04  2.54561455E-03  1.39285156E-04  2.60565476E-03  1.21153117E-04
  2.39093471E-03 -2.83601625E-05 -9.41267756E-05  1.98265556E-05 -1.87714556E-05
 -1.82147912E-01  4.15248269E-01 -3.47760364E-02  5.63489493E-02 -5.91602081E-02
  3.66483877E-01 -1.65980394E-02  3.00048857E-02 -3.22215427E-02  2.28336623E-02
  5.92766353E-03  1.00856944E-02 -5.73925615E-03 -3.57350706E-03 -1.02963037E-02
 -1.03319499E-01  2.16923316E-01  5.42188658E-02 -5.85318708E-02  5.48638564E-02
  1.53790166E-01  4.34705003E-03 -1.32621218E-02  1.54988629E-02  1.46799147E-02
 -9.77594797E-04 -2.20043155E-03 -1.23550660E-02  5.33558620E-03 -8.23757482E-03
 -5.80272543E-03  1.19996685E-02  8.70243312E-03 -2.53967705E-03 -2.51488137E-05
 -1.32944838E-03 -8.98565276E-04  3.06003458E-03 -3.57161020E-03  2.19365647E-03
  1.48717331E-04 -3.14261515E-05 -7.10534284E-04 -5.56764880E-05 -1.18556669E-06
 -1.11028906E-03  2.09701068E-03  1.41527536E-03  7.27144599E-04  2.83192992E-04
  2.34435697E-03 -3.30206411E-04  3.81773977E-04  9.51396977E-04  8.98739850E-05
  3.39612527E-05 -2.14351654E-07  2.08509972E-04  4.24263647E-05  1.15704721E-04
 -4.15563400E-02  8.15499190E-02  5.43382992E-02  8.07921332E-03 -3.11207000E-02
  2.31503619E-02 -1.12647361E-02 -1.50449782E-03  5.82822481E-03  7.08541702E-03
 -3.78492107E-03 -1.31860273E-04  2.08525694E-03 -7.56029840E-03 -1.41634729E-03
  1.97278162E-03  3.62350480E-04  2.99082585E-03 -1.56340578E-03  4.68648143E-04
  8.06137800E-04  5.64668382E-04 -1.02045364E-03  2.26295728E-04 -6.23069560E-04
  1.47583230E-02 -3.58565350E-04  1.01073088E-01 -7.35977981E-03  9.37571374E-02
 -2.14929806E-01 -8.74527104E-02 -6.56793551E-04  3.35222144E-02 -2.45171010E-01
 -3.96019337E-02 -5.16869276E-03  2.13911047E-02  1.07459902E-03 -1.11822628E-03
 -8.56846405E-03 -9.40391696E-03  1.11018347E-02  3.49627245E-03 -1.20666065E-01
  2.58470935E-01 -1.48933794E-01 -2.00355500E-02  8.11308766E-02  2.66454544E-01
 -4.93278579E-02 -1.31101355E-02  3.56549457E-02 -1.69028518E-03 -6.37622019E-03
  3.39874191E-03  1.12536169E-02 -1.63128341E-02 -3.69879708E-03 -6.80251049E-02
  1.27659933E-01  4.51082284E-02 -2.11205295E-02  1.17593883E-03  8.83541987E-02
  5.27559101E-03  3.31212008E-03 -8.04125594E-03  8.93091873E-03  1.78389491E-03
  4.31706738E-04 -3.31426301E-03  8.66582598E-04 -7.16903770E-04 -2.87602480E-02
  5.36312645E-02  2.03274740E-02  1.41714229E-02  5.36944199E-03  3.91472220E-02
 -4.20192460E-04  2.25286336E-03  2.35967505E-03  2.63277330E-03  2.03919526E-03
  4.79213956E-04  2.58719276E-03  8.15184148E-04  9.06526692E-04 -1.36218468E-01
  2.66673063E-01  6.73117286E-02  4.21325304E-02 -8.26990611E-02  1.29303571E-01
 -2.68329173E-02 -5.15443365E-03  1.50411384E-02  1.03889128E-02 -7.16867642E-03
  2.18065807E-03  1.97759258E-03 -1.23767552E-02 -1.02922875E-02  3.12329100E-02
  3.09476394E-03  3.60767439E-02 -1.01673270E-03  1.49766406E-02  3.42862687E-03
  1.47074222E-02  1.89121288E-04  1.19934015E-02 -7.59019230E-04  5.34834893E-02
 -3.77294716E-03 -8.46541909E-02 -2.43299097E-03 -3.85337149E-02  8.88970943E-02
  7.37645011E-02 -1.12777905E-02 -1.34911898E-02  1.10884635E-01  3.71266725E-02