opt=Tight                                                               
Freq      RMP2-FC                                                     6-31G(d)            
Number of atoms                            I               18
Info1-9                                    I   N=           9
          27          27        1002           0           0         100
           6           2           1
Charge                                     I                0
Multiplicity                               I                1
Number of electrons                        I               58
Number of alpha electrons                  I               29
Number of beta electrons                   I               29
Number of basis functions                  I              140
Number of independent functions            I              140
Number of point charges in /Mol/           I                0
Number of translation vectors              I                0
Atomic numbers                             I   N=          18
           6           6           6           6           6           6
           6           6           1           1           1           1
           1           1           1           1           1           1
Nuclear charges                            R   N=          18
  6.00000000E+00  6.00000000E+00  6.00000000E+00  6.00000000E+00  6.00000000E+00
  6.00000000E+00  6.00000000E+00  6.00000000E+00  1.00000000E+00  1.00000000E+00
  1.00000000E+00  1.00000000E+00  1.00000000E+00  1.00000000E+00  1.00000000E+00
  1.00000000E+00  1.00000000E+00  1.00000000E+00
Current cartesian coordinates              R   N=          54
  3.64076338E+00 -1.68185626E-04 -1.11963439E+00  8.31137458E-01 -8.69274021E-05
 -6.50948292E-01 -4.92591132E-01 -2.27474271E+00 -3.61604765E-01 -4.92460741E-01
  2.27466146E+00 -3.61716259E-01  5.14367013E+00  1.24721925E-04  1.35442908E+00
 -3.07428206E+00 -2.28094102E+00  1.79472960E-01 -3.07414978E+00  2.28103739E+00
  1.79359576E-01 -4.37176991E+00  9.07068544E-05  4.58494803E-01  4.15359914E+00
 -1.66237696E+00 -2.24515338E+00  4.15363127E+00  1.66175335E+00 -2.24556534E+00
  5.07227061E-01 -4.06010116E+00 -5.87442155E-01  5.07459497E-01  4.05995187E+00
 -5.87644356E-01  4.68289254E+00  1.67083915E+00  2.48070019E+00  7.18036782E+00
  5.48020579E-05  9.94046969E-01  4.68284907E+00 -1.67029869E+00  2.48111404E+00
 -4.07312138E+00 -4.06567208E+00  3.84147308E-01 -4.07288705E+00  4.06583459E+00
  3.83945107E-01 -6.38391062E+00  1.58736995E-04  8.74737219E-01
Force Field                                I                0
Int Atom Types                             I   N=          18
           0           0           0           0           0           0
           0           0           0           0           0           0
           0           0           0           0           0           0
MM charges                                 R   N=          18
  0.00000000E+00  0.00000000E+00  0.00000000E+00  0.00000000E+00  0.00000000E+00
  0.00000000E+00  0.00000000E+00  0.00000000E+00  0.00000000E+00  0.00000000E+00
  0.00000000E+00  0.00000000E+00  0.00000000E+00  0.00000000E+00  0.00000000E+00
  0.00000000E+00  0.00000000E+00  0.00000000E+00
Integer atomic weights                     I   N=          18
          12          12          12          12          12          12
          12          12           1           1           1           1
           1           1           1           1           1           1
Real atomic weights                        R   N=          18
  1.20000000E+01  1.20000000E+01  1.20000000E+01  1.20000000E+01  1.20000000E+01
  1.20000000E+01  1.20000000E+01  1.20000000E+01  1.00782504E+00  1.00782504E+00
  1.00782504E+00  1.00782504E+00  1.00782504E+00  1.00782504E+00  1.00782504E+00
  1.00782504E+00  1.00782504E+00  1.00782504E+00
Atom fragment info                         I   N=          18
           0           0           0           0           0           0
           0           0           0           0           0           0
           0           0           0           0           0           0
Atom residue num                           I   N=          18
           0           0           0           0           0           0
           0           0           0           0           0           0
           0           0           0           0           0           0
Nuclear spins                              I   N=          18
           0           0           0           0           0           0
           0           0           1           1           1           1
           1           1           1           1           1           1
Nuclear ZEff                               R   N=          18
 -3.60000000E+00 -3.60000000E+00 -3.60000000E+00 -3.60000000E+00 -3.60000000E+00
 -3.60000000E+00 -3.60000000E+00 -3.60000000E+00 -1.00000000E+00 -1.00000000E+00
 -1.00000000E+00 -1.00000000E+00 -1.00000000E+00 -1.00000000E+00 -1.00000000E+00
 -1.00000000E+00 -1.00000000E+00 -1.00000000E+00
Nuclear QMom                               R   N=          18
  0.00000000E+00  0.00000000E+00  0.00000000E+00  0.00000000E+00  0.00000000E+00
  0.00000000E+00  0.00000000E+00  0.00000000E+00  0.00000000E+00  0.00000000E+00
  0.00000000E+00  0.00000000E+00  0.00000000E+00  0.00000000E+00  0.00000000E+00
  0.00000000E+00  0.00000000E+00  0.00000000E+00
Nuclear GFac                               R   N=          18
  0.00000000E+00  0.00000000E+00  0.00000000E+00  0.00000000E+00  0.00000000E+00
  0.00000000E+00  0.00000000E+00  0.00000000E+00  2.79284600E+00  2.79284600E+00
  2.79284600E+00  2.79284600E+00  2.79284600E+00  2.79284600E+00  2.79284600E+00
  2.79284600E+00  2.79284600E+00  2.79284600E+00
MicOpt                                     I   N=          18
          -1          -1          -1          -1          -1          -1
          -1          -1          -1          -1          -1          -1
          -1          -1          -1          -1          -1          -1
Number of contracted shells                I               52
Number of primitive shells                 I              128
Pure/Cartesian d shells                    I                1
Pure/Cartesian f shells                    I                0
Highest angular momentum                   I                2
Largest degree of contraction              I                6
Shell types                                I   N=          52
           0          -1          -1           2           0          -1
          -1           2           0          -1          -1           2
           0          -1          -1           2           0          -1
          -1           2           0          -1          -1           2
           0          -1          -1           2           0          -1
          -1           2           0           0           0           0
           0           0           0           0           0           0
           0           0           0           0           0           0
           0           0           0           0
Number of primitives per shell             I   N=          52
           6           3           1           1           6           3
           1           1           6           3           1           1
           6           3           1           1           6           3
           1           1           6           3           1           1
           6           3           1           1           6           3
           1           1           3           1           3           1
           3           1           3           1           3           1
           3           1           3           1           3           1
           3           1           3           1
Shell to atom map                          I   N=          52
           1           1           1           1           2           2
           2           2           3           3           3           3
           4           4           4           4           5           5
           5           5           6           6           6           6
           7           7           7           7           8           8
           8           8           9           9          10          10
          11          11          12          12          13          13
          14          14          15          15          16          16
          17          17          18          18
Primitive exponents                        R   N=         128
  3.04752488E+03  4.57369518E+02  1.03948685E+02  2.92101553E+01  9.28666296E+00
  3.16392696E+00  7.86827235E+00  1.88128854E+00  5.44249258E-01  1.68714478E-01
  8.00000000E-01  3.04752488E+03  4.57369518E+02  1.03948685E+02  2.92101553E+01
  9.28666296E+00  3.16392696E+00  7.86827235E+00  1.88128854E+00  5.44249258E-01
  1.68714478E-01  8.00000000E-01  3.04752488E+03  4.57369518E+02  1.03948685E+02
  2.92101553E+01  9.28666296E+00  3.16392696E+00  7.86827235E+00  1.88128854E+00
  5.44249258E-01  1.68714478E-01  8.00000000E-01  3.04752488E+03  4.57369518E+02
  1.03948685E+02  2.92101553E+01  9.28666296E+00  3.16392696E+00  7.86827235E+00
  1.88128854E+00  5.44249258E-01  1.68714478E-01  8.00000000E-01  3.04752488E+03
  4.57369518E+02  1.03948685E+02  2.92101553E+01  9.28666296E+00  3.16392696E+00
  7.86827235E+00  1.88128854E+00  5.44249258E-01  1.68714478E-01  8.00000000E-01
  3.04752488E+03  4.57369518E+02  1.03948685E+02  2.92101553E+01  9.28666296E+00
  3.16392696E+00  7.86827235E+00  1.88128854E+00  5.44249258E-01  1.68714478E-01
  8.00000000E-01  3.04752488E+03  4.57369518E+02  1.03948685E+02  2.92101553E+01
  9.28666296E+00  3.16392696E+00  7.86827235E+00  1.88128854E+00  5.44249258E-01
  1.68714478E-01  8.00000000E-01  3.04752488E+03  4.57369518E+02  1.03948685E+02
  2.92101553E+01  9.28666296E+00  3.16392696E+00  7.86827235E+00  1.88128854E+00
  5.44249258E-01  1.68714478E-01  8.00000000E-01  1.87311370E+01  2.82539436E+00
  6.40121692E-01  1.61277759E-01  1.87311370E+01  2.82539436E+00  6.40121692E-01
  1.61277759E-01  1.87311370E+01  2.82539436E+00  6.40121692E-01  1.61277759E-01
  1.87311370E+01  2.82539436E+00  6.40121692E-01  1.61277759E-01  1.87311370E+01
  2.82539436E+00  6.40121692E-01  1.61277759E-01  1.87311370E+01  2.82539436E+00
  6.40121692E-01  1.61277759E-01  1.87311370E+01  2.82539436E+00  6.40121692E-01
  1.61277759E-01  1.87311370E+01  2.82539436E+00  6.40121692E-01  1.61277759E-01
  1.87311370E+01  2.82539436E+00  6.40121692E-01  1.61277759E-01  1.87311370E+01
  2.82539436E+00  6.40121692E-01  1.61277759E-01
Contraction coefficients                   R   N=         128
  1.83473713E-03  1.40373228E-02  6.88426223E-02  2.32184443E-01  4.67941348E-01
  3.62311985E-01 -1.19332420E-01 -1.60854152E-01  1.14345644E+00  1.00000000E+00
  1.00000000E+00  1.83473713E-03  1.40373228E-02  6.88426223E-02  2.32184443E-01
  4.67941348E-01  3.62311985E-01 -1.19332420E-01 -1.60854152E-01  1.14345644E+00
  1.00000000E+00  1.00000000E+00  1.83473713E-03  1.40373228E-02  6.88426223E-02
  2.32184443E-01  4.67941348E-01  3.62311985E-01 -1.19332420E-01 -1.60854152E-01
  1.14345644E+00  1.00000000E+00  1.00000000E+00  1.83473713E-03  1.40373228E-02
  6.88426223E-02  2.32184443E-01  4.67941348E-01  3.62311985E-01 -1.19332420E-01
 -1.60854152E-01  1.14345644E+00  1.00000000E+00  1.00000000E+00  1.83473713E-03
  1.40373228E-02  6.88426223E-02  2.32184443E-01  4.67941348E-01  3.62311985E-01
 -1.19332420E-01 -1.60854152E-01  1.14345644E+00  1.00000000E+00  1.00000000E+00
  1.83473713E-03  1.40373228E-02  6.88426223E-02  2.32184443E-01  4.67941348E-01
  3.62311985E-01 -1.19332420E-01 -1.60854152E-01  1.14345644E+00  1.00000000E+00
  1.00000000E+00  1.83473713E-03  1.40373228E-02  6.88426223E-02  2.32184443E-01
  4.67941348E-01  3.62311985E-01 -1.19332420E-01 -1.60854152E-01  1.14345644E+00
  1.00000000E+00  1.00000000E+00  1.83473713E-03  1.40373228E-02  6.88426223E-02
  2.32184443E-01  4.67941348E-01  3.62311985E-01 -1.19332420E-01 -1.60854152E-01
  1.14345644E+00  1.00000000E+00  1.00000000E+00  3.34946043E-02  2.34726953E-01
  8.13757326E-01  1.00000000E+00  3.34946043E-02  2.34726953E-01  8.13757326E-01
  1.00000000E+00  3.34946043E-02  2.34726953E-01  8.13757326E-01  1.00000000E+00
  3.34946043E-02  2.34726953E-01  8.13757326E-01  1.00000000E+00  3.34946043E-02
  2.34726953E-01  8.13757326E-01  1.00000000E+00  3.34946043E-02  2.34726953E-01
  8.13757326E-01  1.00000000E+00  3.34946043E-02  2.34726953E-01  8.13757326E-01
  1.00000000E+00  3.34946043E-02  2.34726953E-01  8.13757326E-01  1.00000000E+00
  3.34946043E-02  2.34726953E-01  8.13757326E-01  1.00000000E+00  3.34946043E-02
  2.34726953E-01  8.13757326E-01  1.00000000E+00
P(S=P) Contraction coefficients            R   N=         128
  0.00000000E+00  0.00000000E+00  0.00000000E+00  0.00000000E+00  0.00000000E+00
  0.00000000E+00  6.89990666E-02  3.16423961E-01  7.44308291E-01  1.00000000E+00
  0.00000000E+00  0.00000000E+00  0.00000000E+00  0.00000000E+00  0.00000000E+00
  0.00000000E+00  0.00000000E+00  6.89990666E-02  3.16423961E-01  7.44308291E-01
  1.00000000E+00  0.00000000E+00  0.00000000E+00  0.00000000E+00  0.00000000E+00
  0.00000000E+00  0.00000000E+00  0.00000000E+00  6.89990666E-02  3.16423961E-01
  7.44308291E-01  1.00000000E+00  0.00000000E+00  0.00000000E+00  0.00000000E+00
  0.00000000E+00  0.00000000E+00  0.00000000E+00  0.00000000E+00  6.89990666E-02
  3.16423961E-01  7.44308291E-01  1.00000000E+00  0.00000000E+00  0.00000000E+00
  0.00000000E+00  0.00000000E+00  0.00000000E+00  0.00000000E+00  0.00000000E+00
  6.89990666E-02  3.16423961E-01  7.44308291E-01  1.00000000E+00  0.00000000E+00
  0.00000000E+00  0.00000000E+00  0.00000000E+00  0.00000000E+00  0.00000000E+00
  0.00000000E+00  6.89990666E-02  3.16423961E-01  7.44308291E-01  1.00000000E+00
  0.00000000E+00  0.00000000E+00  0.00000000E+00  0.00000000E+00  0.00000000E+00
  0.00000000E+00  0.00000000E+00  6.89990666E-02  3.16423961E-01  7.44308291E-01
  1.00000000E+00  0.00000000E+00  0.00000000E+00  0.00000000E+00  0.00000000E+00
  0.00000000E+00  0.00000000E+00  0.00000000E+00  6.89990666E-02  3.16423961E-01
  7.44308291E-01  1.00000000E+00  0.00000000E+00  0.00000000E+00  0.00000000E+00
  0.00000000E+00  0.00000000E+00  0.00000000E+00  0.00000000E+00  0.00000000E+00
  0.00000000E+00  0.00000000E+00  0.00000000E+00  0.00000000E+00  0.00000000E+00
  0.00000000E+00  0.00000000E+00  0.00000000E+00  0.00000000E+00  0.00000000E+00
  0.00000000E+00  0.00000000E+00  0.00000000E+00  0.00000000E+00  0.00000000E+00
  0.00000000E+00  0.00000000E+00  0.00000000E+00  0.00000000E+00  0.00000000E+00
  0.00000000E+00  0.00000000E+00  0.00000000E+00  0.00000000E+00  0.00000000E+00
  0.00000000E+00  0.00000000E+00  0.00000000E+00  0.00000000E+00  0.00000000E+00
  0.00000000E+00  0.00000000E+00  0.00000000E+00
Coordinates of each shell                  R   N=         156
  3.64076318E+00 -1.68276704E-04 -1.11963442E+00  3.64076318E+00 -1.68276704E-04
 -1.11963442E+00  3.64076318E+00 -1.68276704E-04 -1.11963442E+00  3.64076318E+00
 -1.68276704E-04 -1.11963442E+00  8.31137263E-01 -8.68979068E-05 -6.50948324E-01
  8.31137263E-01 -8.68979068E-05 -6.50948324E-01  8.31137263E-01 -8.68979068E-05
 -6.50948324E-01  8.31137263E-01 -8.68979068E-05 -6.50948324E-01 -4.92591425E-01
 -2.27474263E+00 -3.61604797E-01 -4.92591425E-01 -2.27474263E+00 -3.61604797E-01
 -4.92591425E-01 -2.27474263E+00 -3.61604797E-01 -4.92591425E-01 -2.27474263E+00
 -3.61604797E-01 -4.92460838E-01  2.27466154E+00 -3.61716291E-01 -4.92460838E-01
  2.27466154E+00 -3.61716291E-01 -4.92460838E-01  2.27466154E+00 -3.61716291E-01
 -4.92460838E-01  2.27466154E+00 -3.61716291E-01  5.14366993E+00  1.24566351E-04
  1.35442905E+00  5.14366993E+00  1.24566351E-04  1.35442905E+00  5.14366993E+00
  1.24566351E-04  1.35442905E+00  5.14366993E+00  1.24566351E-04  1.35442905E+00
 -3.07428236E+00 -2.28094082E+00  1.79472927E-01 -3.07428236E+00 -2.28094082E+00
  1.79472927E-01 -3.07428236E+00 -2.28094082E+00  1.79472927E-01 -3.07428236E+00
 -2.28094082E+00  1.79472927E-01 -3.07414988E+00  2.28103759E+00  1.79359544E-01
 -3.07414988E+00  2.28103759E+00  1.79359544E-01 -3.07414988E+00  2.28103759E+00
  1.79359544E-01 -3.07414988E+00  2.28103759E+00  1.79359544E-01 -4.37177011E+00
  9.09596288E-05  4.58494770E-01 -4.37177011E+00  9.09596288E-05  4.58494770E-01
 -4.37177011E+00  9.09596288E-05  4.58494770E-01 -4.37177011E+00  9.09596288E-05
  4.58494770E-01  4.15359888E+00 -1.66237707E+00 -2.24515342E+00  4.15359888E+00
 -1.66237707E+00 -2.24515342E+00  4.15363114E+00  1.66175324E+00 -2.24556538E+00
  4.15363114E+00  1.66175324E+00 -2.24556538E+00  5.07226691E-01 -4.06010112E+00
 -5.87442188E-01  5.07226691E-01 -4.06010112E+00 -5.87442188E-01  5.07459476E-01
  4.05995192E+00 -5.87644389E-01  5.07459476E-01  4.05995192E+00 -5.87644389E-01
  4.68289241E+00  1.67083902E+00  2.48070015E+00  4.68289241E+00  1.67083902E+00
  2.48070015E+00  7.18036763E+00  5.45590804E-05  9.94046936E-01  7.18036763E+00
  5.45590804E-05  9.94046936E-01  4.68284880E+00 -1.67029883E+00  2.48111400E+00
  4.68284880E+00 -1.67029883E+00  2.48111400E+00 -4.07312175E+00 -4.06567184E+00
  3.84147275E-01 -4.07312175E+00 -4.06567184E+00  3.84147275E-01 -4.07288707E+00
  4.06583483E+00  3.83945074E-01 -4.07288707E+00  4.06583483E+00  3.83945074E-01
 -6.38391081E+00  1.59076119E-04  8.74737187E-01 -6.38391081E+00  1.59076119E-04
  8.74737187E-01
Constraint Structure                       R   N=          54
  3.64076318E+00 -1.68276704E-04 -1.11963442E+00  8.31137263E-01 -8.68979068E-05
 -6.50948324E-01 -4.92591425E-01 -2.27474263E+00 -3.61604797E-01 -4.92460838E-01
  2.27466154E+00 -3.61716291E-01  5.14366993E+00  1.24566351E-04  1.35442905E+00
 -3.07428236E+00 -2.28094082E+00  1.79472927E-01 -3.07414988E+00  2.28103759E+00
  1.79359544E-01 -4.37177011E+00  9.09596288E-05  4.58494770E-01  4.15359888E+00
 -1.66237707E+00 -2.24515342E+00  4.15363114E+00  1.66175324E+00 -2.24556538E+00
  5.07226691E-01 -4.06010112E+00 -5.87442188E-01  5.07459476E-01  4.05995192E+00
 -5.87644389E-01  4.68289241E+00  1.67083902E+00  2.48070015E+00  7.18036763E+00
  5.45590804E-05  9.94046936E-01  4.68284880E+00 -1.67029883E+00  2.48111400E+00
 -4.07312175E+00 -4.06567184E+00  3.84147275E-01 -4.07288707E+00  4.06583483E+00
  3.83945074E-01 -6.38391081E+00  1.59076119E-04  8.74737187E-01
Num ILSW                                   I              100
ILSW                                       I   N=         100
           0           1           0           1           2           0
           0           0           0           0           0          -1
           0           0           0           0           0           0
           0           0           0           0           1           0
           1           0           0           0           0           0
           0           0      100000           0          -1           0
           0           0           0           0           0           0
           0           0           0           1           1           0
           0           0           1           0           0           0
           0           0           4          40           0           0
           0           0           0           0           0           0
           0           0           0           0           0           0
           0           0           0           0           0           0
           0           0           0           0           0           0
           0           0           0           0           0           0
           0           0           0           0           0           0
           0           0           0           0
Num RLSW                                   I               40
RLSW                                       R   N=          40
  1.00000000E+00  1.00000000E+00  1.00000000E+00  1.00000000E+00  1.00000000E+00
  0.00000000E+00  0.00000000E+00  1.00000000E+00  0.00000000E+00  0.00000000E+00
  0.00000000E+00  0.00000000E+00  1.00000000E+00  0.00000000E+00  0.00000000E+00
  0.00000000E+00  0.00000000E+00  1.00000000E+00  0.00000000E+00  0.00000000E+00
  0.00000000E+00  0.00000000E+00  1.00000000E+00  0.00000000E+00  0.00000000E+00
  0.00000000E+00  0.00000000E+00  1.00000000E+00  0.00000000E+00  0.00000000E+00
  0.00000000E+00  0.00000000E+00  0.00000000E+00  0.00000000E+00  0.00000000E+00
  0.00000000E+00  0.00000000E+00  0.00000000E+00  1.00000000E+00  1.00000000E+00
MxBond                                     I                4
NBond                                      I   N=          18
           4           3           3           3           4           3
           3           3           1           1           1           1
           1           1           1           1           1           1
IBond                                      I   N=          72
           2           5           9          10           1           3
           4           0           2           6          11           0
           2           7          12           0           1          13
          14          15           3           8          16           0
           4           8          17           0           6           7
          18           0           1           0           0           0
           1           0           0           0           3           0
           0           0           4           0           0           0
           5           0           0           0           5           0
           0           0           5           0           0           0
           6           0           0           0           7           0
           0           0           8           0           0           0
RBond                                      R   N=          72
  1.00000000E+00  1.00000000E+00  1.00000000E+00  1.00000000E+00  1.00000000E+00
  1.50000000E+00  1.50000000E+00  0.00000000E+00  1.50000000E+00  1.50000000E+00
  1.00000000E+00  0.00000000E+00  1.50000000E+00  1.50000000E+00  1.00000000E+00
  0.00000000E+00  1.00000000E+00  1.00000000E+00  1.00000000E+00  1.00000000E+00
  1.50000000E+00  1.50000000E+00  1.00000000E+00  0.00000000E+00  1.50000000E+00
  1.50000000E+00  1.00000000E+00  0.00000000E+00  1.50000000E+00  1.50000000E+00
  1.00000000E+00  0.00000000E+00  1.00000000E+00  0.00000000E+00  0.00000000E+00
  0.00000000E+00  1.00000000E+00  0.00000000E+00  0.00000000E+00  0.00000000E+00
  1.00000000E+00  0.00000000E+00  0.00000000E+00  0.00000000E+00  1.00000000E+00
  0.00000000E+00  0.00000000E+00  0.00000000E+00  1.00000000E+00  0.00000000E+00
  0.00000000E+00  0.00000000E+00  1.00000000E+00  0.00000000E+00  0.00000000E+00
  0.00000000E+00  1.00000000E+00  0.00000000E+00  0.00000000E+00  0.00000000E+00
  1.00000000E+00  0.00000000E+00  0.00000000E+00  0.00000000E+00  1.00000000E+00
  0.00000000E+00  0.00000000E+00  0.00000000E+00  1.00000000E+00  0.00000000E+00
  0.00000000E+00  0.00000000E+00
Virial Ratio                               R      2.001735332686151E+00
SCF Energy                                 R     -3.087730886703223E+02
MP2 Energy                                 R     -3.097951933441254E+02
Total Energy                               R     -3.097951933441254E+02
Post-SCF wavefunction norm                 R      1.655266352782142E+00
RMS Force                                  R      3.133321785797040E-07
RMS Density                                R      8.218604045205771E-10
External E-field                           R   N=          35
  0.00000000E+00  0.00000000E+00  0.00000000E+00  0.00000000E+00  0.00000000E+00
  0.00000000E+00  0.00000000E+00  0.00000000E+00  0.00000000E+00  0.00000000E+00
  0.00000000E+00  0.00000000E+00  0.00000000E+00  0.00000000E+00  0.00000000E+00
  0.00000000E+00  0.00000000E+00  0.00000000E+00  0.00000000E+00  0.00000000E+00
  0.00000000E+00  0.00000000E+00  0.00000000E+00  0.00000000E+00  0.00000000E+00
  0.00000000E+00  0.00000000E+00  0.00000000E+00  0.00000000E+00  0.00000000E+00
  0.00000000E+00  0.00000000E+00  0.00000000E+00  0.00000000E+00  0.00000000E+00
IOpCl                                      I                0
IROHF                                      I                0
Alpha Orbital Energies                     R   N=         140
 -1.12354779E+01 -1.12320159E+01 -1.12318343E+01 -1.12284717E+01 -1.12277866E+01
 -1.12276864E+01 -1.12267452E+01 -1.12158712E+01 -1.14584819E+00 -1.05844001E+00
 -1.00447711E+00 -9.76289850E-01 -8.59113414E-01 -8.18443250E-01 -7.81815778E-01
 -6.85366236E-01 -6.35160978E-01 -6.31065167E-01 -5.88286151E-01 -5.81383079E-01
 -5.72916149E-01 -5.41376647E-01 -5.16630243E-01 -4.95873801E-01 -4.78261264E-01
 -4.73467381E-01 -4.68241561E-01 -3.27403952E-01 -3.17059324E-01  1.46795187E-01
  1.48029974E-01  2.33377053E-01  2.56779754E-01  2.78014762E-01  2.96612431E-01
  3.11605638E-01  3.14365217E-01  3.24269097E-01  3.37068868E-01  3.47416672E-01
  3.52809590E-01  3.60038466E-01  4.15415799E-01  4.41352284E-01  4.82325254E-01
  4.99033169E-01  5.26341189E-01  5.28527317E-01  6.52094811E-01  7.14270981E-01
  7.30732705E-01  7.40747809E-01  7.46756407E-01  7.69768536E-01  7.82637944E-01
  8.03988441E-01  8.05187578E-01  8.40416021E-01  8.43065262E-01  8.46659890E-01
  8.49350725E-01  8.75449625E-01  9.05985237E-01  9.30654018E-01  9.35509360E-01
  9.95247009E-01  1.03741217E+00  1.08022841E+00  1.09221503E+00  1.10009480E+00
  1.11420294E+00  1.12310180E+00  1.12418808E+00  1.15881833E+00  1.16683064E+00
  1.18301939E+00  1.20263040E+00  1.20984864E+00  1.22604589E+00  1.23982125E+00
  1.24538362E+00  1.29493640E+00  1.29511627E+00  1.37503996E+00  1.37819968E+00
  1.43058939E+00  1.44874535E+00  1.52267774E+00  1.60626439E+00  1.65912093E+00
  1.70431639E+00  1.71358894E+00  1.74936955E+00  1.76877450E+00  1.76954332E+00
  1.80044482E+00  1.81883176E+00  2.00752432E+00  2.02378773E+00  2.10980348E+00
  2.10981300E+00  2.13885675E+00  2.18301844E+00  2.23472074E+00  2.27646211E+00
  2.30525348E+00  2.32136000E+00  2.33615930E+00  2.38966587E+00  2.42387767E+00
  2.46070751E+00  2.47077487E+00  2.50783891E+00  2.53125743E+00  2.58583759E+00
  2.62066867E+00  2.64243393E+00  2.66798554E+00  2.68015917E+00  2.72673008E+00
  2.78650395E+00  2.91017695E+00  2.92081374E+00  2.99008910E+00  3.00939654E+00
  3.07976861E+00  3.10759648E+00  3.10775227E+00  3.13647415E+00  3.23700403E+00
  3.43199342E+00  3.79099328E+00  4.52098504E+00  4.54552073E+00  4.56770295E+00
  4.62218644E+00  4.75995603E+00  4.81540946E+00  4.88647236E+00  5.13815090E+00
Alpha MO coefficients                      R   N=       19600
  3.71224311E-02  1.54630933E-03 -8.01245670E-06  1.90989539E-08  4.89284771E-05
 -1.49398616E-04 -1.20866004E-03 -2.22897877E-07 -1.15812067E-03 -5.32255139E-04
 -3.74247149E-05 -1.49049916E-04  1.10725619E-08  5.78610754E-05 -2.81180040E-08
  9.89213930E-01  2.75989689E-02  8.08262032E-05  1.71169730E-08  1.48869280E-04
 -1.52989409E-02  1.11247212E-03 -5.70834255E-08 -6.08765630E-04 -1.50126019E-03
 -1.29378559E-03 -2.08425392E-03  1.58238695E-08 -9.29962413E-05 -2.60308728E-08
  7.50405422E-02  1.87493747E-03 -8.96749335E-05 -1.81279624E-04  2.58726124E-05
  4.49220071E-03  8.69523510E-04  2.24840545E-03 -5.39402763E-05 -4.87309274E-04
 -5.90494298E-04 -3.29007688E-04 -1.30039185E-04  5.88864116E-05  5.88354117E-05
  7.50400374E-02  1.87493201E-03 -8.96527463E-05  1.81277265E-04  2.58784477E-05
  4.49217582E-03  8.69393276E-04 -2.24843037E-03 -5.38812145E-05 -4.87282445E-04
 -5.90505857E-04 -3.28994449E-04  1.30036203E-04  5.88752722E-05 -5.88229134E-05
  1.10657647E-05 -5.25123091E-04  2.10870012E-04  9.74970191E-10 -2.23926860E-05
  2.69070352E-03 -1.72900555E-03 -3.17005370E-08 -5.14014024E-04 -9.53124699E-05
 -1.69015350E-04 -1.35501867E-04  1.55469375E-08  1.00639397E-04 -2.45938285E-09
  1.06167241E-02  2.28468573E-04 -1.67076703E-05 -2.32610740E-06  4.32270214E-06
 -1.14131648E-03 -5.77263660E-05 -9.15054677E-04 -3.27608715E-05  6.79095113E-05
  5.91219441E-06 -2.66411981E-05  3.06612141E-05 -2.82721006E-05 -7.44558168E-06
  1.06172857E-02  2.28482056E-04 -1.67095463E-05  2.32875404E-06  4.31929688E-06
 -1.14129224E-03 -5.76620298E-05  9.15035105E-04 -3.27840398E-05  6.79037663E-05
  5.91457756E-06 -2.66461571E-05 -3.06665650E-05 -2.82664349E-05  7.44475526E-06
  2.32942108E-04 -1.30634806E-04 -3.34391468E-05 -8.62606351E-11  1.51495881E-06
  1.77996652E-03  8.92733348E-04 -3.41382020E-08 -1.57121274E-04 -1.57138674E-05
 -5.04826536E-06 -6.28856217E-05 -7.65028510E-10 -1.00600890E-05 -2.42695351E-09
 -3.87151662E-05 -1.91208781E-05 -3.87328845E-05 -1.89479172E-05 -8.35423249E-05
  2.17953526E-04 -8.35402659E-05  2.17941989E-04 -2.26963092E-04 -3.01300962E-04
  4.14271004E-07  6.17387849E-04 -2.27000288E-04 -3.01196236E-04 -4.82074120E-05
 -1.00898052E-04 -4.82066511E-05 -1.00890150E-04  1.14816488E-05  2.29038402E-04
 -1.83195871E-03 -1.74586102E-04  6.47763228E-06 -9.05811590E-09 -1.20728905E-05
  3.21281918E-04 -1.31169831E-04  1.89788940E-07  1.60494535E-04  1.47707309E-05
 -2.35083206E-05 -2.50524193E-05 -2.11645488E-08 -1.02799223E-05 -2.62430147E-10
 -2.82588646E-02 -8.25201278E-04  5.56360881E-05 -6.46529362E-09 -1.30667313E-05
 -1.70110003E-03  8.08435860E-04 -2.41428147E-07 -2.13641115E-04  7.81030810E-05
  5.93637694E-05  6.04154458E-05 -2.26175876E-08 -1.04633720E-05  4.74709333E-09
  8.95999512E-02  2.21635549E-03  1.31097419E-04 -3.27742631E-05 -2.79846816E-05
  3.68117331E-03 -1.74898327E-03  1.22560725E-03  3.77316548E-04 -4.37181656E-04
 -3.27612956E-04 -3.46461277E-04 -2.27806176E-05  2.22269755E-05  5.05366398E-06
  8.97064411E-02  2.21921591E-03  1.31217906E-04  3.27511981E-05 -2.80096486E-05
  3.68341597E-03 -1.75006032E-03 -1.22589830E-03  3.77581042E-04 -4.37707791E-04
 -3.28013947E-04 -3.46786977E-04  2.28152497E-05  2.22758012E-05 -5.06113581E-06