69689                                                                   
Freq      RMP2-FC                                                     6-31G(d)            
Number of atoms                            I               18
Info1-9                                    I   N=           9
          30          28        1002           0           0         100
           6           2           1
Charge                                     I                0
Multiplicity                               I                1
Number of electrons                        I               78
Number of alpha electrons                  I               39
Number of beta electrons                   I               39
Number of basis functions                  I              179
Number of independent functions            I              179
Number of point charges in /Mol/           I                0
Number of translation vectors              I                0
Atomic numbers                             I   N=          18
           7           7           7           7           7           6
           6           6           6           6           6           1
           1           1           1           1           1           1
Nuclear charges                            R   N=          18
  7.00000000E+00  7.00000000E+00  7.00000000E+00  7.00000000E+00  7.00000000E+00
  6.00000000E+00  6.00000000E+00  6.00000000E+00  6.00000000E+00  6.00000000E+00
  6.00000000E+00  1.00000000E+00  1.00000000E+00  1.00000000E+00  1.00000000E+00
  1.00000000E+00  1.00000000E+00  1.00000000E+00
Current cartesian coordinates              R   N=          54
 -3.38060251E+00 -3.09970462E-01 -3.39240715E-02 -5.10832236E-01 -3.49259919E+00
 -4.53035342E-03 -5.04880960E-01  3.30528485E+00 -6.34173437E-03  3.88182684E+00
  1.95944484E+00 -1.61521397E-02  5.14125257E+00 -2.26262071E+00  1.38344146E-01
 -1.03672985E+00  8.22298444E-01  8.66751900E-03  6.89862387E-01 -1.18061749E+00
  3.21068531E-02 -2.94216299E+00 -2.86506460E+00 -3.07528008E-02  3.26286919E+00
 -4.99184971E-01  9.08150068E-03 -5.79032032E+00  1.00624596E+00  3.36093749E-02
  1.99644757E+00  3.68654587E+00 -2.09507206E-02 -4.49037469E+00 -4.20643720E+00
 -6.46740798E-02 -5.53401082E+00  2.84247024E+00 -8.65366564E-01 -7.19376350E+00
 -9.18181791E-02 -1.00382799E+00 -6.41984471E+00  1.28444502E+00  1.98045779E+00
  2.61011884E+00  5.64867707E+00 -4.30981908E-02  6.88388414E+00 -1.64956139E+00
 -3.60179960E-01  4.67684892E+00 -4.04589012E+00 -3.75652292E-01
Force Field                                I                0
Int Atom Types                             I   N=          18
           0           0           0           0           0           0
           0           0           0           0           0           0
           0           0           0           0           0           0
MM charges                                 R   N=          18
  0.00000000E+00  0.00000000E+00  0.00000000E+00  0.00000000E+00  0.00000000E+00
  0.00000000E+00  0.00000000E+00  0.00000000E+00  0.00000000E+00  0.00000000E+00
  0.00000000E+00  0.00000000E+00  0.00000000E+00  0.00000000E+00  0.00000000E+00
  0.00000000E+00  0.00000000E+00  0.00000000E+00
Integer atomic weights                     I   N=          18
          14          14          14          14          14          12
          12          12          12          12          12           1
           1           1           1           1           1           1
Real atomic weights                        R   N=          18
  1.40030740E+01  1.40030740E+01  1.40030740E+01  1.40030740E+01  1.40030740E+01
  1.20000000E+01  1.20000000E+01  1.20000000E+01  1.20000000E+01  1.20000000E+01
  1.20000000E+01  1.00782504E+00  1.00782504E+00  1.00782504E+00  1.00782504E+00
  1.00782504E+00  1.00782504E+00  1.00782504E+00
Atom fragment info                         I   N=          18
           0           0           0           0           0           0
           0           0           0           0           0           0
           0           0           0           0           0           0
Atom residue num                           I   N=          18
           0           0           0           0           0           0
           0           0           0           0           0           0
           0           0           0           0           0           0
Nuclear spins                              I   N=          18
           2           2           2           2           2           0
           0           0           0           0           0           1
           1           1           1           1           1           1
Nuclear ZEff                               R   N=          18
 -4.55000000E+00 -4.55000000E+00 -4.55000000E+00 -4.55000000E+00 -4.55000000E+00
 -3.60000000E+00 -3.60000000E+00 -3.60000000E+00 -3.60000000E+00 -3.60000000E+00
 -3.60000000E+00 -1.00000000E+00 -1.00000000E+00 -1.00000000E+00 -1.00000000E+00
 -1.00000000E+00 -1.00000000E+00 -1.00000000E+00
Nuclear QMom                               R   N=          18
  2.04400000E+00  2.04400000E+00  2.04400000E+00  2.04400000E+00  2.04400000E+00
  0.00000000E+00  0.00000000E+00  0.00000000E+00  0.00000000E+00  0.00000000E+00
  0.00000000E+00  0.00000000E+00  0.00000000E+00  0.00000000E+00  0.00000000E+00
  0.00000000E+00  0.00000000E+00  0.00000000E+00
Nuclear GFac                               R   N=          18
  4.03761000E-01  4.03761000E-01  4.03761000E-01  4.03761000E-01  4.03761000E-01
  0.00000000E+00  0.00000000E+00  0.00000000E+00  0.00000000E+00  0.00000000E+00
  0.00000000E+00  2.79284600E+00  2.79284600E+00  2.79284600E+00  2.79284600E+00
  2.79284600E+00  2.79284600E+00  2.79284600E+00
MicOpt                                     I   N=          18
          -1          -1          -1          -1          -1          -1
          -1          -1          -1          -1          -1          -1
          -1          -1          -1          -1          -1          -1
Number of contracted shells                I               58
Number of primitive shells                 I              149
Pure/Cartesian d shells                    I                1
Pure/Cartesian f shells                    I                0
Highest angular momentum                   I                2
Largest degree of contraction              I                6
Shell types                                I   N=          58
           0          -1          -1           2           0          -1
          -1           2           0          -1          -1           2
           0          -1          -1           2           0          -1
          -1           2           0          -1          -1           2
           0          -1          -1           2           0          -1
          -1           2           0          -1          -1           2
           0          -1          -1           2           0          -1
          -1           2           0           0           0           0
           0           0           0           0           0           0
           0           0           0           0
Number of primitives per shell             I   N=          58
           6           3           1           1           6           3
           1           1           6           3           1           1
           6           3           1           1           6           3
           1           1           6           3           1           1
           6           3           1           1           6           3
           1           1           6           3           1           1
           6           3           1           1           6           3
           1           1           3           1           3           1
           3           1           3           1           3           1
           3           1           3           1
Shell to atom map                          I   N=          58
           1           1           1           1           2           2
           2           2           3           3           3           3
           4           4           4           4           5           5
           5           5           6           6           6           6
           7           7           7           7           8           8
           8           8           9           9           9           9
          10          10          10          10          11          11
          11          11          12          12          13          13
          14          14          15          15          16          16
          17          17          18          18
Primitive exponents                        R   N=         149
  4.17351146E+03  6.27457911E+02  1.42902093E+02  4.02343293E+01  1.28202129E+01
  4.39043701E+00  1.16263619E+01  2.71627981E+00  7.72218397E-01  2.12031498E-01
  8.00000000E-01  4.17351146E+03  6.27457911E+02  1.42902093E+02  4.02343293E+01
  1.28202129E+01  4.39043701E+00  1.16263619E+01  2.71627981E+00  7.72218397E-01
  2.12031498E-01  8.00000000E-01  4.17351146E+03  6.27457911E+02  1.42902093E+02
  4.02343293E+01  1.28202129E+01  4.39043701E+00  1.16263619E+01  2.71627981E+00
  7.72218397E-01  2.12031498E-01  8.00000000E-01  4.17351146E+03  6.27457911E+02
  1.42902093E+02  4.02343293E+01  1.28202129E+01  4.39043701E+00  1.16263619E+01
  2.71627981E+00  7.72218397E-01  2.12031498E-01  8.00000000E-01  4.17351146E+03
  6.27457911E+02  1.42902093E+02  4.02343293E+01  1.28202129E+01  4.39043701E+00
  1.16263619E+01  2.71627981E+00  7.72218397E-01  2.12031498E-01  8.00000000E-01
  3.04752488E+03  4.57369518E+02  1.03948685E+02  2.92101553E+01  9.28666296E+00
  3.16392696E+00  7.86827235E+00  1.88128854E+00  5.44249258E-01  1.68714478E-01
  8.00000000E-01  3.04752488E+03  4.57369518E+02  1.03948685E+02  2.92101553E+01
  9.28666296E+00  3.16392696E+00  7.86827235E+00  1.88128854E+00  5.44249258E-01
  1.68714478E-01  8.00000000E-01  3.04752488E+03  4.57369518E+02  1.03948685E+02
  2.92101553E+01  9.28666296E+00  3.16392696E+00  7.86827235E+00  1.88128854E+00
  5.44249258E-01  1.68714478E-01  8.00000000E-01  3.04752488E+03  4.57369518E+02
  1.03948685E+02  2.92101553E+01  9.28666296E+00  3.16392696E+00  7.86827235E+00
  1.88128854E+00  5.44249258E-01  1.68714478E-01  8.00000000E-01  3.04752488E+03
  4.57369518E+02  1.03948685E+02  2.92101553E+01  9.28666296E+00  3.16392696E+00
  7.86827235E+00  1.88128854E+00  5.44249258E-01  1.68714478E-01  8.00000000E-01
  3.04752488E+03  4.57369518E+02  1.03948685E+02  2.92101553E+01  9.28666296E+00
  3.16392696E+00  7.86827235E+00  1.88128854E+00  5.44249258E-01  1.68714478E-01
  8.00000000E-01  1.87311370E+01  2.82539436E+00  6.40121692E-01  1.61277759E-01
  1.87311370E+01  2.82539436E+00  6.40121692E-01  1.61277759E-01  1.87311370E+01
  2.82539436E+00  6.40121692E-01  1.61277759E-01  1.87311370E+01  2.82539436E+00
  6.40121692E-01  1.61277759E-01  1.87311370E+01  2.82539436E+00  6.40121692E-01
  1.61277759E-01  1.87311370E+01  2.82539436E+00  6.40121692E-01  1.61277759E-01
  1.87311370E+01  2.82539436E+00  6.40121692E-01  1.61277759E-01
Contraction coefficients                   R   N=         149
  1.83477216E-03  1.39946270E-02  6.85865518E-02  2.32240873E-01  4.69069948E-01
  3.60455199E-01 -1.14961182E-01 -1.69117479E-01  1.14585195E+00  1.00000000E+00
  1.00000000E+00  1.83477216E-03  1.39946270E-02  6.85865518E-02  2.32240873E-01
  4.69069948E-01  3.60455199E-01 -1.14961182E-01 -1.69117479E-01  1.14585195E+00
  1.00000000E+00  1.00000000E+00  1.83477216E-03  1.39946270E-02  6.85865518E-02
  2.32240873E-01  4.69069948E-01  3.60455199E-01 -1.14961182E-01 -1.69117479E-01
  1.14585195E+00  1.00000000E+00  1.00000000E+00  1.83477216E-03  1.39946270E-02
  6.85865518E-02  2.32240873E-01  4.69069948E-01  3.60455199E-01 -1.14961182E-01
 -1.69117479E-01  1.14585195E+00  1.00000000E+00  1.00000000E+00  1.83477216E-03
  1.39946270E-02  6.85865518E-02  2.32240873E-01  4.69069948E-01  3.60455199E-01
 -1.14961182E-01 -1.69117479E-01  1.14585195E+00  1.00000000E+00  1.00000000E+00
  1.83473713E-03  1.40373228E-02  6.88426223E-02  2.32184443E-01  4.67941348E-01
  3.62311985E-01 -1.19332420E-01 -1.60854152E-01  1.14345644E+00  1.00000000E+00
  1.00000000E+00  1.83473713E-03  1.40373228E-02  6.88426223E-02  2.32184443E-01
  4.67941348E-01  3.62311985E-01 -1.19332420E-01 -1.60854152E-01  1.14345644E+00
  1.00000000E+00  1.00000000E+00  1.83473713E-03  1.40373228E-02  6.88426223E-02
  2.32184443E-01  4.67941348E-01  3.62311985E-01 -1.19332420E-01 -1.60854152E-01
  1.14345644E+00  1.00000000E+00  1.00000000E+00  1.83473713E-03  1.40373228E-02
  6.88426223E-02  2.32184443E-01  4.67941348E-01  3.62311985E-01 -1.19332420E-01
 -1.60854152E-01  1.14345644E+00  1.00000000E+00  1.00000000E+00  1.83473713E-03
  1.40373228E-02  6.88426223E-02  2.32184443E-01  4.67941348E-01  3.62311985E-01
 -1.19332420E-01 -1.60854152E-01  1.14345644E+00  1.00000000E+00  1.00000000E+00
  1.83473713E-03  1.40373228E-02  6.88426223E-02  2.32184443E-01  4.67941348E-01
  3.62311985E-01 -1.19332420E-01 -1.60854152E-01  1.14345644E+00  1.00000000E+00
  1.00000000E+00  3.34946043E-02  2.34726953E-01  8.13757326E-01  1.00000000E+00
  3.34946043E-02  2.34726953E-01  8.13757326E-01  1.00000000E+00  3.34946043E-02
  2.34726953E-01  8.13757326E-01  1.00000000E+00  3.34946043E-02  2.34726953E-01
  8.13757326E-01  1.00000000E+00  3.34946043E-02  2.34726953E-01  8.13757326E-01
  1.00000000E+00  3.34946043E-02  2.34726953E-01  8.13757326E-01  1.00000000E+00
  3.34946043E-02  2.34726953E-01  8.13757326E-01  1.00000000E+00
P(S=P) Contraction coefficients            R   N=         149
  0.00000000E+00  0.00000000E+00  0.00000000E+00  0.00000000E+00  0.00000000E+00
  0.00000000E+00  6.75797439E-02  3.23907296E-01  7.40895140E-01  1.00000000E+00
  0.00000000E+00  0.00000000E+00  0.00000000E+00  0.00000000E+00  0.00000000E+00
  0.00000000E+00  0.00000000E+00  6.75797439E-02  3.23907296E-01  7.40895140E-01
  1.00000000E+00  0.00000000E+00  0.00000000E+00  0.00000000E+00  0.00000000E+00
  0.00000000E+00  0.00000000E+00  0.00000000E+00  6.75797439E-02  3.23907296E-01
  7.40895140E-01  1.00000000E+00  0.00000000E+00  0.00000000E+00  0.00000000E+00
  0.00000000E+00  0.00000000E+00  0.00000000E+00  0.00000000E+00  6.75797439E-02
  3.23907296E-01  7.40895140E-01  1.00000000E+00  0.00000000E+00  0.00000000E+00
  0.00000000E+00  0.00000000E+00  0.00000000E+00  0.00000000E+00  0.00000000E+00
  6.75797439E-02  3.23907296E-01  7.40895140E-01  1.00000000E+00  0.00000000E+00
  0.00000000E+00  0.00000000E+00  0.00000000E+00  0.00000000E+00  0.00000000E+00
  0.00000000E+00  6.89990666E-02  3.16423961E-01  7.44308291E-01  1.00000000E+00
  0.00000000E+00  0.00000000E+00  0.00000000E+00  0.00000000E+00  0.00000000E+00
  0.00000000E+00  0.00000000E+00  6.89990666E-02  3.16423961E-01  7.44308291E-01
  1.00000000E+00  0.00000000E+00  0.00000000E+00  0.00000000E+00  0.00000000E+00
  0.00000000E+00  0.00000000E+00  0.00000000E+00  6.89990666E-02  3.16423961E-01
  7.44308291E-01  1.00000000E+00  0.00000000E+00  0.00000000E+00  0.00000000E+00
  0.00000000E+00  0.00000000E+00  0.00000000E+00  0.00000000E+00  6.89990666E-02
  3.16423961E-01  7.44308291E-01  1.00000000E+00  0.00000000E+00  0.00000000E+00
  0.00000000E+00  0.00000000E+00  0.00000000E+00  0.00000000E+00  0.00000000E+00
  6.89990666E-02  3.16423961E-01  7.44308291E-01  1.00000000E+00  0.00000000E+00
  0.00000000E+00  0.00000000E+00  0.00000000E+00  0.00000000E+00  0.00000000E+00
  0.00000000E+00  6.89990666E-02  3.16423961E-01  7.44308291E-01  1.00000000E+00
  0.00000000E+00  0.00000000E+00  0.00000000E+00  0.00000000E+00  0.00000000E+00
  0.00000000E+00  0.00000000E+00  0.00000000E+00  0.00000000E+00  0.00000000E+00
  0.00000000E+00  0.00000000E+00  0.00000000E+00  0.00000000E+00  0.00000000E+00
  0.00000000E+00  0.00000000E+00  0.00000000E+00  0.00000000E+00  0.00000000E+00
  0.00000000E+00  0.00000000E+00  0.00000000E+00  0.00000000E+00  0.00000000E+00
  0.00000000E+00  0.00000000E+00  0.00000000E+00  0.00000000E+00
Coordinates of each shell                  R   N=         174
 -3.38060251E+00 -3.09970462E-01 -3.39240715E-02 -3.38060251E+00 -3.09970462E-01
 -3.39240715E-02 -3.38060251E+00 -3.09970462E-01 -3.39240715E-02 -3.38060251E+00
 -3.09970462E-01 -3.39240715E-02 -5.10832236E-01 -3.49259919E+00 -4.53035342E-03
 -5.10832236E-01 -3.49259919E+00 -4.53035342E-03 -5.10832236E-01 -3.49259919E+00
 -4.53035342E-03 -5.10832236E-01 -3.49259919E+00 -4.53035342E-03 -5.04880960E-01
  3.30528485E+00 -6.34173437E-03 -5.04880960E-01  3.30528485E+00 -6.34173437E-03
 -5.04880960E-01  3.30528485E+00 -6.34173437E-03 -5.04880960E-01  3.30528485E+00
 -6.34173437E-03  3.88182684E+00  1.95944484E+00 -1.61521397E-02  3.88182684E+00
  1.95944484E+00 -1.61521397E-02  3.88182684E+00  1.95944484E+00 -1.61521397E-02
  3.88182684E+00  1.95944484E+00 -1.61521397E-02  5.14125257E+00 -2.26262071E+00
  1.38344146E-01  5.14125257E+00 -2.26262071E+00  1.38344146E-01  5.14125257E+00
 -2.26262071E+00  1.38344146E-01  5.14125257E+00 -2.26262071E+00  1.38344146E-01
 -1.03672985E+00  8.22298444E-01  8.66751900E-03 -1.03672985E+00  8.22298444E-01
  8.66751900E-03 -1.03672985E+00  8.22298444E-01  8.66751900E-03 -1.03672985E+00
  8.22298444E-01  8.66751900E-03  6.89862387E-01 -1.18061749E+00  3.21068531E-02
  6.89862387E-01 -1.18061749E+00  3.21068531E-02  6.89862387E-01 -1.18061749E+00
  3.21068531E-02  6.89862387E-01 -1.18061749E+00  3.21068531E-02 -2.94216299E+00
 -2.86506460E+00 -3.07528008E-02 -2.94216299E+00 -2.86506460E+00 -3.07528008E-02
 -2.94216299E+00 -2.86506460E+00 -3.07528008E-02 -2.94216299E+00 -2.86506460E+00
 -3.07528008E-02  3.26286919E+00 -4.99184971E-01  9.08150068E-03  3.26286919E+00
 -4.99184971E-01  9.08150068E-03  3.26286919E+00 -4.99184971E-01  9.08150068E-03
  3.26286919E+00 -4.99184971E-01  9.08150068E-03 -5.79032032E+00  1.00624596E+00
  3.36093749E-02 -5.79032032E+00  1.00624596E+00  3.36093749E-02 -5.79032032E+00
  1.00624596E+00  3.36093749E-02 -5.79032032E+00  1.00624596E+00  3.36093749E-02
  1.99644757E+00  3.68654587E+00 -2.09507206E-02  1.99644757E+00  3.68654587E+00
 -2.09507206E-02  1.99644757E+00  3.68654587E+00 -2.09507206E-02  1.99644757E+00
  3.68654587E+00 -2.09507206E-02 -4.49037469E+00 -4.20643720E+00 -6.46740798E-02
 -4.49037469E+00 -4.20643720E+00 -6.46740798E-02 -5.53401082E+00  2.84247024E+00
 -8.65366564E-01 -5.53401082E+00  2.84247024E+00 -8.65366564E-01 -7.19376350E+00
 -9.18181791E-02 -1.00382799E+00 -7.19376350E+00 -9.18181791E-02 -1.00382799E+00
 -6.41984471E+00  1.28444502E+00  1.98045779E+00 -6.41984471E+00  1.28444502E+00
  1.98045779E+00  2.61011884E+00  5.64867707E+00 -4.30981908E-02  2.61011884E+00
  5.64867707E+00 -4.30981908E-02  6.88388414E+00 -1.64956139E+00 -3.60179960E-01
  6.88388414E+00 -1.64956139E+00 -3.60179960E-01  4.67684892E+00 -4.04589012E+00
 -3.75652292E-01  4.67684892E+00 -4.04589012E+00 -3.75652292E-01
Constraint Structure                       R   N=          54
 -3.38060251E+00 -3.09970462E-01 -3.39240715E-02 -5.10832236E-01 -3.49259919E+00
 -4.53035342E-03 -5.04880960E-01  3.30528485E+00 -6.34173437E-03  3.88182684E+00
  1.95944484E+00 -1.61521397E-02  5.14125257E+00 -2.26262071E+00  1.38344146E-01
 -1.03672985E+00  8.22298444E-01  8.66751900E-03  6.89862387E-01 -1.18061749E+00
  3.21068531E-02 -2.94216299E+00 -2.86506460E+00 -3.07528008E-02  3.26286919E+00
 -4.99184971E-01  9.08150068E-03 -5.79032032E+00  1.00624596E+00  3.36093749E-02
  1.99644757E+00  3.68654587E+00 -2.09507206E-02 -4.49037469E+00 -4.20643720E+00
 -6.46740798E-02 -5.53401082E+00  2.84247024E+00 -8.65366564E-01 -7.19376350E+00
 -9.18181791E-02 -1.00382799E+00 -6.41984471E+00  1.28444502E+00  1.98045779E+00
  2.61011884E+00  5.64867707E+00 -4.30981908E-02  6.88388414E+00 -1.64956139E+00
 -3.60179960E-01  4.67684892E+00 -4.04589012E+00 -3.75652292E-01
Num ILSW                                   I              100
ILSW                                       I   N=         100
           0           1           0           0           2           0
           0           0           0           0           0          -1
           0           0           0           0           0           0
           0           0           0           0           1           0
           1           0           0           0           0           0
           0           0      100000           0          -1           0
           0           0           0           0           0           0
           0           0           0           1           1           0
           0           0           1           0           0           0
           0           0           4          40           0           0
           0           0           0           0           0           0
           0           0           0           0           0           0
           0           0           0           0           0           0
           0           0           0           0           0           0
           0           0           0           0           0           0
           0           0           0           0           0           0
           0           0           0           0
Num RLSW                                   I               40
RLSW                                       R   N=          40
  1.00000000E+00  1.00000000E+00  1.00000000E+00  1.00000000E+00  1.00000000E+00
  0.00000000E+00  0.00000000E+00  1.00000000E+00  0.00000000E+00  0.00000000E+00
  0.00000000E+00  0.00000000E+00  1.00000000E+00  0.00000000E+00  0.00000000E+00
  0.00000000E+00  0.00000000E+00  1.00000000E+00  0.00000000E+00  0.00000000E+00
  0.00000000E+00  0.00000000E+00  1.00000000E+00  0.00000000E+00  0.00000000E+00
  0.00000000E+00  0.00000000E+00  1.00000000E+00  0.00000000E+00  0.00000000E+00
  0.00000000E+00  0.00000000E+00  0.00000000E+00  0.00000000E+00  0.00000000E+00
  0.00000000E+00  0.00000000E+00  0.00000000E+00  1.00000000E+00  1.00000000E+00
MxBond                                     I                4
NBond                                      I   N=          18
           3           2           2           2           3           3
           3           3           3           4           3           1
           1           1           1           1           1           1
IBond                                      I   N=          72
           6           8          10           0           7           8
           0           0           6          11           0           0
           9          11           0           0           9          17
          18           0           1           3           7           0
           2           6           9           0           1           2
          12           0           4           5           7           0
           1          13          14          15           3           4
          16           0           8           0           0           0
          10           0           0           0          10           0
           0           0          10           0           0           0
          11           0           0           0           5           0
           0           0           5           0           0           0
RBond                                      R   N=          72
  1.50000000E+00  1.50000000E+00  1.00000000E+00  0.00000000E+00  1.00000000E+00
  1.50000000E+00  0.00000000E+00  0.00000000E+00  1.50000000E+00  1.50000000E+00
  0.00000000E+00  0.00000000E+00  1.50000000E+00  1.50000000E+00  0.00000000E+00
  0.00000000E+00  1.00000000E+00  1.00000000E+00  1.00000000E+00  0.00000000E+00
  1.50000000E+00  1.50000000E+00  1.50000000E+00  0.00000000E+00  1.00000000E+00
  1.50000000E+00  1.50000000E+00  0.00000000E+00  1.50000000E+00  1.50000000E+00
  1.00000000E+00  0.00000000E+00  1.50000000E+00  1.00000000E+00  1.50000000E+00
  0.00000000E+00  1.00000000E+00  1.00000000E+00  1.00000000E+00  1.00000000E+00
  1.50000000E+00  1.50000000E+00  1.00000000E+00  0.00000000E+00  1.00000000E+00
  0.00000000E+00  0.00000000E+00  0.00000000E+00  1.00000000E+00  0.00000000E+00
  0.00000000E+00  0.00000000E+00  1.00000000E+00  0.00000000E+00  0.00000000E+00
  0.00000000E+00  1.00000000E+00  0.00000000E+00  0.00000000E+00  0.00000000E+00
  1.00000000E+00  0.00000000E+00  0.00000000E+00  0.00000000E+00  1.00000000E+00
  0.00000000E+00  0.00000000E+00  0.00000000E+00  1.00000000E+00  0.00000000E+00
  0.00000000E+00  0.00000000E+00
Virial Ratio                               R      2.002736970126031E+00
SCF Energy                                 R     -5.035464535063560E+02
MP2 Energy                                 R     -5.051138750864474E+02
Total Energy                               R     -5.051138750864474E+02
Post-SCF wavefunction norm                 R      1.748355418190677E+00
RMS Force                                  R      4.327731380211782E-08
RMS Density                                R      7.615885899750248E-10
External E-field                           R   N=          35
  0.00000000E+00  0.00000000E+00  0.00000000E+00  0.00000000E+00  0.00000000E+00
  0.00000000E+00  0.00000000E+00  0.00000000E+00  0.00000000E+00  0.00000000E+00
  0.00000000E+00  0.00000000E+00  0.00000000E+00  0.00000000E+00  0.00000000E+00
  0.00000000E+00  0.00000000E+00  0.00000000E+00  0.00000000E+00  0.00000000E+00
  0.00000000E+00  0.00000000E+00  0.00000000E+00  0.00000000E+00  0.00000000E+00
  0.00000000E+00  0.00000000E+00  0.00000000E+00  0.00000000E+00  0.00000000E+00
  0.00000000E+00  0.00000000E+00  0.00000000E+00  0.00000000E+00  0.00000000E+00
IOpCl                                      I                0
IROHF                                      I                0
Alpha Orbital Energies                     R   N=         179
 -1.56352750E+01 -1.55821328E+01 -1.55673014E+01 -1.55609161E+01 -1.55521615E+01
 -1.13339401E+01 -1.13198400E+01 -1.13115912E+01 -1.13108706E+01 -1.12867847E+01
 -1.12496404E+01 -1.36568235E+00 -1.29359373E+00 -1.23960591E+00 -1.19355124E+00
 -1.14862098E+00 -1.02865821E+00 -9.83874581E-01 -8.87501711E-01 -8.68496591E-01
 -8.00057322E-01 -7.50330975E-01 -7.21395845E-01 -6.78767682E-01 -6.70052853E-01
 -6.62229878E-01 -6.21339663E-01 -6.03370975E-01 -5.92058146E-01 -5.89142228E-01
 -5.69319237E-01 -5.31954094E-01 -4.89702315E-01 -4.85934769E-01 -4.44930642E-01
 -4.08185401E-01 -4.02240712E-01 -3.61348236E-01 -3.01560227E-01  1.25762326E-01
  1.57131819E-01  2.01774400E-01  2.35327270E-01  2.38212846E-01  2.74289982E-01
  2.90645643E-01  2.94904097E-01  3.06357389E-01  3.14947310E-01  3.29623535E-01
  3.81158480E-01  3.93559540E-01  4.31683896E-01  4.44995601E-01  4.58636388E-01
  5.00451964E-01  5.27165512E-01  5.38695693E-01  5.63651802E-01  5.99479122E-01
  6.30578744E-01  6.64500810E-01  6.95783185E-01  7.26922680E-01  7.48250064E-01
  7.55476251E-01  7.86990288E-01  8.03559191E-01  8.21701672E-01  8.31801600E-01
  8.40824982E-01  8.67122643E-01  8.70947171E-01  9.07909382E-01  9.21057745E-01
  9.36110423E-01  9.66740460E-01  9.71454838E-01  9.93564642E-01  9.98265307E-01
  1.01338756E+00  1.01859288E+00  1.02344053E+00  1.05505335E+00  1.07697739E+00
  1.09171122E+00  1.09917905E+00  1.11416467E+00  1.11959534E+00  1.13686251E+00
  1.16295551E+00  1.17803320E+00  1.19067862E+00  1.19715565E+00  1.21301259E+00
  1.22017049E+00  1.23092314E+00  1.23681985E+00  1.28687062E+00  1.34329322E+00
  1.35483832E+00  1.39116510E+00  1.43951786E+00  1.45723996E+00  1.50341852E+00
  1.53310151E+00  1.55546022E+00  1.57250980E+00  1.59018001E+00  1.62224313E+00
  1.65758226E+00  1.67351544E+00  1.68239216E+00  1.73739238E+00  1.76490911E+00
  1.77989881E+00  1.79740936E+00  1.81707709E+00  1.85826673E+00  1.91296908E+00
  1.93586356E+00  2.02893755E+00  2.08470896E+00  2.08566915E+00  2.10452822E+00
  2.11989622E+00  2.18831691E+00  2.22319367E+00  2.23518728E+00  2.25679976E+00
  2.28106761E+00  2.31411791E+00  2.34212539E+00  2.41385085E+00  2.43405882E+00
  2.48143624E+00  2.49173349E+00  2.51406814E+00  2.52184210E+00  2.53938137E+00
  2.55706667E+00  2.58166761E+00  2.59578933E+00  2.61948188E+00  2.66151049E+00
  2.67237424E+00  2.71660498E+00  2.73423917E+00  2.77527541E+00  2.79698979E+00
  2.83130456E+00  2.87392644E+00  2.87853653E+00  2.92853584E+00  2.97483755E+00
  2.99077071E+00  3.01913448E+00  3.04925108E+00  3.08968252E+00  3.10030080E+00
  3.12535101E+00  3.25067041E+00  3.27359750E+00  3.34333598E+00  3.39827087E+00
  3.56673422E+00  3.64255790E+00  3.81732153E+00  4.27948910E+00  4.41874380E+00
  4.48595617E+00  4.52831828E+00  4.56706127E+00  4.64734685E+00  4.71026342E+00
  4.76384278E+00  4.81559999E+00  4.89592505E+00  5.10091803E+00
Alpha MO coefficients                      R   N=       32041
  9.95041426E-01  2.54778142E-02  1.76267376E-04 -7.80709185E-05  6.88817943E-05
 -5.96955107E-03 -1.75403236E-03 -1.55220959E-04 -8.86817448E-05 -3.32285964E-03
 -3.26279395E-03 -3.19966809E-03 -6.42426134E-05 -2.56357965E-06 -2.73790601E-06
 -2.56962180E-04 -2.63419645E-05  4.49763594E-05 -2.31011187E-06  1.02584973E-06
  2.06782602E-04  2.40485625E-04  9.99337061E-05  1.75493172E-06 -1.51339845E-05
  2.75010394E-05 -1.24154894E-05  2.72187587E-05  6.31584655E-07  1.01998042E-06
 -1.48951477E-04 -1.23662589E-04 -4.79255271E-06 -1.59288748E-05  1.95154730E-06
  1.52153955E-03  3.10958175E-04 -4.37690055E-04  4.97803593E-06 -7.24368824E-05
 -2.16324988E-05 -8.43642403E-05 -6.89370943E-05  1.05859684E-06 -2.85814161E-06
  1.53045142E-05  3.43973451E-05  1.89802313E-05 -1.03525995E-05 -1.25667490E-06
 -6.10808766E-04  5.47762918E-05  1.97765685E-04  5.14730627E-06  1.84385765E-05
  2.12632512E-05  8.13875457E-06 -8.67309335E-06 -4.39888686E-08 -1.14597138E-06
 -1.35956791E-05 -3.95256855E-05 -9.16961347E-06  6.06786347E-06  1.84533455E-06