
    -----------------------------------------------------------------------
          Psi4: An Open-Source Ab Initio Electronic Structure Package
                               Psi4 1.4a3.dev225 

                         Git: Rev {master} 7105e37 


    D. G. A. Smith, L. A. Burns, A. C. Simmonett, R. M. Parrish,
    M. C. Schieber, R. Galvelis, P. Kraus, H. Kruse, R. Di Remigio,
    A. Alenaizan, A. M. James, S. Lehtola, J. P. Misiewicz, M. Scheurer,
    R. A. Shaw, J. B. Schriber, Y. Xie, Z. L. Glick, D. A. Sirianni,
    J. S. O'Brien, J. M. Waldrop, A. Kumar, E. G. Hohenstein,
    B. P. Pritchard, B. R. Brooks, H. F. Schaefer III, A. Yu. Sokolov,
    K. Patkowski, A. E. DePrince III, U. Bozkaya, R. A. King,
    F. A. Evangelista, J. M. Turney, T. D. Crawford, C. D. Sherrill,
    J. Chem. Phys. 152(18) 184108 (2020). https://doi.org/10.1063/5.0006002

                            Additional Code Authors
    E. T. Seidl, C. L. Janssen, E. F. Valeev, M. L. Leininger,
    J. F. Gonthier, R. M. Richard, H. R. McAlexander, M. Saitow, X. Wang,
    P. Verma, and M. H. Lechner

             Previous Authors, Complete List of Code Contributors,
                       and Citations for Specific Modules
    https://github.com/psi4/psi4/blob/master/codemeta.json
    https://github.com/psi4/psi4/graphs/contributors
    http://psicode.org/psi4manual/master/introduction.html#citing-psifour

    -----------------------------------------------------------------------


    Psi4 started on: Saturday, 20 March 2021 07:15AM

    Process ID: 87149
    Host:       c445-114.stampede2.tacc.utexas.edu
    PSIDATADIR: /home1/07844/xy3866/miniconda3/envs/p4env/share/psi4
    Memory:     500.0 MiB
    Threads:    32
    
  ==> Input File <==

--------------------------------------------------------------------------
#psi4
#
memory 32 gb

molecule  {
1 1
  N        0.0000020     1.3752550     0.0881560
  C        0.0000000    -0.0769010    -0.3911070
  C       -1.3165179    -0.7570606     0.1195669
  C        1.2745180    -0.7353670     0.1032760
  H        0.0000000    -0.0031690    -1.4821840
  H       -0.8310820     1.8851260    -0.2406460
  H        0.8310870     1.8851240    -0.2406470
  H        0.0000020     1.4165200     1.1165880
  H       -1.3097880    -1.7608000    -0.2705820
  H       -1.2994510    -0.7789970     1.1965910
  H       -2.1709030    -0.2224960    -0.2574420
  H        1.3097830    -1.7608040    -0.2705810
  H        1.2994490    -0.7790000     1.1965910
  H        2.1709020    -0.2225020    -0.2574420
units angstrom
no_reorient  #important for SAPT in psi4, default
symmetry c1  #important for SAPT in psi4, default
}

set PROPERTIES_ORIGIN ["COM"]
properties('MP2/aug-cc-pvtz', properties = ['dipole'])
--------------------------------------------------------------------------

  Memory set to  29.802 GiB by Python driver.
    SCF Algorithm Type (re)set to DF.

*** tstart() called on c445-114.stampede2.tacc.utexas.edu
*** at Sat Mar 20 07:15:08 2021

   => Loading Basis Set <=

    Name: AUG-CC-PVTZ
    Role: ORBITAL
    Keyword: BASIS
    atoms 1    entry N          line   285 file /home1/07844/xy3866/miniconda3/envs/p4env/share/psi4/basis/aug-cc-pvtz.gbs 
    atoms 2-4  entry C          line   239 file /home1/07844/xy3866/miniconda3/envs/p4env/share/psi4/basis/aug-cc-pvtz.gbs 
    atoms 5-14 entry H          line    40 file /home1/07844/xy3866/miniconda3/envs/p4env/share/psi4/basis/aug-cc-pvtz.gbs 


         ---------------------------------------------------------
                                   SCF
               by Justin Turney, Rob Parrish, Andy Simmonett
                          and Daniel G. A. Smith
                              RHF Reference
                       32 Threads,  30517 MiB Core
         ---------------------------------------------------------

  ==> Geometry <==

    Molecular point group: c1
    Full point group: C1

    Geometry (in Angstrom), charge = 1, multiplicity = 1:

       Center              X                  Y                   Z               Mass       
    ------------   -----------------  -----------------  -----------------  -----------------
         N            0.008390160669     1.373887053795     0.092993310438    14.003074004430
         C            0.008388160669    -0.078268946205    -0.386269689562    12.000000000000
         C           -1.308129739331    -0.758428546205     0.124404210438    12.000000000000
         C            1.282906160669    -0.736734946205     0.108113310438    12.000000000000
         H            0.008388160669    -0.004536946205    -1.477346689562     1.007825032230
         H           -0.822693839331     1.883758053795    -0.235808689562     1.007825032230
         H            0.839475160669     1.883756053795    -0.235809689562     1.007825032230
         H            0.008390160669     1.415152053795     1.121425310438     1.007825032230
         H           -1.301399839331    -1.762167946205    -0.265744689562     1.007825032230
         H           -1.291062839331    -0.780364946205     1.201428310438     1.007825032230
         H           -2.162514839331    -0.223863946205    -0.252604689562     1.007825032230
         H            1.318171160669    -1.762171946205    -0.265743689562     1.007825032230
         H            1.307837160669    -0.780367946205     1.201428310438     1.007825032230
         H            2.179290160669    -0.223869946205    -0.252604689562     1.007825032230

  Running in c1 symmetry.

  Rotational constants: A =      0.25788  B =      0.25032  C =      0.14694 [cm^-1]
  Rotational constants: A =   7731.18841  B =   7504.52935  C =   4405.25033 [MHz]
  Nuclear repulsion =  143.066934016120996

  Charge       = 1
  Multiplicity = 1
  Electrons    = 34
  Nalpha       = 17
  Nbeta        = 17

  ==> Algorithm <==

  SCF Algorithm Type is DF.
  DIIS enabled.
  MOM disabled.
  Fractional occupation disabled.
  Guess Type is SAD.
  Energy threshold   = 1.00e-10
  Density threshold  = 1.00e-10
  Integral threshold = 1.00e-12

  ==> Primary Basis <==

  Basis Set: AUG-CC-PVTZ
    Blend: AUG-CC-PVTZ
    Number of shells: 146
    Number of basis functions: 414
    Number of Cartesian functions: 470
    Spherical Harmonics?: true
    Max angular momentum: 3

   => Loading Basis Set <=

    Name: (AUG-CC-PVTZ AUX)
    Role: JKFIT
    Keyword: DF_BASIS_SCF
    atoms 1    entry N          line   224 file /home1/07844/xy3866/miniconda3/envs/p4env/share/psi4/basis/aug-cc-pvtz-jkfit.gbs 
    atoms 2-4  entry C          line   162 file /home1/07844/xy3866/miniconda3/envs/p4env/share/psi4/basis/aug-cc-pvtz-jkfit.gbs 
    atoms 5-14 entry H          line    70 file /home1/07844/xy3866/miniconda3/envs/p4env/share/psi4/basis/aug-cc-pvtz-jkfit.gbs 

  ==> Integral Setup <==

  DFHelper Memory: AOs need 1.182 GiB; user supplied 22.352 GiB. Using in-core AOs.

  ==> MemDFJK: Density-Fitted J/K Matrices <==

    J tasked:                   Yes
    K tasked:                   Yes
    wK tasked:                   No
    OpenMP threads:              32
    Memory [MiB]:             22888
    Algorithm:                 Core
    Schwarz Cutoff:           1E-12
    Mask sparsity (%):       1.5718
    Fitting Condition:        1E-10

   => Auxiliary Basis Set <=

  Basis Set: (AUG-CC-PVTZ AUX)
    Blend: AUG-CC-PVTZ-JKFIT
    Number of shells: 260
    Number of basis functions: 876
    Number of Cartesian functions: 1074
    Spherical Harmonics?: true
    Max angular momentum: 4

  Minimum eigenvalue in the overlap matrix is 5.6769610026E-06.
  Reciprocal condition number of the overlap matrix is 2.9416234578E-07.
    Using symmetric orthogonalization.

  ==> Pre-Iterations <==

  SCF Guess: Superposition of Atomic Densities via on-the-fly atomic UHF (no occupation information).

   -------------------------
    Irrep   Nso     Nmo    
   -------------------------
     A        414     414 
   -------------------------
    Total     414     414
   -------------------------

  ==> Iterations <==

                           Total Energy        Delta E     RMS |[F,P]|

   @DF-RHF iter SAD:  -173.53233442820320   -1.73532e+02   0.00000e+00 
   @DF-RHF iter   1:  -173.54644627120493   -1.41118e-02   1.28788e-03 DIIS
   @DF-RHF iter   2:  -173.70335354662623   -1.56907e-01   4.92431e-04 DIIS
   @DF-RHF iter   3:  -173.72505307269469   -2.16995e-02   1.16012e-04 DIIS
   @DF-RHF iter   4:  -173.72729112462537   -2.23805e-03   2.36944e-05 DIIS
   @DF-RHF iter   5:  -173.72736630929271   -7.51847e-05   8.15055e-06 DIIS
   @DF-RHF iter   6:  -173.72737537649118   -9.06720e-06   1.65512e-06 DIIS
   @DF-RHF iter   7:  -173.72737591932935   -5.42838e-07   5.18648e-07 DIIS
   @DF-RHF iter   8:  -173.72737597192463   -5.25953e-08   1.19060e-07 DIIS
   @DF-RHF iter   9:  -173.72737597427988   -2.35525e-09   4.22851e-08 DIIS
   @DF-RHF iter  10:  -173.72737597447835   -1.98469e-10   8.18640e-09 DIIS
   @DF-RHF iter  11:  -173.72737597448980   -1.14539e-11   1.55561e-09 DIIS
   @DF-RHF iter  12:  -173.72737597448983   -2.84217e-14   3.61361e-10 DIIS
   @DF-RHF iter  13:  -173.72737597449049   -6.53699e-13   1.14143e-10 DIIS
   @DF-RHF iter  14:  -173.72737597449023    2.55795e-13   2.90788e-11 DIIS
  Energy and wave function converged.


  ==> Post-Iterations <==

    Orbital Energies [Eh]
    ---------------------

    Doubly Occupied:                                                      

       1A    -15.886602     2A    -11.483695     3A    -11.397603  
       4A    -11.397159     5A     -1.501642     6A     -1.240641  
       7A     -1.126124     8A     -1.018060     9A     -0.955773  
      10A     -0.948885    11A     -0.844731    12A     -0.792816  
      13A     -0.739479    14A     -0.722623    15A     -0.712627  
      16A     -0.686533    17A     -0.670092  

    Virtual:                                                              

      18A     -0.112689    19A     -0.081051    20A     -0.076032  
      21A     -0.069335    22A     -0.047908    23A     -0.045146  
      24A     -0.043030    25A     -0.041484    26A     -0.039304  
      27A     -0.023822    28A     -0.011093    29A     -0.002653  
      30A      0.000079    31A      0.002040    32A      0.010884  
      33A      0.016267    34A      0.023558    35A      0.024869  
      36A      0.027842    37A      0.030552    38A      0.041288  
      39A      0.043399    40A      0.050021    41A      0.055775  
      42A      0.060532    43A      0.077475    44A      0.090137  
      45A      0.101156    46A      0.105671    47A      0.111242  
      48A      0.112268    49A      0.130797    50A      0.143808  
      51A      0.148279    52A      0.153252    53A      0.164214  
      54A      0.175078    55A      0.182410    56A      0.190942  
      57A      0.191400    58A      0.205840    59A      0.209830  
      60A      0.216243    61A      0.221427    62A      0.224155  
      63A      0.224671    64A      0.244248    65A      0.247610  
      66A      0.250558    67A      0.255932    68A      0.263892  
      69A      0.266254    70A      0.269330    71A      0.283341  
      72A      0.286881    73A      0.291072    74A      0.299491  
      75A      0.300620    76A      0.305759    77A      0.308828  
      78A      0.311511    79A      0.313710    80A      0.314095  
      81A      0.325748    82A      0.337932    83A      0.348990  
      84A      0.353907    85A      0.357340    86A      0.361610  
      87A      0.369462    88A      0.373441    89A      0.374131  
      90A      0.402571    91A      0.412185    92A      0.429289  
      93A      0.451553    94A      0.452540    95A      0.457728  
      96A      0.460158    97A      0.468177    98A      0.475381  
      99A      0.486292   100A      0.490471   101A      0.505863  
     102A      0.509150   103A      0.528402   104A      0.536509  
     105A      0.561121   106A      0.571951   107A      0.591253  
     108A      0.630607   109A      0.632906   110A      0.634127  
     111A      0.655607   112A      0.663439   113A      0.671047  
     114A      0.680102   115A      0.685301   116A      0.691377  
     117A      0.698531   118A      0.704369   119A      0.717679  
     120A      0.727223   121A      0.736385   122A      0.757851  
     123A      0.758117   124A      0.764509   125A      0.772046  
     126A      0.776988   127A      0.778921   128A      0.784854  
     129A      0.802991   130A      0.806499   131A      0.819977  
     132A      0.831834   133A      0.839179   134A      0.844299  
     135A      0.858499   136A      0.863059   137A      0.864497  
     138A      0.871897   139A      0.879489   140A      0.896208  
     141A      0.909292   142A      0.919875   143A      0.933329  
     144A      0.941899   145A      0.957097   146A      0.967040  
     147A      0.985971   148A      0.989333   149A      1.008891  
     150A      1.013420   151A      1.020408   152A      1.026725  
     153A      1.035283   154A      1.042576   155A      1.055643  
     156A      1.061616   157A      1.068198   158A      1.081475  
     159A      1.093569   160A      1.103624   161A      1.127426  
     162A      1.130518   163A      1.136369   164A      1.149818  
     165A      1.170437   166A      1.176238   167A      1.182404  
     168A      1.209244   169A      1.213711   170A      1.228884  
     171A      1.234368   172A      1.247140   173A      1.273931  
     174A      1.277665   175A      1.296844   176A      1.306843  
     177A      1.307688   178A      1.324140   179A      1.332971  
     180A      1.337248   181A      1.347270   182A      1.370581  
     183A      1.381184   184A      1.384061   185A      1.414745  
     186A      1.432618   187A      1.445950   188A      1.453868  
     189A      1.467361   190A      1.494489   191A      1.504965  
     192A      1.509228   193A      1.515244   194A      1.529404  
     195A      1.538102   196A      1.557527   197A      1.562298  
     198A      1.575421   199A      1.578367   200A      1.593236  
     201A      1.614063   202A      1.623931   203A      1.641239  
     204A      1.646429   205A      1.674283   206A      1.674905  
     207A      1.685889   208A      1.700895   209A      1.712931  
     210A      1.735869   211A      1.743287   212A      1.747287  
     213A      1.774583   214A      1.777181   215A      1.785420  
     216A      1.791590   217A      1.805869   218A      1.819350  
     219A      1.838310   220A      1.846607   221A      1.865236  
     222A      1.877084   223A      1.882436   224A      1.926949  
     225A      1.930174   226A      1.946426   227A      1.948410  
     228A      1.985242   229A      2.001658   230A      2.028602  
     231A      2.044725   232A      2.066196   233A      2.080594  
     234A      2.091950   235A      2.099761   236A      2.129283  
     237A      2.140569   238A      2.153661   239A      2.166850  
     240A      2.183939   241A      2.202445   242A      2.250149  
     243A      2.256870   244A      2.266252   245A      2.285357  
     246A      2.307300   247A      2.339624   248A      2.363882  
     249A      2.369762   250A      2.421593   251A      2.428205  
     252A      2.450953   253A      2.487040   254A      2.527846  
     255A      2.529233   256A      2.553960   257A      2.565198  
     258A      2.742643   259A      2.771623   260A      2.882401  
     261A      3.035655   262A      3.136614   263A      3.224947  
     264A      3.244100   265A      3.258673   266A      3.298509  
     267A      3.310208   268A      3.334033   269A      3.385810  
     270A      3.415751   271A      3.445606   272A      3.458437  
     273A      3.478654   274A      3.492989   275A      3.505666  
     276A      3.508304   277A      3.521793   278A      3.554169  
     279A      3.557025   280A      3.576592   281A      3.601432  
     282A      3.606109   283A      3.633921   284A      3.655778  
     285A      3.668968   286A      3.697888   287A      3.711606  
     288A      3.741218   289A      3.761097   290A      3.767886  
     291A      3.778327   292A      3.795136   293A      3.814934  
     294A      3.833221   295A      3.845637   296A      3.856209  
     297A      3.861688   298A      3.900052   299A      3.914586  
     300A      3.934512   301A      3.949600   302A      3.971230  
     303A      3.979906   304A      3.986487   305A      4.023720  
     306A      4.025890   307A      4.043948   308A      4.049628  
     309A      4.077574   310A      4.089198   311A      4.095615  
     312A      4.099420   313A      4.150830   314A      4.158048  
     315A      4.193195   316A      4.227233   317A      4.231489  
     318A      4.259897   319A      4.286530   320A      4.313311  
     321A      4.321029   322A      4.357247   323A      4.365450  
     324A      4.376705   325A      4.417580   326A      4.427477  
     327A      4.447891   328A      4.468466   329A      4.489068  
     330A      4.496185   331A      4.532327   332A      4.546630  
     333A      4.548397   334A      4.582454   335A      4.592914  
     336A      4.616701   337A      4.656590   338A      4.667359  
     339A      4.681012   340A      4.684296   341A      4.704171  
     342A      4.712049   343A      4.715656   344A      4.730541  
     345A      4.771297   346A      4.815297   347A      4.837906  
     348A      4.854811   349A      4.869139   350A      4.879304  
     351A      4.904842   352A      4.920505   353A      4.959261  
     354A      4.972786   355A      4.999777   356A      5.026160  
     357A      5.042793   358A      5.069312   359A      5.084544  
     360A      5.095895   361A      5.121894   362A      5.140887  
     363A      5.161456   364A      5.180296   365A      5.218530  
     366A      5.233640   367A      5.247459   368A      5.259189  
     369A      5.271948   370A      5.284389   371A      5.320426  
     372A      5.363506   373A      5.404185   374A      5.441400  
     375A      5.477165   376A      5.511841   377A      5.536790  
     378A      5.575326   379A      5.609870   380A      5.625070  
     381A      5.631019   382A      5.676662   383A      5.697320  
     384A      5.720823   385A      5.803794   386A      5.855298  
     387A      5.899296   388A      5.934105   389A      5.962555  
     390A      5.994492   391A      6.022320   392A      6.055235  
     393A      6.080957   394A      6.105379   395A      6.141960  
     396A      6.160783   397A      6.175590   398A      6.204559  
     399A      6.232281   400A      6.471870   401A      6.579716  
     402A      6.643853   403A      6.644007   404A      6.715024  
     405A      6.718307   406A      6.853560   407A      6.929206  
     408A      6.936467   409A      7.609977   410A      7.613768  
     411A     17.510135   412A     17.885773   413A     18.144628  
     414A     19.693026  

    Final Occupation by Irrep:
              A 
    DOCC [    17 ]

  @DF-RHF Final Energy:  -173.72737597449023

   => Energetics <=

    Nuclear Repulsion Energy =            143.0669340161209959
    One-Electron Energy =                -509.3384548187124210
    Two-Electron Energy =                 192.5441448281012242
    Total Energy =                       -173.7273759744902293

Computation Completed

*** tstop() called on c445-114.stampede2.tacc.utexas.edu at Sat Mar 20 07:15:22 2021
Module time:
	user time   =     188.34 seconds =       3.14 minutes
	system time =      15.48 seconds =       0.26 minutes
	total time  =         14 seconds =       0.23 minutes
Total time:
	user time   =     188.34 seconds =       3.14 minutes
	system time =      15.48 seconds =       0.26 minutes
	total time  =         14 seconds =       0.23 minutes
   => Loading Basis Set <=

    Name: (AUG-CC-PVTZ AUX)
    Role: RIFIT
    Keyword: DF_BASIS_MP2
    atoms 1    entry N          line   206 file /home1/07844/xy3866/miniconda3/envs/p4env/share/psi4/basis/aug-cc-pvtz-ri.gbs 
    atoms 2-4  entry C          line   148 file /home1/07844/xy3866/miniconda3/envs/p4env/share/psi4/basis/aug-cc-pvtz-ri.gbs 
    atoms 5-14 entry H          line    30 file /home1/07844/xy3866/miniconda3/envs/p4env/share/psi4/basis/aug-cc-pvtz-ri.gbs 


*** tstart() called on c445-114.stampede2.tacc.utexas.edu
*** at Sat Mar 20 07:15:22 2021


  //>>>>>>>>>>>>>>>>>>>>>>>>>>>>>>>>>>>//
  //               DFMP2               //
  //<<<<<<<<<<<<<<<<<<<<<<<<<<<<<<<<<<<//

	 --------------------------------------------------------
	                          DF-MP2                         
	      2nd-Order Density-Fitted Moller-Plesset Theory     
	              RMP2 Wavefunction,  32 Threads             
	                                                         
	        Rob Parrish, Justin Turney, Andy Simmonett,      
	           Ed Hohenstein, and C. David Sherrill          
	 --------------------------------------------------------

   => Auxiliary Basis Set <=

  Basis Set: (AUG-CC-PVTZ AUX)
    Blend: AUG-CC-PVTZ-RI
    Number of shells: 252
    Number of basis functions: 884
    Number of Cartesian functions: 1094
    Spherical Harmonics?: true
    Max angular momentum: 4

	 --------------------------------------------------------
	                 NBF =   414, NAUX =   884
	 --------------------------------------------------------
	   CLASS    FOCC     OCC    AOCC    AVIR     VIR    FVIR
	   PAIRS       0      17      17     397     397       0
	 --------------------------------------------------------

  DFHelper Memory: AOs need 1.193 GiB; user supplied 22.352 GiB. Using in-core AOs.


         ------------------------------------------------------------
                                     CPHF                           
                                  Rob Parrish                       
         ------------------------------------------------------------

  ==> Geometry <==

    Molecular point group: c1
    Full point group: C1

    Geometry (in Angstrom), charge = 1, multiplicity = 1:

       Center              X                  Y                   Z               Mass       
    ------------   -----------------  -----------------  -----------------  -----------------
         N            0.008390160669     1.373887053795     0.092993310438    14.003074004430
         C            0.008388160669    -0.078268946205    -0.386269689562    12.000000000000
         C           -1.308129739331    -0.758428546205     0.124404210438    12.000000000000
         C            1.282906160669    -0.736734946205     0.108113310438    12.000000000000
         H            0.008388160669    -0.004536946205    -1.477346689562     1.007825032230
         H           -0.822693839331     1.883758053795    -0.235808689562     1.007825032230
         H            0.839475160669     1.883756053795    -0.235809689562     1.007825032230
         H            0.008390160669     1.415152053795     1.121425310438     1.007825032230
         H           -1.301399839331    -1.762167946205    -0.265744689562     1.007825032230
         H           -1.291062839331    -0.780364946205     1.201428310438     1.007825032230
         H           -2.162514839331    -0.223863946205    -0.252604689562     1.007825032230
         H            1.318171160669    -1.762171946205    -0.265743689562     1.007825032230
         H            1.307837160669    -0.780367946205     1.201428310438     1.007825032230
         H            2.179290160669    -0.223869946205    -0.252604689562     1.007825032230

  Nuclear repulsion =  143.066934016120996
  Reference energy  = -173.727375974490229

  ==> Basis Set <==

  Basis Set: AUG-CC-PVTZ
    Blend: AUG-CC-PVTZ
    Number of shells: 146
    Number of basis functions: 414
    Number of Cartesian functions: 470
    Spherical Harmonics?: true
    Max angular momentum: 3

  ==> CGRSolver (by Rob Parrish) <==

   Number of roots    =         1
   Preconditioning    =    JACOBI
   Convergence cutoff =     1E-06
   Maximum iterations =       100

  ==> CPHFRHamiltonian (by Rob Parrish) <== 

  ==> MemDFJK: Density-Fitted J/K Matrices <==

    J tasked:                   Yes
    K tasked:                   Yes
    wK tasked:                   No
    OpenMP threads:              32
    Memory [MiB]:             22888
    Algorithm:                 Core
    Schwarz Cutoff:           1E-12
    Mask sparsity (%):       0.6033
    Fitting Condition:        1E-10

   => Auxiliary Basis Set <=

  Basis Set: (AUG-CC-PVTZ AUX)
    Blend: AUG-CC-PVTZ-JKFIT
    Number of shells: 260
    Number of basis functions: 876
    Number of Cartesian functions: 1074
    Spherical Harmonics?: true
    Max angular momentum: 4

  ==> CPHF Iterations <==

  => Iterations <=

             Iter  Converged  Remaining    Residual
  CGR           1          0          1   7.937E-02
  CGR           2          0          1   1.455E-02
  CGR           3          0          1   4.693E-03
  CGR           4          0          1   1.320E-03
  CGR           5          0          1   3.450E-04
  CGR           6          0          1   1.022E-04
  CGR           7          0          1   2.215E-05
  CGR           8          0          1   4.964E-06
  CGR           9          1          0   9.109E-07

    CGRSolver converged.

	-----------------------------------------------------------
	 ==================> DF-MP2 Energies <==================== 
	-----------------------------------------------------------
	 Reference Energy          =    -173.7273759744902293 [Eh]
	 Singles Energy            =      -0.0000000000000000 [Eh]
	 Same-Spin Energy          =      -0.1754367053930702 [Eh]
	 Opposite-Spin Energy      =      -0.6568158568536830 [Eh]
	 Correlation Energy        =      -0.8322525622467533 [Eh]
	 Total Energy              =    -174.5596285367369944 [Eh]
	-----------------------------------------------------------
	 ================> DF-SCS-MP2 Energies <================== 
	-----------------------------------------------------------
	 SCS Same-Spin Scale       =       0.3333333333333333 [-]
	 SCS Opposite-Spin Scale   =       1.2000000000000000 [-]
	 SCS Same-Spin Energy      =      -0.0584789017976901 [Eh]
	 SCS Opposite-Spin Energy  =      -0.7881790282244197 [Eh]
	 SCS Correlation Energy    =      -0.8466579300221098 [Eh]
	 SCS Total Energy          =    -174.5740339045123335 [Eh]
	-----------------------------------------------------------



Properties will be evaluated at  -0.000000,   0.000000,   0.000000 [a0]

Properties computed using the MP2 density matrix

  Nuclear Dipole Moment: [e a0]
     X:     0.0786      Y:    -0.3365      Z:     0.5047

  Electronic Dipole Moment: [e a0]
     X:    -0.0621      Y:     1.9507      Z:    -0.4300

  Dipole Moment: [e a0]
     X:     0.0165      Y:     1.6142      Z:     0.0747     Total:     1.6160

  Dipole Moment: [D]
     X:     0.0421      Y:     4.1030      Z:     0.1898     Total:     4.1076


*** tstop() called on c445-114.stampede2.tacc.utexas.edu at Sat Mar 20 07:16:15 2021
Module time:
	user time   =     424.05 seconds =       7.07 minutes
	system time =      15.46 seconds =       0.26 minutes
	total time  =         53 seconds =       0.88 minutes
Total time:
	user time   =     613.66 seconds =      10.23 minutes
	system time =      31.02 seconds =       0.52 minutes
	total time  =         67 seconds =       1.12 minutes

    Psi4 stopped on: Saturday, 20 March 2021 07:16AM
    Psi4 wall time for execution: 0:01:07.55

*** Psi4 exiting successfully. Buy a developer a beer!
