V007_13-Diaminopropane Gaussian SP Calculation on node58.bme.utexas.edu 
Freq      RMP2-FC                                                     6-31G(d)            
Number of atoms                            I               15
Info1-9                                    I   N=           9
          26          25        1002           0           0         100
           6           2           1
Charge                                     I                0
Multiplicity                               I                1
Number of electrons                        I               42
Number of alpha electrons                  I               21
Number of beta electrons                   I               21
Number of basis functions                  I               95
Number of independent functions            I               95
Number of point charges in /Mol/           I                0
Number of translation vectors              I                0
Atomic numbers                             I   N=          15
           7           7           6           6           6           1
           1           1           1           1           1           1
           1           1           1
Nuclear charges                            R   N=          15
  7.00000000E+00  7.00000000E+00  6.00000000E+00  6.00000000E+00  6.00000000E+00
  1.00000000E+00  1.00000000E+00  1.00000000E+00  1.00000000E+00  1.00000000E+00
  1.00000000E+00  1.00000000E+00  1.00000000E+00  1.00000000E+00  1.00000000E+00
Current cartesian coordinates              R   N=          45
  4.62464861E+00 -7.08033978E-01 -1.95918898E-01 -4.79685119E+00 -4.33947232E-01
 -2.23083349E-02 -6.35067187E-03 -6.32943416E-01 -5.85111111E-02  2.40430996E+00
  9.35690773E-01  4.33595635E-02 -2.40842036E+00  9.68278765E-01  6.91179918E-02
  9.30340530E-03 -1.74855985E+00 -1.80405000E+00 -1.28701674E-02 -1.98731045E+00
  1.51731465E+00  2.39393143E+00  2.09651287E+00  1.77595188E+00  2.42635804E+00
  2.25303304E+00 -1.55449169E+00 -2.42159706E+00  2.32204832E+00 -1.49896115E+00
 -2.41173598E+00  2.09065406E+00  1.81045552E+00  4.74437479E+00 -1.83326740E+00
  1.36322937E+00  6.22627755E+00  3.61833845E-01 -1.97440057E-01 -4.83944541E+00
 -1.70185758E+00  1.42792352E+00 -4.84641216E+00 -1.48537512E+00 -1.63614008E+00
Force Field                                I                0
Int Atom Types                             I   N=          15
           0           0           0           0           0           0
           0           0           0           0           0           0
           0           0           0
MM charges                                 R   N=          15
  0.00000000E+00  0.00000000E+00  0.00000000E+00  0.00000000E+00  0.00000000E+00
  0.00000000E+00  0.00000000E+00  0.00000000E+00  0.00000000E+00  0.00000000E+00
  0.00000000E+00  0.00000000E+00  0.00000000E+00  0.00000000E+00  0.00000000E+00
Integer atomic weights                     I   N=          15
          14          14          12          12          12           1
           1           1           1           1           1           1
           1           1           1
Real atomic weights                        R   N=          15
  1.40030740E+01  1.40030740E+01  1.20000000E+01  1.20000000E+01  1.20000000E+01
  1.00782504E+00  1.00782504E+00  1.00782504E+00  1.00782504E+00  1.00782504E+00
  1.00782504E+00  1.00782504E+00  1.00782504E+00  1.00782504E+00  1.00782504E+00
Atom fragment info                         I   N=          15
           0           0           0           0           0           0
           0           0           0           0           0           0
           0           0           0
Atom residue num                           I   N=          15
           0           0           0           0           0           0
           0           0           0           0           0           0
           0           0           0
Nuclear spins                              I   N=          15
           2           2           0           0           0           1
           1           1           1           1           1           1
           1           1           1
Nuclear ZEff                               R   N=          15
 -4.55000000E+00 -4.55000000E+00 -3.60000000E+00 -3.60000000E+00 -3.60000000E+00
 -1.00000000E+00 -1.00000000E+00 -1.00000000E+00 -1.00000000E+00 -1.00000000E+00
 -1.00000000E+00 -1.00000000E+00 -1.00000000E+00 -1.00000000E+00 -1.00000000E+00
Nuclear QMom                               R   N=          15
  2.04400000E+00  2.04400000E+00  0.00000000E+00  0.00000000E+00  0.00000000E+00
  0.00000000E+00  0.00000000E+00  0.00000000E+00  0.00000000E+00  0.00000000E+00
  0.00000000E+00  0.00000000E+00  0.00000000E+00  0.00000000E+00  0.00000000E+00
Nuclear GFac                               R   N=          15
  4.03761000E-01  4.03761000E-01  0.00000000E+00  0.00000000E+00  0.00000000E+00
  2.79284600E+00  2.79284600E+00  2.79284600E+00  2.79284600E+00  2.79284600E+00
  2.79284600E+00  2.79284600E+00  2.79284600E+00  2.79284600E+00  2.79284600E+00
MicOpt                                     I   N=          15
          -1          -1          -1          -1          -1          -1
          -1          -1          -1          -1          -1          -1
          -1          -1          -1
Number of contracted shells                I               40
Number of primitive shells                 I               95
Pure/Cartesian d shells                    I                1
Pure/Cartesian f shells                    I                0
Highest angular momentum                   I                2
Largest degree of contraction              I                6
Shell types                                I   N=          40
           0          -1          -1           2           0          -1
          -1           2           0          -1          -1           2
           0          -1          -1           2           0          -1
          -1           2           0           0           0           0
           0           0           0           0           0           0
           0           0           0           0           0           0
           0           0           0           0
Number of primitives per shell             I   N=          40
           6           3           1           1           6           3
           1           1           6           3           1           1
           6           3           1           1           6           3
           1           1           3           1           3           1
           3           1           3           1           3           1
           3           1           3           1           3           1
           3           1           3           1
Shell to atom map                          I   N=          40
           1           1           1           1           2           2
           2           2           3           3           3           3
           4           4           4           4           5           5
           5           5           6           6           7           7
           8           8           9           9          10          10
          11          11          12          12          13          13
          14          14          15          15
Primitive exponents                        R   N=          95
  4.17351146E+03  6.27457911E+02  1.42902093E+02  4.02343293E+01  1.28202129E+01
  4.39043701E+00  1.16263619E+01  2.71627981E+00  7.72218397E-01  2.12031498E-01
  8.00000000E-01  4.17351146E+03  6.27457911E+02  1.42902093E+02  4.02343293E+01
  1.28202129E+01  4.39043701E+00  1.16263619E+01  2.71627981E+00  7.72218397E-01
  2.12031498E-01  8.00000000E-01  3.04752488E+03  4.57369518E+02  1.03948685E+02
  2.92101553E+01  9.28666296E+00  3.16392696E+00  7.86827235E+00  1.88128854E+00
  5.44249258E-01  1.68714478E-01  8.00000000E-01  3.04752488E+03  4.57369518E+02
  1.03948685E+02  2.92101553E+01  9.28666296E+00  3.16392696E+00  7.86827235E+00
  1.88128854E+00  5.44249258E-01  1.68714478E-01  8.00000000E-01  3.04752488E+03
  4.57369518E+02  1.03948685E+02  2.92101553E+01  9.28666296E+00  3.16392696E+00
  7.86827235E+00  1.88128854E+00  5.44249258E-01  1.68714478E-01  8.00000000E-01
  1.87311370E+01  2.82539436E+00  6.40121692E-01  1.61277759E-01  1.87311370E+01
  2.82539436E+00  6.40121692E-01  1.61277759E-01  1.87311370E+01  2.82539436E+00
  6.40121692E-01  1.61277759E-01  1.87311370E+01  2.82539436E+00  6.40121692E-01
  1.61277759E-01  1.87311370E+01  2.82539436E+00  6.40121692E-01  1.61277759E-01
  1.87311370E+01  2.82539436E+00  6.40121692E-01  1.61277759E-01  1.87311370E+01
  2.82539436E+00  6.40121692E-01  1.61277759E-01  1.87311370E+01  2.82539436E+00
  6.40121692E-01  1.61277759E-01  1.87311370E+01  2.82539436E+00  6.40121692E-01
  1.61277759E-01  1.87311370E+01  2.82539436E+00  6.40121692E-01  1.61277759E-01
Contraction coefficients                   R   N=          95
  1.83477216E-03  1.39946270E-02  6.85865518E-02  2.32240873E-01  4.69069948E-01
  3.60455199E-01 -1.14961182E-01 -1.69117479E-01  1.14585195E+00  1.00000000E+00
  1.00000000E+00  1.83477216E-03  1.39946270E-02  6.85865518E-02  2.32240873E-01
  4.69069948E-01  3.60455199E-01 -1.14961182E-01 -1.69117479E-01  1.14585195E+00
  1.00000000E+00  1.00000000E+00  1.83473713E-03  1.40373228E-02  6.88426223E-02
  2.32184443E-01  4.67941348E-01  3.62311985E-01 -1.19332420E-01 -1.60854152E-01
  1.14345644E+00  1.00000000E+00  1.00000000E+00  1.83473713E-03  1.40373228E-02
  6.88426223E-02  2.32184443E-01  4.67941348E-01  3.62311985E-01 -1.19332420E-01
 -1.60854152E-01  1.14345644E+00  1.00000000E+00  1.00000000E+00  1.83473713E-03
  1.40373228E-02  6.88426223E-02  2.32184443E-01  4.67941348E-01  3.62311985E-01
 -1.19332420E-01 -1.60854152E-01  1.14345644E+00  1.00000000E+00  1.00000000E+00
  3.34946043E-02  2.34726953E-01  8.13757326E-01  1.00000000E+00  3.34946043E-02
  2.34726953E-01  8.13757326E-01  1.00000000E+00  3.34946043E-02  2.34726953E-01
  8.13757326E-01  1.00000000E+00  3.34946043E-02  2.34726953E-01  8.13757326E-01
  1.00000000E+00  3.34946043E-02  2.34726953E-01  8.13757326E-01  1.00000000E+00
  3.34946043E-02  2.34726953E-01  8.13757326E-01  1.00000000E+00  3.34946043E-02
  2.34726953E-01  8.13757326E-01  1.00000000E+00  3.34946043E-02  2.34726953E-01
  8.13757326E-01  1.00000000E+00  3.34946043E-02  2.34726953E-01  8.13757326E-01
  1.00000000E+00  3.34946043E-02  2.34726953E-01  8.13757326E-01  1.00000000E+00
P(S=P) Contraction coefficients            R   N=          95
  0.00000000E+00  0.00000000E+00  0.00000000E+00  0.00000000E+00  0.00000000E+00
  0.00000000E+00  6.75797439E-02  3.23907296E-01  7.40895140E-01  1.00000000E+00
  0.00000000E+00  0.00000000E+00  0.00000000E+00  0.00000000E+00  0.00000000E+00
  0.00000000E+00  0.00000000E+00  6.75797439E-02  3.23907296E-01  7.40895140E-01
  1.00000000E+00  0.00000000E+00  0.00000000E+00  0.00000000E+00  0.00000000E+00
  0.00000000E+00  0.00000000E+00  0.00000000E+00  6.89990666E-02  3.16423961E-01
  7.44308291E-01  1.00000000E+00  0.00000000E+00  0.00000000E+00  0.00000000E+00
  0.00000000E+00  0.00000000E+00  0.00000000E+00  0.00000000E+00  6.89990666E-02
  3.16423961E-01  7.44308291E-01  1.00000000E+00  0.00000000E+00  0.00000000E+00
  0.00000000E+00  0.00000000E+00  0.00000000E+00  0.00000000E+00  0.00000000E+00
  6.89990666E-02  3.16423961E-01  7.44308291E-01  1.00000000E+00  0.00000000E+00
  0.00000000E+00  0.00000000E+00  0.00000000E+00  0.00000000E+00  0.00000000E+00
  0.00000000E+00  0.00000000E+00  0.00000000E+00  0.00000000E+00  0.00000000E+00
  0.00000000E+00  0.00000000E+00  0.00000000E+00  0.00000000E+00  0.00000000E+00
  0.00000000E+00  0.00000000E+00  0.00000000E+00  0.00000000E+00  0.00000000E+00
  0.00000000E+00  0.00000000E+00  0.00000000E+00  0.00000000E+00  0.00000000E+00
  0.00000000E+00  0.00000000E+00  0.00000000E+00  0.00000000E+00  0.00000000E+00
  0.00000000E+00  0.00000000E+00  0.00000000E+00  0.00000000E+00  0.00000000E+00
  0.00000000E+00  0.00000000E+00  0.00000000E+00  0.00000000E+00  0.00000000E+00
Coordinates of each shell                  R   N=         120
  4.62464861E+00 -7.08033978E-01 -1.95918898E-01  4.62464861E+00 -7.08033978E-01
 -1.95918898E-01  4.62464861E+00 -7.08033978E-01 -1.95918898E-01  4.62464861E+00
 -7.08033978E-01 -1.95918898E-01 -4.79685119E+00 -4.33947232E-01 -2.23083349E-02
 -4.79685119E+00 -4.33947232E-01 -2.23083349E-02 -4.79685119E+00 -4.33947232E-01
 -2.23083349E-02 -4.79685119E+00 -4.33947232E-01 -2.23083349E-02 -6.35067187E-03
 -6.32943416E-01 -5.85111111E-02 -6.35067187E-03 -6.32943416E-01 -5.85111111E-02
 -6.35067187E-03 -6.32943416E-01 -5.85111111E-02 -6.35067187E-03 -6.32943416E-01
 -5.85111111E-02  2.40430996E+00  9.35690773E-01  4.33595635E-02  2.40430996E+00
  9.35690773E-01  4.33595635E-02  2.40430996E+00  9.35690773E-01  4.33595635E-02
  2.40430996E+00  9.35690773E-01  4.33595635E-02 -2.40842036E+00  9.68278765E-01
  6.91179918E-02 -2.40842036E+00  9.68278765E-01  6.91179918E-02 -2.40842036E+00
  9.68278765E-01  6.91179918E-02 -2.40842036E+00  9.68278765E-01  6.91179918E-02
  9.30340530E-03 -1.74855985E+00 -1.80405000E+00  9.30340530E-03 -1.74855985E+00
 -1.80405000E+00 -1.28701674E-02 -1.98731045E+00  1.51731465E+00 -1.28701674E-02
 -1.98731045E+00  1.51731465E+00  2.39393143E+00  2.09651287E+00  1.77595188E+00
  2.39393143E+00  2.09651287E+00  1.77595188E+00  2.42635804E+00  2.25303304E+00
 -1.55449169E+00  2.42635804E+00  2.25303304E+00 -1.55449169E+00 -2.42159706E+00
  2.32204832E+00 -1.49896115E+00 -2.42159706E+00  2.32204832E+00 -1.49896115E+00
 -2.41173598E+00  2.09065406E+00  1.81045552E+00 -2.41173598E+00  2.09065406E+00
  1.81045552E+00  4.74437479E+00 -1.83326740E+00  1.36322937E+00  4.74437479E+00
 -1.83326740E+00  1.36322937E+00  6.22627755E+00  3.61833845E-01 -1.97440057E-01
  6.22627755E+00  3.61833845E-01 -1.97440057E-01 -4.83944541E+00 -1.70185758E+00
  1.42792352E+00 -4.83944541E+00 -1.70185758E+00  1.42792352E+00 -4.84641216E+00
 -1.48537512E+00 -1.63614008E+00 -4.84641216E+00 -1.48537512E+00 -1.63614008E+00
Constraint Structure                       R   N=          45
  4.62464861E+00 -7.08033978E-01 -1.95918898E-01 -4.79685119E+00 -4.33947232E-01
 -2.23083349E-02 -6.35067187E-03 -6.32943416E-01 -5.85111111E-02  2.40430996E+00
  9.35690773E-01  4.33595635E-02 -2.40842036E+00  9.68278765E-01  6.91179918E-02
  9.30340530E-03 -1.74855985E+00 -1.80405000E+00 -1.28701674E-02 -1.98731045E+00
  1.51731465E+00  2.39393143E+00  2.09651287E+00  1.77595188E+00  2.42635804E+00
  2.25303304E+00 -1.55449169E+00 -2.42159706E+00  2.32204832E+00 -1.49896115E+00
 -2.41173598E+00  2.09065406E+00  1.81045552E+00  4.74437479E+00 -1.83326740E+00
  1.36322937E+00  6.22627755E+00  3.61833845E-01 -1.97440057E-01 -4.83944541E+00
 -1.70185758E+00  1.42792352E+00 -4.84641216E+00 -1.48537512E+00 -1.63614008E+00
Num ILSW                                   I              100
ILSW                                       I   N=         100
           0           1           0           0           2           0
           0           0           0           0           0          -1
           0           0           0           0           0           0
           0           0           0           0           1           0
           1           0           0           0           0           0
           0           0      100000           0          -1           0
           0           0           0           0           0           0
           0           0           0           1           1           0
           0           0           1           0           0           0
           0           0           4          40           0           0
           0           0           0           0           0           0
           0           0           0           0           0           0
           0           0           0           0           0           0
           0           0           0           0           0           0
           0           0           0           0           0           0
           0           0           0           0           0           0
           0           0           0           0
Num RLSW                                   I               40
RLSW                                       R   N=          40
  1.00000000E+00  1.00000000E+00  1.00000000E+00  1.00000000E+00  1.00000000E+00
  0.00000000E+00  0.00000000E+00  1.00000000E+00  0.00000000E+00  0.00000000E+00
  0.00000000E+00  0.00000000E+00  1.00000000E+00  0.00000000E+00  0.00000000E+00
  0.00000000E+00  0.00000000E+00  1.00000000E+00  0.00000000E+00  0.00000000E+00
  0.00000000E+00  0.00000000E+00  1.00000000E+00  0.00000000E+00  0.00000000E+00
  0.00000000E+00  0.00000000E+00  1.00000000E+00  0.00000000E+00  0.00000000E+00
  0.00000000E+00  0.00000000E+00  0.00000000E+00  0.00000000E+00  0.00000000E+00
  0.00000000E+00  0.00000000E+00  0.00000000E+00  1.00000000E+00  1.00000000E+00
MxBond                                     I                4
NBond                                      I   N=          15
           3           3           4           4           4           1
           1           1           1           1           1           1
           1           1           1
IBond                                      I   N=          60
           4          12          13           0           5          14
          15           0           4           5           6           7
           1           3           8           9           2           3
          10          11           3           0           0           0
           3           0           0           0           4           0
           0           0           4           0           0           0
           5           0           0           0           5           0
           0           0           1           0           0           0
           1           0           0           0           2           0
           0           0           2           0           0           0
RBond                                      R   N=          60
  1.00000000E+00  1.00000000E+00  1.00000000E+00  0.00000000E+00  1.00000000E+00
  1.00000000E+00  1.00000000E+00  0.00000000E+00  1.00000000E+00  1.00000000E+00
  1.00000000E+00  1.00000000E+00  1.00000000E+00  1.00000000E+00  1.00000000E+00
  1.00000000E+00  1.00000000E+00  1.00000000E+00  1.00000000E+00  1.00000000E+00
  1.00000000E+00  0.00000000E+00  0.00000000E+00  0.00000000E+00  1.00000000E+00
  0.00000000E+00  0.00000000E+00  0.00000000E+00  1.00000000E+00  0.00000000E+00
  0.00000000E+00  0.00000000E+00  1.00000000E+00  0.00000000E+00  0.00000000E+00
  0.00000000E+00  1.00000000E+00  0.00000000E+00  0.00000000E+00  0.00000000E+00
  1.00000000E+00  0.00000000E+00  0.00000000E+00  0.00000000E+00  1.00000000E+00
  0.00000000E+00  0.00000000E+00  0.00000000E+00  1.00000000E+00  0.00000000E+00
  0.00000000E+00  0.00000000E+00  1.00000000E+00  0.00000000E+00  0.00000000E+00
  0.00000000E+00  1.00000000E+00  0.00000000E+00  0.00000000E+00  0.00000000E+00
Virial Ratio                               R      2.001953851783978E+00
SCF Energy                                 R     -2.282991245454540E+02
MP2 Energy                                 R     -2.290209983398214E+02
Total Energy                               R     -2.290209983398214E+02
Post-SCF wavefunction norm                 R      1.567915871151125E+00
RMS Force                                  R      1.449731635791627E-06
RMS Density                                R      4.529836341296890E-10
External E-field                           R   N=          35
  0.00000000E+00  0.00000000E+00  0.00000000E+00  0.00000000E+00  0.00000000E+00
  0.00000000E+00  0.00000000E+00  0.00000000E+00  0.00000000E+00  0.00000000E+00
  0.00000000E+00  0.00000000E+00  0.00000000E+00  0.00000000E+00  0.00000000E+00
  0.00000000E+00  0.00000000E+00  0.00000000E+00  0.00000000E+00  0.00000000E+00
  0.00000000E+00  0.00000000E+00  0.00000000E+00  0.00000000E+00  0.00000000E+00
  0.00000000E+00  0.00000000E+00  0.00000000E+00  0.00000000E+00  0.00000000E+00
  0.00000000E+00  0.00000000E+00  0.00000000E+00  0.00000000E+00  0.00000000E+00
IOpCl                                      I                0
IROHF                                      I                0
Alpha Orbital Energies                     R   N=          95
 -1.55439165E+01 -1.55402508E+01 -1.12497536E+01 -1.12456243E+01 -1.12169969E+01
 -1.18130961E+00 -1.16775491E+00 -1.01248531E+00 -8.71716639E-01 -8.03048648E-01
 -6.77308653E-01 -6.53061800E-01 -6.26948780E-01 -5.94025658E-01 -5.59178352E-01
 -5.34276309E-01 -5.21125079E-01 -4.87311193E-01 -4.72392189E-01 -3.94688316E-01
 -3.80249191E-01  2.19910287E-01  2.26814688E-01  2.59839652E-01  2.67006427E-01
  2.89422873E-01  3.19073608E-01  3.36726932E-01  3.41796163E-01  3.48992214E-01
  3.59250842E-01  3.91447010E-01  4.21947681E-01  4.51597250E-01  5.16746978E-01
  7.25813628E-01  7.63493937E-01  7.76088703E-01  7.89340584E-01  8.27482461E-01
  8.71089628E-01  9.37887140E-01  9.46843951E-01  9.58790019E-01  1.00254927E+00
  1.01137679E+00  1.05706140E+00  1.09169780E+00  1.11358708E+00  1.12335059E+00
  1.14634323E+00  1.18493101E+00  1.20137748E+00  1.20453017E+00  1.20853610E+00
  1.21892586E+00  1.22878474E+00  1.24575458E+00  1.26006359E+00  1.33108977E+00
  1.36050501E+00  1.57572608E+00  1.66185553E+00  1.68933808E+00  1.71919870E+00
  1.75244364E+00  1.84919651E+00  1.93892280E+00  2.06077129E+00  2.07733846E+00
  2.19204209E+00  2.23218947E+00  2.26340152E+00  2.28980981E+00  2.32587627E+00
  2.38862774E+00  2.40038029E+00  2.44665234E+00  2.49299646E+00  2.56428452E+00
  2.59670132E+00  2.71500395E+00  2.73172227E+00  2.77812638E+00  2.83285167E+00
  2.84057015E+00  2.93529876E+00  3.01308204E+00  3.13810560E+00  3.16392939E+00
  4.19248530E+00  4.21863177E+00  4.63225233E+00  4.76599326E+00  4.93494427E+00
Alpha MO coefficients                      R   N=        9025
  9.95047741E-01  2.48449675E-02  9.34636856E-05  8.31181280E-04  1.26490710E-03
 -2.75419632E-03  2.51382078E-04 -8.32333098E-04 -9.64587387E-04 -3.39586146E-03
 -3.33210114E-03 -3.20505497E-03  5.88190703E-05  5.05336468E-05  9.79915614E-05
 -4.09544079E-05 -6.99879975E-06  3.53905644E-06 -6.45405278E-06  1.62742910E-06
  9.73113327E-05  3.45368559E-05  8.06634314E-05 -2.06709821E-05  1.02541968E-06
  4.58142876E-06 -4.66496498E-06  1.02585691E-05 -2.87478174E-06 -2.43116542E-07
 -7.71432751E-07  2.46230144E-05 -3.59028795E-05 -5.79897015E-07  1.81762640E-05
 -2.91997651E-04 -1.54876246E-04 -1.49872429E-04 -1.94536667E-04 -4.80960909E-05
 -3.90721858E-06 -2.39657993E-05 -5.43849102E-06 -7.11234820E-06  2.73456085E-07
 -2.53929699E-05  1.48244900E-04  1.82334504E-04 -1.37970669E-04 -3.40899863E-05
  1.87595106E-03  5.86507626E-04 -4.14283739E-04  2.76324942E-04 -1.39260010E-04
 -1.30150557E-04 -1.00151659E-04  4.82699426E-05  2.10941010E-05  2.01031123E-06
 -7.77489481E-06 -2.81873956E-05 -1.79100826E-05 -3.75138388E-06 -6.67063760E-06
  9.35290170E-05  2.56972671E-04  4.02083485E-05  9.48544069E-05 -7.29747734E-06
 -1.72694969E-05 -8.54826567E-06 -1.67557077E-05  3.74505806E-06 -3.30007547E-06
 -3.94183668E-06 -1.40268506E-04  3.65697299E-05 -4.25400515E-05 -1.45838639E-04
 -2.23909419E-04 -5.47093784E-05 -7.83617541E-05 -1.50115421E-05  5.04004893E-05
 -2.48995659E-05 -2.91000154E-05  2.99417400E-04  5.95798383E-04  3.05011422E-04
  5.93680172E-04  5.20018930E-06  3.04163038E-05  1.74153215E-06  1.19030115E-05
  4.32784276E-05  1.50257306E-05  6.36310145E-06 -7.93572818E-07  1.74261926E-06
 -1.22023158E-04  4.71901515E-05  4.14710777E-06 -1.13303178E-05 -3.39315065E-06
  1.58467638E-05  1.50832515E-06  1.14035425E-06  2.83407049E-08  4.63576051E-06
  9.95050726E-01  2.48503932E-02  1.20629999E-03 -9.43861281E-04 -6.77982295E-05
 -2.65487772E-03 -1.18733401E-03  5.50943614E-04  4.13319004E-05 -3.29452357E-03
 -3.25229590E-03 -3.35378035E-03 -1.49849540E-04 -1.06981128E-05  9.07227950E-06
 -7.40752255E-06  1.98708488E-05  1.11478739E-04  2.95857763E-05  1.49861391E-06
 -5.53486681E-04 -2.86744455E-04 -5.16266292E-04 -3.03313482E-05 -8.47058793E-05
 -4.02673791E-05 -3.11219890E-05 -1.59395976E-05 -7.79506624E-07 -1.25982085E-06
 -2.20644297E-05 -1.06355380E-04 -6.03238346E-06 -3.67398820E-06  1.05390314E-06
  7.88849557E-04 -3.31058388E-04 -1.94822099E-04 -2.34562444E-05  5.45682490E-06
 -2.36214298E-05 -3.66941781E-05  2.59274395E-05  1.61166100E-06  1.04280111E-06
 -2.13678346E-05  1.71000832E-04 -2.22320717E-04 -1.26178210E-04 -8.25471026E-06
  1.70277100E-03 -2.40786796E-04 -4.77592775E-04 -3.38821147E-05 -1.58506981E-04
 -1.00892071E-04 -1.07852967E-04 -5.28190381E-05 -4.02835251E-06  7.98515780E-07
 -1.02012155E-05 -1.71523702E-04 -1.33566734E-05 -1.75762078E-04 -3.38307615E-05
  6.92939522E-06 -3.48830248E-05 -5.08048072E-06 -7.60566560E-05 -1.18860620E-04
 -7.57035775E-05 -1.19453166E-04  5.21351344E-06  1.76839852E-05  7.15297178E-07
  2.95187203E-05  3.14766759E-04  5.93114250E-04  3.15694843E-04  5.90229423E-04
 -2.16405269E-04  4.65252022E-05 -1.57889263E-05 -1.36886139E-05  2.89676894E-05
  3.00542973E-03 -9.44847108E-04  6.72070800E-04 -2.79898974E-05 -4.42879384E-04
 -3.31357646E-04 -8.27730850E-05  3.04396391E-04  4.26033528E-05 -2.97017292E-05
 -4.12561968E-05 -1.52588197E-04 -3.46241264E-05 -2.35565054E-06  1.43851048E-06
  9.24869347E-04  4.55514630E-04  5.05560738E-05 -1.87464417E-05 -3.75036136E-05
 -1.05266583E-04 -9.21473392E-05  1.26009464E-05 -2.47677223E-06 -1.97385287E-06
  9.21759591E-03  2.10240996E-04  5.73189199E-05 -9.96585186E-06  1.17942495E-05
  4.60834474E-03  1.89125934E-03  1.30153826E-03 -6.80650985E-05 -3.40329126E-04
 -2.70850335E-04 -1.40492851E-04 -1.40794006E-04 -1.91477222E-05 -1.37126436E-05
  9.95847969E-01  2.80860284E-02  2.17754376E-04 -2.29545719E-04 -4.25929280E-05
 -1.66362440E-02  8.68096561E-04  8.07622562E-04  3.71024166E-04 -1.57441455E-03
 -1.56213612E-03 -1.51234672E-03 -5.84176944E-05 -1.35283178E-05 -1.15962439E-05
 -7.39567939E-04 -1.32767275E-04 -6.84781046E-05 -2.48454413E-05 -7.36383236E-06
 -1.40721557E-04  3.14797250E-04  5.44242518E-04  1.16179803E-04 -5.08716104E-05
 -3.66771726E-05 -6.28979931E-05 -4.49875017E-06  2.68824268E-06  2.96694124E-07
 -1.83353105E-04  8.49334648E-05 -1.55083789E-04  1.67630701E-04  2.10337264E-04
  2.59304101E-03  2.70563048E-04  2.83240489E-03 -1.13389546E-05 -2.49754810E-04
 -1.85536738E-05 -3.24821143E-04 -6.48484662E-05  2.78253794E-04 -7.79168987E-05
  5.25871294E-05 -6.64547660E-05  3.78071375E-05 -6.89596666E-05  2.42617541E-05
 -3.37803798E-05 -1.18995952E-04  4.56058464E-05  9.39364209E-06  1.59353642E-06
  7.51686049E-04 -5.08611317E-04  3.46415939E-05  4.18740525E-05 -2.21569759E-05
 -8.84387493E-05 -8.06499880E-05 -2.71443521E-05 -5.29051786E-06 -1.47329510E-05
 -2.16299091E-04  4.09740932E-05  1.88870183E-05 -2.93110260E-05 -1.53024483E-06
  2.99183078E-03  1.08181872E-03  5.52090674E-04  3.14805108E-05 -4.67891337E-04
 -2.94559350E-04 -7.54873678E-05 -2.91251189E-04 -1.96709144E-05 -1.74120266E-05
  1.03038860E-02  2.68346775E-04 -2.67291534E-05 -8.16976678E-06  5.37400984E-07
  4.32413141E-03 -2.02214880E-03  1.19415777E-03  9.13159560E-05 -3.39155200E-04
 -2.86458262E-04 -1.35087660E-04  1.43587719E-04  1.02196949E-05 -1.29752489E-05
  5.89457252E-04 -1.12997214E-04  6.34338585E-05 -2.35679912E-05 -3.56533691E-07
  6.16149169E-05 -3.26030530E-04  5.12393503E-04  5.08980389E-05 -4.24954298E-05
 -5.21833939E-05 -6.37943675E-05  1.27030898E-05  1.15047922E-06  1.24846992E-06
  9.95831735E-01  2.81136550E-02 -2.42569285E-04 -2.15990912E-04 -1.02826206E-05
 -1.66664215E-02 -6.10578582E-04  7.18012908E-04  6.37070647E-05 -1.57700843E-03
 -1.60301174E-03 -1.50154618E-03  5.74742405E-05  3.88101756E-06 -7.98760068E-06
 -1.67608051E-04  1.10157995E-04 -1.67899241E-04  1.16972043E-04 -2.63838545E-05
 -2.92148347E-04 -1.86852313E-05 -2.87968298E-04  2.48948876E-04  2.75325758E-03
  2.43949631E-04  2.75058594E-03 -6.21550895E-05  2.89252792E-05  1.56035274E-05
  1.34010518E-04 -7.37024762E-05  2.13615401E-04 -7.40040698E-05  2.10455663E-04
 -8.98112442E-06 -1.15200612E-04  8.13125100E-05  1.46957399E-05 -2.56400819E-05
 -6.73444832E-05 -1.05901126E-04 -1.86261766E-04  1.61041573E-04  3.82391596E-05
 -8.87625215E-06 -8.51924179E-05  3.26596766E-05 -6.42787830E-06 -8.48722393E-06
 -2.95695038E-05 -1.41127459E-04 -7.07293287E-05  1.55303509E-05 -4.51630267E-07
  3.72204301E-04 -8.83033590E-05 -8.10008877E-05  1.20167196E-05 -7.12831084E-05
 -3.79829120E-05 -1.31828462E-04 -2.09999937E-05 -5.67577922E-07  8.37024543E-06
  9.95752695E-01  2.86439594E-02  6.72292637E-05  3.86569370E-05  6.02746945E-05
 -1.76216097E-02 -1.87693475E-04 -9.25358762E-04 -8.74394992E-05 -1.62793273E-03
 -1.65391688E-03 -1.59490985E-03 -6.19517128E-06 -8.23668240E-07  2.08837775E-06
 -9.55045793E-03 -2.24818899E-04 -9.09697919E-05  1.55184166E-05 -1.80465989E-06
  4.50547414E-03 -1.70619458E-03 -1.09309227E-03 -1.08377932E-04 -3.50505785E-04
 -2.79954361E-04 -8.97182874E-05 -1.86986488E-04 -2.35796901E-05 -1.36807310E-05
 -1.06139121E-02 -2.51285843E-04  9.33935320E-05  8.01142985E-06  5.34407036E-06
  4.27071311E-03  1.64148136E-03 -1.08021977E-03 -1.23145931E-04 -3.32936291E-04
 -2.60302133E-04 -8.91385945E-05  1.92568045E-04  1.44783206E-05 -1.41917238E-05
  2.50962611E-04  2.70761985E-03  2.21407256E-04  2.76687744E-03 -1.51307155E-04
 -1.89891479E-06 -1.60751881E-04 -1.78439359E-05 -1.56279736E-04 -1.02112256E-05
 -1.52410591E-04  3.04382613E-05 -3.68111948E-05 -2.52910899E-04  8.93340384E-06
  2.75074127E-04 -3.26074006E-05 -1.99812444E-04 -3.48084845E-05 -1.68618605E-04
 -1.31345294E-01  2.71760717E-01 -1.71311422E-02  3.83519926E-02  4.33409843E-02
  2.79854102E-01 -4.77738863E-03  1.94264798E-02  2.54753592E-02  9.04227191E-03