
    -----------------------------------------------------------------------
          Psi4: An Open-Source Ab Initio Electronic Structure Package
                               Psi4 1.3.2 release

                         Git: Rev {HEAD} ecbda83 


    R. M. Parrish, L. A. Burns, D. G. A. Smith, A. C. Simmonett,
    A. E. DePrince III, E. G. Hohenstein, U. Bozkaya, A. Yu. Sokolov,
    R. Di Remigio, R. M. Richard, J. F. Gonthier, A. M. James,
    H. R. McAlexander, A. Kumar, M. Saitow, X. Wang, B. P. Pritchard,
    P. Verma, H. F. Schaefer III, K. Patkowski, R. A. King, E. F. Valeev,
    F. A. Evangelista, J. M. Turney, T. D. Crawford, and C. D. Sherrill,
    J. Chem. Theory Comput. 13(7) pp 3185--3197 (2017).
    (doi: 10.1021/acs.jctc.7b00174)


                         Additional Contributions by
    P. Kraus, H. Kruse, M. H. Lechner, M. C. Schieber, R. A. Shaw,
    A. Alenaizan, R. Galvelis, Z. L. Glick, S. Lehtola, and J. P. Misiewicz

    -----------------------------------------------------------------------


    Psi4 started on: Tuesday, 02 February 2021 04:55AM

    Process ID: 2654
    Host:       node37.bme.utexas.edu
    PSIDATADIR: /home/xy3866/psi4conda/share/psi4
    Memory:     500.0 MiB
    Threads:    8
    
  ==> Input File <==

--------------------------------------------------------------------------
#psi4
#
memory 32 gb

molecule  {
0 1
  S        1.5510760    -1.0871590     0.0000010
  O       -1.4242190    -1.5655850    -0.0000010
  N       -2.0132560     0.6673690     0.0000000
  N        0.6809160     1.3479160    -0.0000010
  C        0.2854510     0.0833790     0.0000000
  C       -1.1339070    -0.3627170    -0.0000010
  C       -3.4470980     0.4588130     0.0000010
  C        2.6913180     0.1894230     0.0000000
  C        2.0463170     1.4081830     0.0000000
  H       -1.6187540     1.6018420     0.0000010
  H       -3.9049180     0.8972840    -0.8911940
  H       -3.9049160     0.8972760     0.8912010
  H       -3.6178680    -0.6175520    -0.0000030
  H        3.7564850    -0.0027380     0.0000010
  H        2.4948450     2.2846230     0.0000000
units angstrom
no_reorient  #important for SAPT in psi4, default
symmetry c1  #important for SAPT in psi4, default
}

set PROPERTIES_ORIGIN ["COM"]
properties('MP2/aug-cc-pvtz', properties = ['dipole'])
--------------------------------------------------------------------------

  Memory set to  29.802 GiB by Python driver.
    SCF Algorithm Type (re)set to DF.

*** tstart() called on node37.bme.utexas.edu
*** at Tue Feb  2 04:55:06 2021

   => Loading Basis Set <=

    Name: AUG-CC-PVTZ
    Role: ORBITAL
    Keyword: BASIS
    atoms 1     entry S          line   902 file /home/xy3866/psi4conda/share/psi4/basis/aug-cc-pvtz.gbs 
    atoms 2     entry O          line   327 file /home/xy3866/psi4conda/share/psi4/basis/aug-cc-pvtz.gbs 
    atoms 3-4   entry N          line   281 file /home/xy3866/psi4conda/share/psi4/basis/aug-cc-pvtz.gbs 
    atoms 5-9   entry C          line   235 file /home/xy3866/psi4conda/share/psi4/basis/aug-cc-pvtz.gbs 
    atoms 10-15 entry H          line    36 file /home/xy3866/psi4conda/share/psi4/basis/aug-cc-pvtz.gbs 


         ---------------------------------------------------------
                                   SCF
               by Justin Turney, Rob Parrish, Andy Simmonett
                          and Daniel G. A. Smith
                              RHF Reference
                        8 Threads,  30517 MiB Core
         ---------------------------------------------------------

  ==> Geometry <==

    Molecular point group: c1
    Full point group: C1

    Geometry (in Angstrom), charge = 0, multiplicity = 1:

       Center              X                  Y                   Z               Mass       
    ------------   -----------------  -----------------  -----------------  -----------------
         S            1.504528574599    -1.050863915699     0.000000943522    31.972071174400
         O           -1.470766425401    -1.529289915699    -0.000001056478    15.994914619570
         N           -2.059803425401     0.703664084301    -0.000000056478    14.003074004430
         N            0.634368574599     1.384211084301    -0.000001056478    14.003074004430
         C            0.238903574599     0.119674084301    -0.000000056478    12.000000000000
         C           -1.180454425401    -0.326421915699    -0.000001056478    12.000000000000
         C           -3.493645425401     0.495108084301     0.000000943522    12.000000000000
         C            2.644770574599     0.225718084301    -0.000000056478    12.000000000000
         C            1.999769574599     1.444478084301    -0.000000056478    12.000000000000
         H           -1.665301425401     1.638137084301     0.000000943522     1.007825032230
         H           -3.951465425401     0.933579084301    -0.891194056478     1.007825032230
         H           -3.951463425401     0.933571084301     0.891200943522     1.007825032230
         H           -3.664415425401    -0.581256915699    -0.000003056478     1.007825032230
         H            3.709937574599     0.033557084301     0.000000943522     1.007825032230
         H            2.448297574599     2.320918084301    -0.000000056478     1.007825032230

  Running in c1 symmetry.

  Rotational constants: A =      0.11363  B =      0.03138  C =      0.02471 [cm^-1]
  Rotational constants: A =   3406.68927  B =    940.87578  C =    740.71645 [MHz]
  Nuclear repulsion =  505.403369617510521

  Charge       = 0
  Multiplicity = 1
  Electrons    = 74
  Nalpha       = 37
  Nbeta        = 37

  ==> Algorithm <==

  SCF Algorithm Type is DF.
  DIIS enabled.
  MOM disabled.
  Fractional occupation disabled.
  Guess Type is SAD.
  Energy threshold   = 1.00e-10
  Density threshold  = 1.00e-10
  Integral threshold = 0.00e+00

  ==> Primary Basis <==

  Basis Set: AUG-CC-PVTZ
    Blend: AUG-CC-PVTZ
    Number of shells: 182
    Number of basis function: 556
    Number of Cartesian functions: 649
    Spherical Harmonics?: true
    Max angular momentum: 3

   => Loading Basis Set <=

    Name: (AUG-CC-PVTZ AUX)
    Role: JKFIT
    Keyword: DF_BASIS_SCF
    atoms 1     entry S          line   730 file /home/xy3866/psi4conda/share/psi4/basis/aug-cc-pvtz-jkfit.gbs 
    atoms 2     entry O          line   286 file /home/xy3866/psi4conda/share/psi4/basis/aug-cc-pvtz-jkfit.gbs 
    atoms 3-4   entry N          line   224 file /home/xy3866/psi4conda/share/psi4/basis/aug-cc-pvtz-jkfit.gbs 
    atoms 5-9   entry C          line   162 file /home/xy3866/psi4conda/share/psi4/basis/aug-cc-pvtz-jkfit.gbs 
    atoms 10-15 entry H          line    70 file /home/xy3866/psi4conda/share/psi4/basis/aug-cc-pvtz-jkfit.gbs 

  ==> Pre-Iterations <==

   -------------------------------------------------------
    Irrep   Nso     Nmo     Nalpha   Nbeta   Ndocc  Nsocc
   -------------------------------------------------------
     A        556     556       0       0       0       0
   -------------------------------------------------------
    Total     556     556      37      37      37       0
   -------------------------------------------------------

  ==> Integral Setup <==

  DFHelper Memory: AOs need 2.796 GiB; user supplied 22.352 GiB. Using in-core AOs.

  ==> MemDFJK: Density-Fitted J/K Matrices <==

    J tasked:                   Yes
    K tasked:                   Yes
    wK tasked:                   No
    OpenMP threads:               8
    Memory [MiB]:             22888
    Algorithm:                 Disk
    Schwarz Cutoff:           1E-12
    Mask sparsity (%):       6.4049
    Fitting Condition:        1E-10

   => Auxiliary Basis Set <=

  Basis Set: (AUG-CC-PVTZ AUX)
    Blend: AUG-CC-PVTZ-JKFIT
    Number of shells: 366
    Number of basis function: 1254
    Number of Cartesian functions: 1558
    Spherical Harmonics?: true
    Max angular momentum: 4

  Minimum eigenvalue in the overlap matrix is 3.5465851975E-06.
  Using Symmetric Orthogonalization.

  SCF Guess: Superposition of Atomic Densities via on-the-fly atomic UHF.

  ==> Iterations <==

                           Total Energy        Delta E     RMS |[F,P]|

   @DF-RHF iter SAD:  -773.73038888364204   -7.73730e+02   0.00000e+00 
   @DF-RHF iter   1:  -774.00076254556768   -2.70374e-01   1.27391e-03 DIIS
   @DF-RHF iter   2:  -774.17477759782446   -1.74015e-01   8.47428e-04 DIIS
   @DF-RHF iter   3:  -774.26404203082609   -8.92644e-02   1.50524e-04 DIIS
   @DF-RHF iter   4:  -774.26932711756342   -5.28509e-03   6.34949e-05 DIIS
   @DF-RHF iter   5:  -774.27033056776509   -1.00345e-03   1.88658e-05 DIIS
   @DF-RHF iter   6:  -774.27052964762936   -1.99080e-04   9.01241e-06 DIIS
   @DF-RHF iter   7:  -774.27059448483328   -6.48372e-05   3.90730e-06 DIIS
   @DF-RHF iter   8:  -774.27060405932355   -9.57449e-06   1.47672e-06 DIIS
   @DF-RHF iter   9:  -774.27060538995897   -1.33064e-06   5.61203e-07 DIIS
   @DF-RHF iter  10:  -774.27060555582773   -1.65869e-07   1.89799e-07 DIIS
   @DF-RHF iter  11:  -774.27060557363768   -1.78100e-08   5.49421e-08 DIIS
   @DF-RHF iter  12:  -774.27060557515028   -1.51260e-09   2.86991e-08 DIIS
   @DF-RHF iter  13:  -774.27060557535651   -2.06228e-10   9.68200e-09 DIIS
   @DF-RHF iter  14:  -774.27060557539460   -3.80851e-11   3.36190e-09 DIIS
   @DF-RHF iter  15:  -774.27060557539983   -5.22959e-12   1.53665e-09 DIIS
   @DF-RHF iter  16:  -774.27060557540176   -1.93268e-12   6.09192e-10 DIIS
   @DF-RHF iter  17:  -774.27060557540108    6.82121e-13   3.11782e-10 DIIS
   @DF-RHF iter  18:  -774.27060557539880    2.27374e-12   1.15476e-10 DIIS
   @DF-RHF iter  19:  -774.27060557540199   -3.18323e-12   5.91491e-11 DIIS
  Energy and wave function converged.


  ==> Post-Iterations <==

    Orbital Energies [Eh]
    ---------------------

    Doubly Occupied:                                                      

       1A    -92.012469     2A    -20.528951     3A    -15.596333  
       4A    -15.593609     5A    -11.369023     6A    -11.323972  
       7A    -11.282611     8A    -11.273525     9A    -11.263616  
      10A     -9.012382    11A     -6.693088    12A     -6.692559  
      13A     -6.691938    14A     -1.383952    15A     -1.295881  
      16A     -1.237760    17A     -1.080773    18A     -1.039459  
      19A     -0.961415    20A     -0.850434    21A     -0.813604  
      22A     -0.778623    23A     -0.720141    24A     -0.667349  
      25A     -0.650527    26A     -0.633405    27A     -0.603203  
      28A     -0.584088    29A     -0.567540    30A     -0.552015  
      31A     -0.531912    32A     -0.521044    33A     -0.466604  
      34A     -0.436362    35A     -0.408309    36A     -0.392275  
      37A     -0.348390  

    Virtual:                                                              

      38A      0.024811    39A      0.030213    40A      0.037294  
      41A      0.045604    42A      0.052127    43A      0.058648  
      44A      0.060681    45A      0.077324    46A      0.082139  
      47A      0.083404    48A      0.091931    49A      0.100971  
      50A      0.105309    51A      0.111399    52A      0.112813  
      53A      0.117434    54A      0.123393    55A      0.128707  
      56A      0.135535    57A      0.135959    58A      0.144594  
      59A      0.145977    60A      0.154855    61A      0.159347  
      62A      0.161481    63A      0.167639    64A      0.174680  
      65A      0.178112    66A      0.187281    67A      0.188118  
      68A      0.207098    69A      0.211588    70A      0.212860  
      71A      0.216155    72A      0.221568    73A      0.234752  
      74A      0.239142    75A      0.244208    76A      0.251326  
      77A      0.254925    78A      0.263174    79A      0.278666  
      80A      0.281069    81A      0.287225    82A      0.291429  
      83A      0.297216    84A      0.299255    85A      0.300932  
      86A      0.314929    87A      0.320913    88A      0.326934  
      89A      0.335127    90A      0.335312    91A      0.340326  
      92A      0.342045    93A      0.346050    94A      0.353141  
      95A      0.361886    96A      0.370448    97A      0.375679  
      98A      0.379436    99A      0.389066   100A      0.394165  
     101A      0.400982   102A      0.409044   103A      0.411433  
     104A      0.417304   105A      0.417484   106A      0.427274  
     107A      0.437881   108A      0.450528   109A      0.453616  
     110A      0.454955   111A      0.460133   112A      0.465090  
     113A      0.466994   114A      0.471485   115A      0.472805  
     116A      0.476881   117A      0.484221   118A      0.487088  
     119A      0.490480   120A      0.493193   121A      0.502088  
     122A      0.507220   123A      0.515033   124A      0.524491  
     125A      0.525612   126A      0.536973   127A      0.547718  
     128A      0.553360   129A      0.559118   130A      0.561428  
     131A      0.566664   132A      0.579029   133A      0.593368  
     134A      0.597217   135A      0.601437   136A      0.613998  
     137A      0.617408   138A      0.619522   139A      0.631538  
     140A      0.632144   141A      0.647847   142A      0.655694  
     143A      0.662324   144A      0.663933   145A      0.672944  
     146A      0.687947   147A      0.692976   148A      0.717441  
     149A      0.730236   150A      0.732012   151A      0.740524  
     152A      0.745141   153A      0.753840   154A      0.765169  
     155A      0.775524   156A      0.784561   157A      0.789458  
     158A      0.797784   159A      0.800784   160A      0.816988  
     161A      0.822798   162A      0.831465   163A      0.831668  
     164A      0.840469   165A      0.843321   166A      0.849077  
     167A      0.857326   168A      0.879860   169A      0.881808  
     170A      0.883477   171A      0.893389   172A      0.894720  
     173A      0.900992   174A      0.908062   175A      0.912546  
     176A      0.922234   177A      0.932657   178A      0.938055  
     179A      0.943363   180A      0.948442   181A      0.956395  
     182A      0.964034   183A      0.970249   184A      0.978313  
     185A      0.985572   186A      0.989989   187A      1.001171  
     188A      1.001617   189A      1.015567   190A      1.025311  
     191A      1.030048   192A      1.033871   193A      1.041379  
     194A      1.050167   195A      1.054996   196A      1.055971  
     197A      1.064892   198A      1.071042   199A      1.077049  
     200A      1.089249   201A      1.091491   202A      1.102545  
     203A      1.105073   204A      1.106298   205A      1.115622  
     206A      1.120066   207A      1.120141   208A      1.143818  
     209A      1.150742   210A      1.156077   211A      1.161042  
     212A      1.168858   213A      1.178883   214A      1.182606  
     215A      1.187561   216A      1.197087   217A      1.206647  
     218A      1.211808   219A      1.217678   220A      1.236228  
     221A      1.237339   222A      1.260319   223A      1.270538  
     224A      1.276956   225A      1.280376   226A      1.290531  
     227A      1.292779   228A      1.300625   229A      1.303446  
     230A      1.312594   231A      1.317400   232A      1.330134  
     233A      1.366911   234A      1.380107   235A      1.381392  
     236A      1.382288   237A      1.400023   238A      1.401227  
     239A      1.409789   240A      1.427361   241A      1.443593  
     242A      1.449689   243A      1.462770   244A      1.473996  
     245A      1.478197   246A      1.494253   247A      1.496960  
     248A      1.507339   249A      1.519220   250A      1.520479  
     251A      1.535767   252A      1.536490   253A      1.553955  
     254A      1.568395   255A      1.572860   256A      1.579222  
     257A      1.585763   258A      1.604283   259A      1.611257  
     260A      1.631913   261A      1.634726   262A      1.642609  
     263A      1.651520   264A      1.670998   265A      1.680105  
     266A      1.693929   267A      1.694692   268A      1.701768  
     269A      1.717996   270A      1.730254   271A      1.741566  
     272A      1.752814   273A      1.757872   274A      1.759806  
     275A      1.777148   276A      1.779078   277A      1.789828  
     278A      1.821225   279A      1.835780   280A      1.847168  
     281A      1.869462   282A      1.874152   283A      1.886975  
     284A      1.888392   285A      1.899479   286A      1.924839  
     287A      1.930493   288A      1.947079   289A      1.956682  
     290A      1.975689   291A      1.983673   292A      1.983956  
     293A      1.989688   294A      2.000310   295A      2.017819  
     296A      2.035887   297A      2.048754   298A      2.062486  
     299A      2.081331   300A      2.092281   301A      2.110597  
     302A      2.116725   303A      2.135386   304A      2.147462  
     305A      2.157851   306A      2.163087   307A      2.174654  
     308A      2.185168   309A      2.213897   310A      2.216709  
     311A      2.228632   312A      2.230261   313A      2.247281  
     314A      2.253644   315A      2.276471   316A      2.294278  
     317A      2.315078   318A      2.333460   319A      2.333776  
     320A      2.351242   321A      2.364067   322A      2.368346  
     323A      2.380390   324A      2.392076   325A      2.411274  
     326A      2.421148   327A      2.441150   328A      2.452890  
     329A      2.466263   330A      2.473088   331A      2.480344  
     332A      2.501851   333A      2.518243   334A      2.524059  
     335A      2.540105   336A      2.545081   337A      2.551361  
     338A      2.581733   339A      2.592923   340A      2.613226  
     341A      2.643867   342A      2.644261   343A      2.674339  
     344A      2.675768   345A      2.695118   346A      2.717299  
     347A      2.732640   348A      2.746518   349A      2.766173  
     350A      2.768816   351A      2.786214   352A      2.828073  
     353A      2.857082   354A      2.858199   355A      2.881312  
     356A      2.926707   357A      2.927421   358A      2.982301  
     359A      3.013013   360A      3.024141   361A      3.034237  
     362A      3.056260   363A      3.063641   364A      3.087874  
     365A      3.105835   366A      3.117644   367A      3.117894  
     368A      3.179296   369A      3.207948   370A      3.219965  
     371A      3.243272   372A      3.284264   373A      3.284304  
     374A      3.304580   375A      3.329357   376A      3.355119  
     377A      3.388472   378A      3.404892   379A      3.424120  
     380A      3.439489   381A      3.446067   382A      3.481308  
     383A      3.517296   384A      3.518555   385A      3.524693  
     386A      3.533559   387A      3.556295   388A      3.561918  
     389A      3.585776   390A      3.613298   391A      3.630409  
     392A      3.650062   393A      3.659659   394A      3.660108  
     395A      3.699842   396A      3.719284   397A      3.742836  
     398A      3.747824   399A      3.755337   400A      3.771627  
     401A      3.783175   402A      3.788472   403A      3.823898  
     404A      3.831458   405A      3.837141   406A      3.848583  
     407A      3.849552   408A      3.877260   409A      3.885001  
     410A      3.905438   411A      3.926178   412A      3.938925  
     413A      3.949795   414A      3.952399   415A      3.991336  
     416A      3.994643   417A      3.997037   418A      4.010680  
     419A      4.042750   420A      4.046530   421A      4.077101  
     422A      4.078696   423A      4.084047   424A      4.104979  
     425A      4.117345   426A      4.118773   427A      4.128601  
     428A      4.139149   429A      4.154701   430A      4.174545  
     431A      4.192557   432A      4.220859   433A      4.258225  
     434A      4.263217   435A      4.275285   436A      4.284691  
     437A      4.307570   438A      4.325888   439A      4.348805  
     440A      4.356923   441A      4.357412   442A      4.377270  
     443A      4.403828   444A      4.406819   445A      4.428463  
     446A      4.458514   447A      4.499974   448A      4.512511  
     449A      4.517967   450A      4.569539   451A      4.574807  
     452A      4.605197   453A      4.613063   454A      4.616245  
     455A      4.649862   456A      4.682152   457A      4.691745  
     458A      4.726591   459A      4.748255   460A      4.764245  
     461A      4.783218   462A      4.817623   463A      4.831114  
     464A      4.845458   465A      4.869412   466A      4.888528  
     467A      4.909193   468A      4.933246   469A      4.953783  
     470A      4.963065   471A      4.966682   472A      4.981156  
     473A      5.026563   474A      5.029197   475A      5.076989  
     476A      5.094284   477A      5.130181   478A      5.158545  
     479A      5.169079   480A      5.180422   481A      5.184764  
     482A      5.197818   483A      5.217454   484A      5.287542  
     485A      5.289647   486A      5.324910   487A      5.349838  
     488A      5.363644   489A      5.416775   490A      5.442903  
     491A      5.485710   492A      5.497861   493A      5.561092  
     494A      5.572851   495A      5.576685   496A      5.632527  
     497A      5.660257   498A      5.666823   499A      5.685868  
     500A      5.714908   501A      5.743819   502A      5.758422  
     503A      5.767827   504A      5.806594   505A      5.830521  
     506A      5.860806   507A      5.879692   508A      5.885904  
     509A      5.893774   510A      5.918141   511A      5.991993  
     512A      6.101171   513A      6.114293   514A      6.161986  
     515A      6.168337   516A      6.193641   517A      6.242507  
     518A      6.285741   519A      6.312016   520A      6.314866  
     521A      6.387119   522A      6.446753   523A      6.575719  
     524A      6.613482   525A      6.687235   526A      6.717846  
     527A      6.733976   528A      6.749203   529A      6.763210  
     530A      6.780762   531A      6.860820   532A      6.870321  
     533A      6.881620   534A      6.944655   535A      7.017968  
     536A      7.050535   537A      7.105130   538A      7.181694  
     539A      7.206998   540A      7.414852   541A      7.430144  
     542A      7.663371   543A      7.691501   544A      7.771595  
     545A      7.805764   546A      7.918336   547A      8.019724  
     548A      9.212687   549A     15.199871   550A     15.747258  
     551A     16.320121   552A     16.495156   553A     17.570429  
     554A     18.560931   555A     19.315516   556A     20.176566  

    Final Occupation by Irrep:
              A 
    DOCC [    37 ]

  @DF-RHF Final Energy:  -774.27060557540199

   => Energetics <=

    Nuclear Repulsion Energy =            505.4033696175105206
    One-Electron Energy =               -2065.6296673313995598
    Two-Electron Energy =                 785.9556921384869383
    Total Energy =                       -774.2706055754019872

Computation Completed

*** tstop() called on node37.bme.utexas.edu at Tue Feb  2 04:56:23 2021
Module time:
	user time   =     286.07 seconds =       4.77 minutes
	system time =      59.31 seconds =       0.99 minutes
	total time  =         77 seconds =       1.28 minutes
Total time:
	user time   =     286.07 seconds =       4.77 minutes
	system time =      59.31 seconds =       0.99 minutes
	total time  =         77 seconds =       1.28 minutes
   => Loading Basis Set <=

    Name: (AUG-CC-PVTZ AUX)
    Role: RIFIT
    Keyword: DF_BASIS_MP2
    atoms 1     entry S          line   666 file /home/xy3866/psi4conda/share/psi4/basis/aug-cc-pvtz-ri.gbs 
    atoms 2     entry O          line   264 file /home/xy3866/psi4conda/share/psi4/basis/aug-cc-pvtz-ri.gbs 
    atoms 3-4   entry N          line   206 file /home/xy3866/psi4conda/share/psi4/basis/aug-cc-pvtz-ri.gbs 
    atoms 5-9   entry C          line   148 file /home/xy3866/psi4conda/share/psi4/basis/aug-cc-pvtz-ri.gbs 
    atoms 10-15 entry H          line    30 file /home/xy3866/psi4conda/share/psi4/basis/aug-cc-pvtz-ri.gbs 


*** tstart() called on node37.bme.utexas.edu
*** at Tue Feb  2 04:56:23 2021


  //>>>>>>>>>>>>>>>>>>>>>>>>>>>>>>>>>>>//
  //               DFMP2               //
  //<<<<<<<<<<<<<<<<<<<<<<<<<<<<<<<<<<<//

	 --------------------------------------------------------
	                          DF-MP2                         
	      2nd-Order Density-Fitted Moller-Plesset Theory     
	              RMP2 Wavefunction,   8 Threads             
	                                                         
	        Rob Parrish, Justin Turney, Andy Simmonett,      
	           Ed Hohenstein, and C. David Sherrill          
	 --------------------------------------------------------

   => Auxiliary Basis Set <=

  Basis Set: (AUG-CC-PVTZ AUX)
    Blend: AUG-CC-PVTZ-RI
    Number of shells: 345
    Number of basis function: 1271
    Number of Cartesian functions: 1609
    Spherical Harmonics?: true
    Max angular momentum: 4

	 --------------------------------------------------------
	                 NBF =   556, NAUX =  1271
	 --------------------------------------------------------
	   CLASS    FOCC     OCC    AOCC    AVIR     VIR    FVIR
	   PAIRS       0      37      37     519     519       0
	 --------------------------------------------------------

  DFHelper Memory: AOs need 2.796 GiB; user supplied 22.352 GiB. Using in-core AOs.


         ------------------------------------------------------------
                                     CPHF                           
                                  Rob Parrish                       
         ------------------------------------------------------------

  ==> Geometry <==

    Molecular point group: c1
    Full point group: C1

    Geometry (in Angstrom), charge = 0, multiplicity = 1:

       Center              X                  Y                   Z               Mass       
    ------------   -----------------  -----------------  -----------------  -----------------
         S            1.504528574599    -1.050863915699     0.000000943522    31.972071174400
         O           -1.470766425401    -1.529289915699    -0.000001056478    15.994914619570
         N           -2.059803425401     0.703664084301    -0.000000056478    14.003074004430
         N            0.634368574599     1.384211084301    -0.000001056478    14.003074004430
         C            0.238903574599     0.119674084301    -0.000000056478    12.000000000000
         C           -1.180454425401    -0.326421915699    -0.000001056478    12.000000000000
         C           -3.493645425401     0.495108084301     0.000000943522    12.000000000000
         C            2.644770574599     0.225718084301    -0.000000056478    12.000000000000
         C            1.999769574599     1.444478084301    -0.000000056478    12.000000000000
         H           -1.665301425401     1.638137084301     0.000000943522     1.007825032230
         H           -3.951465425401     0.933579084301    -0.891194056478     1.007825032230
         H           -3.951463425401     0.933571084301     0.891200943522     1.007825032230
         H           -3.664415425401    -0.581256915699    -0.000003056478     1.007825032230
         H            3.709937574599     0.033557084301     0.000000943522     1.007825032230
         H            2.448297574599     2.320918084301    -0.000000056478     1.007825032230

  Nuclear repulsion =  505.403369617510521
  Reference energy  = -774.270605575401987

  ==> Basis Set <==

  Basis Set: AUG-CC-PVTZ
    Blend: AUG-CC-PVTZ
    Number of shells: 182
    Number of basis function: 556
    Number of Cartesian functions: 649
    Spherical Harmonics?: true
    Max angular momentum: 3

  ==> CGRSolver (by Rob Parrish) <==

   Number of roots    =         1
   Preconditioning    =    JACOBI
   Convergence cutoff =     1E-06
   Maximum iterations =       100

  ==> CPHFRHamiltonian (by Rob Parrish) <== 

  ==> MemDFJK: Density-Fitted J/K Matrices <==

    J tasked:                   Yes
    K tasked:                   Yes
    wK tasked:                   No
    OpenMP threads:               8
    Memory [MiB]:             22888
    Algorithm:                 Disk
    Schwarz Cutoff:           1E-12
    Mask sparsity (%):       6.4049
    Fitting Condition:        1E-10

   => Auxiliary Basis Set <=

  Basis Set: (AUG-CC-PVTZ AUX)
    Blend: AUG-CC-PVTZ-JKFIT
    Number of shells: 366
    Number of basis function: 1254
    Number of Cartesian functions: 1558
    Spherical Harmonics?: true
    Max angular momentum: 4

  ==> CPHF Iterations <==

  => Iterations <=

             Iter  Converged  Remaining    Residual
  CGR           1          0          1   1.370E-01
  CGR           2          0          1   4.637E-02
  CGR           3          0          1   2.361E-02
  CGR           4          0          1   8.616E-03
  CGR           5          0          1   3.534E-03
  CGR           6          0          1   1.372E-03
  CGR           7          0          1   4.799E-04
  CGR           8          0          1   1.879E-04
  CGR           9          0          1   6.676E-05
  CGR          10          0          1   2.676E-05
  CGR          11          0          1   1.440E-05
  CGR          12          0          1   6.207E-06
  CGR          13          0          1   2.554E-06
  CGR          14          1          0   8.076E-07

    CGRSolver converged.

	-----------------------------------------------------------
	 ==================> DF-MP2 Energies <==================== 
	-----------------------------------------------------------
	 Reference Energy          =    -774.2706055754019872 [Eh]
	 Singles Energy            =      -0.0000000000000000 [Eh]
	 Same-Spin Energy          =      -0.4586477937519381 [Eh]
	 Opposite-Spin Energy      =      -1.3686539817425283 [Eh]
	 Correlation Energy        =      -1.8273017754944663 [Eh]
	 Total Energy              =    -776.0979073508964348 [Eh]
	-----------------------------------------------------------
	 ================> DF-SCS-MP2 Energies <================== 
	-----------------------------------------------------------
	 SCS Same-Spin Scale       =       0.3333333333333333 [-]
	 SCS Opposite-Spin Scale   =       1.2000000000000000 [-]
	 SCS Same-Spin Energy      =      -0.1528825979173127 [Eh]
	 SCS Opposite-Spin Energy  =      -1.6423847780910339 [Eh]
	 SCS Correlation Energy    =      -1.7952673760083466 [Eh]
	 SCS Total Energy          =    -776.0658729514103698 [Eh]
	-----------------------------------------------------------



Properties will be evaluated at  -0.000000,   0.000000,   0.000000 [a0]

Properties computed using the MP2 density matrix

  Nuclear Dipole Moment: [e a0]
     X:    -6.5953      Y:     4.9073      Z:     0.0000

  Electronic Dipole Moment: [e a0]
     X:     7.0435      Y:    -3.9438      Z:    -0.0000

  Dipole Moment: [e a0]
     X:     0.4482      Y:     0.9635      Z:     0.0000     Total:     1.0627

  Dipole Moment: [D]
     X:     1.1392      Y:     2.4491      Z:     0.0000     Total:     2.7011


*** tstop() called on node37.bme.utexas.edu at Tue Feb  2 04:58:59 2021
Module time:
	user time   =     745.64 seconds =      12.43 minutes
	system time =      95.56 seconds =       1.59 minutes
	total time  =        156 seconds =       2.60 minutes
Total time:
	user time   =    1031.91 seconds =      17.20 minutes
	system time =     154.88 seconds =       2.58 minutes
	total time  =        233 seconds =       3.88 minutes

    Psi4 stopped on: Tuesday, 02 February 2021 04:58AM
    Psi4 wall time for execution: 0:03:52.83

*** Psi4 exiting successfully. Buy a developer a beer!
