
    -----------------------------------------------------------------------
          Psi4: An Open-Source Ab Initio Electronic Structure Package
                               Psi4 1.3.2 release

                         Git: Rev {HEAD} ecbda83 


    R. M. Parrish, L. A. Burns, D. G. A. Smith, A. C. Simmonett,
    A. E. DePrince III, E. G. Hohenstein, U. Bozkaya, A. Yu. Sokolov,
    R. Di Remigio, R. M. Richard, J. F. Gonthier, A. M. James,
    H. R. McAlexander, A. Kumar, M. Saitow, X. Wang, B. P. Pritchard,
    P. Verma, H. F. Schaefer III, K. Patkowski, R. A. King, E. F. Valeev,
    F. A. Evangelista, J. M. Turney, T. D. Crawford, and C. D. Sherrill,
    J. Chem. Theory Comput. 13(7) pp 3185--3197 (2017).
    (doi: 10.1021/acs.jctc.7b00174)


                         Additional Contributions by
    P. Kraus, H. Kruse, M. H. Lechner, M. C. Schieber, R. A. Shaw,
    A. Alenaizan, R. Galvelis, Z. L. Glick, S. Lehtola, and J. P. Misiewicz

    -----------------------------------------------------------------------


    Psi4 started on: Tuesday, 02 February 2021 01:51AM

    Process ID: 15189
    Host:       node37.bme.utexas.edu
    PSIDATADIR: /home/xy3866/psi4conda/share/psi4
    Memory:     500.0 MiB
    Threads:    8
    
  ==> Input File <==

--------------------------------------------------------------------------
#psi4
#
memory 32 gb

molecule  {
0 1
  S        1.5510760    -1.0871590     0.0000010
  O       -1.4242190    -1.5655850    -0.0000010
  N       -2.0132560     0.6673690     0.0000000
  N        0.6884461     1.2528172    -0.0000010
  C        0.2854510     0.0833790     0.0000000
  C       -1.1339070    -0.3627170    -0.0000010
  C       -3.4470980     0.4588130     0.0000010
  C        2.6913180     0.1894230     0.0000000
  C        2.0463170     1.4081830     0.0000000
  H       -1.6187540     1.6018420     0.0000010
  H       -3.9049180     0.8972840    -0.8911940
  H       -3.9049160     0.8972760     0.8912010
  H       -3.6178680    -0.6175520    -0.0000030
  H        3.7564850    -0.0027380     0.0000010
  H        2.5404020     2.3736430     0.0000000
units angstrom
no_reorient  #important for SAPT in psi4, default
symmetry c1  #important for SAPT in psi4, default
}

set PROPERTIES_ORIGIN ["COM"]
properties('MP2/aug-cc-pvtz', properties = ['dipole'])
--------------------------------------------------------------------------

  Memory set to  29.802 GiB by Python driver.
    SCF Algorithm Type (re)set to DF.

*** tstart() called on node37.bme.utexas.edu
*** at Tue Feb  2 01:51:21 2021

   => Loading Basis Set <=

    Name: AUG-CC-PVTZ
    Role: ORBITAL
    Keyword: BASIS
    atoms 1     entry S          line   902 file /home/xy3866/psi4conda/share/psi4/basis/aug-cc-pvtz.gbs 
    atoms 2     entry O          line   327 file /home/xy3866/psi4conda/share/psi4/basis/aug-cc-pvtz.gbs 
    atoms 3-4   entry N          line   281 file /home/xy3866/psi4conda/share/psi4/basis/aug-cc-pvtz.gbs 
    atoms 5-9   entry C          line   235 file /home/xy3866/psi4conda/share/psi4/basis/aug-cc-pvtz.gbs 
    atoms 10-15 entry H          line    36 file /home/xy3866/psi4conda/share/psi4/basis/aug-cc-pvtz.gbs 


         ---------------------------------------------------------
                                   SCF
               by Justin Turney, Rob Parrish, Andy Simmonett
                          and Daniel G. A. Smith
                              RHF Reference
                        8 Threads,  30517 MiB Core
         ---------------------------------------------------------

  ==> Geometry <==

    Molecular point group: c1
    Full point group: C1

    Geometry (in Angstrom), charge = 0, multiplicity = 1:

       Center              X                  Y                   Z               Mass       
    ------------   -----------------  -----------------  -----------------  -----------------
         S            1.503462823697    -1.042118962768     0.000000943522    31.972071174400
         O           -1.471832176303    -1.520544962768    -0.000001056478    15.994914619570
         N           -2.060869176303     0.712409037232    -0.000000056478    14.003074004430
         N            0.640832923697     1.297857237232    -0.000001056478    14.003074004430
         C            0.237837823697     0.128419037232    -0.000000056478    12.000000000000
         C           -1.181520176303    -0.317676962768    -0.000001056478    12.000000000000
         C           -3.494711176303     0.503853037232     0.000000943522    12.000000000000
         C            2.643704823697     0.234463037232    -0.000000056478    12.000000000000
         C            1.998703823697     1.453223037232    -0.000000056478    12.000000000000
         H           -1.666367176303     1.646882037232     0.000000943522     1.007825032230
         H           -3.952531176303     0.942324037232    -0.891194056478     1.007825032230
         H           -3.952529176303     0.942316037232     0.891200943522     1.007825032230
         H           -3.665481176303    -0.572511962768    -0.000003056478     1.007825032230
         H            3.708871823697     0.042302037232     0.000000943522     1.007825032230
         H            2.492788823697     2.418683037232    -0.000000056478     1.007825032230

  Running in c1 symmetry.

  Rotational constants: A =      0.11610  B =      0.03136  C =      0.02481 [cm^-1]
  Rotational constants: A =   3480.45839  B =    940.24702  C =    743.75247 [MHz]
  Nuclear repulsion =  507.509293239472811

  Charge       = 0
  Multiplicity = 1
  Electrons    = 74
  Nalpha       = 37
  Nbeta        = 37

  ==> Algorithm <==

  SCF Algorithm Type is DF.
  DIIS enabled.
  MOM disabled.
  Fractional occupation disabled.
  Guess Type is SAD.
  Energy threshold   = 1.00e-10
  Density threshold  = 1.00e-10
  Integral threshold = 0.00e+00

  ==> Primary Basis <==

  Basis Set: AUG-CC-PVTZ
    Blend: AUG-CC-PVTZ
    Number of shells: 182
    Number of basis function: 556
    Number of Cartesian functions: 649
    Spherical Harmonics?: true
    Max angular momentum: 3

   => Loading Basis Set <=

    Name: (AUG-CC-PVTZ AUX)
    Role: JKFIT
    Keyword: DF_BASIS_SCF
    atoms 1     entry S          line   730 file /home/xy3866/psi4conda/share/psi4/basis/aug-cc-pvtz-jkfit.gbs 
    atoms 2     entry O          line   286 file /home/xy3866/psi4conda/share/psi4/basis/aug-cc-pvtz-jkfit.gbs 
    atoms 3-4   entry N          line   224 file /home/xy3866/psi4conda/share/psi4/basis/aug-cc-pvtz-jkfit.gbs 
    atoms 5-9   entry C          line   162 file /home/xy3866/psi4conda/share/psi4/basis/aug-cc-pvtz-jkfit.gbs 
    atoms 10-15 entry H          line    70 file /home/xy3866/psi4conda/share/psi4/basis/aug-cc-pvtz-jkfit.gbs 

  ==> Pre-Iterations <==

   -------------------------------------------------------
    Irrep   Nso     Nmo     Nalpha   Nbeta   Ndocc  Nsocc
   -------------------------------------------------------
     A        556     556       0       0       0       0
   -------------------------------------------------------
    Total     556     556      37      37      37       0
   -------------------------------------------------------

  ==> Integral Setup <==

  DFHelper Memory: AOs need 2.795 GiB; user supplied 22.352 GiB. Using in-core AOs.

  ==> MemDFJK: Density-Fitted J/K Matrices <==

    J tasked:                   Yes
    K tasked:                   Yes
    wK tasked:                   No
    OpenMP threads:               8
    Memory [MiB]:             22888
    Algorithm:                 Disk
    Schwarz Cutoff:           1E-12
    Mask sparsity (%):       6.4334
    Fitting Condition:        1E-10

   => Auxiliary Basis Set <=

  Basis Set: (AUG-CC-PVTZ AUX)
    Blend: AUG-CC-PVTZ-JKFIT
    Number of shells: 366
    Number of basis function: 1254
    Number of Cartesian functions: 1558
    Spherical Harmonics?: true
    Max angular momentum: 4

  Minimum eigenvalue in the overlap matrix is 3.1572460143E-06.
  Using Symmetric Orthogonalization.

  SCF Guess: Superposition of Atomic Densities via on-the-fly atomic UHF.

  ==> Iterations <==

                           Total Energy        Delta E     RMS |[F,P]|

   @DF-RHF iter SAD:  -773.86664564867544   -7.73867e+02   0.00000e+00 
   @DF-RHF iter   1:  -774.00626467758593   -1.39619e-01   1.28159e-03 DIIS
   @DF-RHF iter   2:  -774.18325602496702   -1.76991e-01   8.34840e-04 DIIS
   @DF-RHF iter   3:  -774.26886633591050   -8.56103e-02   1.46511e-04 DIIS
   @DF-RHF iter   4:  -774.27414417871910   -5.27784e-03   6.08673e-05 DIIS
   @DF-RHF iter   5:  -774.27514160832970   -9.97430e-04   1.88556e-05 DIIS
   @DF-RHF iter   6:  -774.27535699337750   -2.15385e-04   9.05602e-06 DIIS
   @DF-RHF iter   7:  -774.27542168674586   -6.46934e-05   3.41524e-06 DIIS
   @DF-RHF iter   8:  -774.27542913037632   -7.44363e-06   1.27813e-06 DIIS
   @DF-RHF iter   9:  -774.27542996231557   -8.31939e-07   4.76523e-07 DIIS
   @DF-RHF iter  10:  -774.27543005396694   -9.16514e-08   1.79885e-07 DIIS
   @DF-RHF iter  11:  -774.27543006581220   -1.18453e-08   5.58405e-08 DIIS
   @DF-RHF iter  12:  -774.27543006687370   -1.06149e-09   3.29844e-08 DIIS
   @DF-RHF iter  13:  -774.27543006713131   -2.57614e-10   6.25138e-09 DIIS
   @DF-RHF iter  14:  -774.27543006714518   -1.38698e-11   2.18653e-09 DIIS
   @DF-RHF iter  15:  -774.27543006714382    1.36424e-12   6.94937e-10 DIIS
   @DF-RHF iter  16:  -774.27543006714779   -3.97904e-12   2.86501e-10 DIIS
   @DF-RHF iter  17:  -774.27543006714734    4.54747e-13   9.62744e-11 DIIS
  Energy and wave function converged.


  ==> Post-Iterations <==

    Orbital Energies [Eh]
    ---------------------

    Doubly Occupied:                                                      

       1A    -92.002049     2A    -20.529360     3A    -15.594238  
       4A    -15.584531     5A    -11.368206     6A    -11.312978  
       7A    -11.284904     8A    -11.283260     9A    -11.264081  
      10A     -9.002891    11A     -6.683612    12A     -6.683146  
      13A     -6.682378    14A     -1.384971    15A     -1.321265  
      16A     -1.238569    17A     -1.081355    18A     -1.038061  
      19A     -0.962593    20A     -0.847206    21A     -0.815192  
      22A     -0.777596    23A     -0.717430    24A     -0.666059  
      25A     -0.650759    26A     -0.635831    27A     -0.605522  
      28A     -0.593710    29A     -0.570006    30A     -0.552219  
      31A     -0.533446    32A     -0.514026    33A     -0.463937  
      34A     -0.424319    35A     -0.410571    36A     -0.393165  
      37A     -0.351779  

    Virtual:                                                              

      38A      0.024510    39A      0.030012    40A      0.036962  
      41A      0.045219    42A      0.051656    43A      0.060789  
      44A      0.069940    45A      0.078164    46A      0.081561  
      47A      0.083640    48A      0.091641    49A      0.101080  
      50A      0.105218    51A      0.111801    52A      0.113389  
      53A      0.116099    54A      0.122481    55A      0.128987  
      56A      0.135731    57A      0.137354    58A      0.144361  
      59A      0.145926    60A      0.154677    61A      0.159115  
      62A      0.161214    63A      0.166836    64A      0.174612  
      65A      0.178110    66A      0.186747    67A      0.190851  
      68A      0.209207    69A      0.211903    70A      0.212348  
      71A      0.214648    72A      0.221143    73A      0.238651  
      74A      0.239282    75A      0.244276    76A      0.251553  
      77A      0.257743    78A      0.263185    79A      0.278722  
      80A      0.282505    81A      0.286929    82A      0.292077  
      83A      0.297302    84A      0.299635    85A      0.300573  
      86A      0.314365    87A      0.317546    88A      0.325762  
      89A      0.335254    90A      0.336243    91A      0.339492  
      92A      0.341859    93A      0.347779    94A      0.352239  
      95A      0.361439    96A      0.371132    97A      0.379142  
      98A      0.382197    99A      0.387707   100A      0.395453  
     101A      0.401965   102A      0.406628   103A      0.412604  
     104A      0.413107   105A      0.417758   106A      0.424856  
     107A      0.438978   108A      0.448307   109A      0.454588  
     110A      0.454607   111A      0.460088   112A      0.461576  
     113A      0.465591   114A      0.472533   115A      0.474087  
     116A      0.479026   117A      0.483209   118A      0.487359  
     119A      0.489783   120A      0.491598   121A      0.496181  
     122A      0.507908   123A      0.517225   124A      0.522112  
     125A      0.524641   126A      0.537805   127A      0.546812  
     128A      0.552837   129A      0.558141   130A      0.564509  
     131A      0.565373   132A      0.582334   133A      0.592745  
     134A      0.596126   135A      0.602846   136A      0.605577  
     137A      0.616157   138A      0.620677   139A      0.629652  
     140A      0.630457   141A      0.649106   142A      0.659222  
     143A      0.664414   144A      0.665406   145A      0.675519  
     146A      0.685243   147A      0.697563   148A      0.712018  
     149A      0.734255   150A      0.737295   151A      0.738102  
     152A      0.747989   153A      0.750066   154A      0.766247  
     155A      0.775828   156A      0.787475   157A      0.793424  
     158A      0.800309   159A      0.803773   160A      0.819418  
     161A      0.823083   162A      0.832668   163A      0.834719  
     164A      0.837733   165A      0.849889   166A      0.851520  
     167A      0.860281   168A      0.879611   169A      0.881841  
     170A      0.887851   171A      0.896800   172A      0.897145  
     173A      0.908535   174A      0.909916   175A      0.916357  
     176A      0.926983   177A      0.932683   178A      0.939939  
     179A      0.940750   180A      0.949411   181A      0.960653  
     182A      0.969462   183A      0.970044   184A      0.978755  
     185A      0.981171   186A      0.990548   187A      1.000020  
     188A      1.005960   189A      1.015041   190A      1.023501  
     191A      1.026905   192A      1.035325   193A      1.039431  
     194A      1.049887   195A      1.056469   196A      1.056796  
     197A      1.068746   198A      1.079698   199A      1.080007  
     200A      1.089777   201A      1.094044   202A      1.094138  
     203A      1.105292   204A      1.106217   205A      1.112399  
     206A      1.119427   207A      1.120699   208A      1.145963  
     209A      1.148856   210A      1.154287   211A      1.161670  
     212A      1.170579   213A      1.176431   214A      1.177791  
     215A      1.184575   216A      1.195001   217A      1.203727  
     218A      1.203935   219A      1.215792   220A      1.223516  
     221A      1.236782   222A      1.257095   223A      1.270124  
     224A      1.276312   225A      1.277738   226A      1.290499  
     227A      1.291930   228A      1.304893   229A      1.305198  
     230A      1.313724   231A      1.318052   232A      1.326946  
     233A      1.376136   234A      1.376504   235A      1.384087  
     236A      1.388802   237A      1.395152   238A      1.399150  
     239A      1.408298   240A      1.425244   241A      1.435195  
     242A      1.448875   243A      1.458062   244A      1.473116  
     245A      1.484843   246A      1.489184   247A      1.495799  
     248A      1.499658   249A      1.522230   250A      1.523351  
     251A      1.527168   252A      1.542160   253A      1.556096  
     254A      1.559713   255A      1.566092   256A      1.574820  
     257A      1.590297   258A      1.606728   259A      1.611197  
     260A      1.636399   261A      1.638626   262A      1.647316  
     263A      1.651196   264A      1.665161   265A      1.671146  
     266A      1.691957   267A      1.692176   268A      1.702052  
     269A      1.719317   270A      1.736011   271A      1.737138  
     272A      1.753113   273A      1.757530   274A      1.763829  
     275A      1.779904   276A      1.782942   277A      1.787025  
     278A      1.819640   279A      1.834364   280A      1.836941  
     281A      1.871604   282A      1.884389   283A      1.887071  
     284A      1.890690   285A      1.907019   286A      1.913582  
     287A      1.926800   288A      1.945635   289A      1.950150  
     290A      1.974606   291A      1.977717   292A      1.985507  
     293A      1.988464   294A      2.009580   295A      2.020328  
     296A      2.041059   297A      2.047351   298A      2.065141  
     299A      2.092934   300A      2.095004   301A      2.117887  
     302A      2.128331   303A      2.143598   304A      2.149299  
     305A      2.165033   306A      2.176009   307A      2.179954  
     308A      2.190942   309A      2.215383   310A      2.221934  
     311A      2.225189   312A      2.227312   313A      2.247296  
     314A      2.247939   315A      2.268496   316A      2.290003  
     317A      2.321094   318A      2.335070   319A      2.338072  
     320A      2.359700   321A      2.368125   322A      2.374831  
     323A      2.390300   324A      2.395407   325A      2.398003  
     326A      2.431236   327A      2.434042   328A      2.456850  
     329A      2.466240   330A      2.471372   331A      2.473185  
     332A      2.501680   333A      2.525543   334A      2.526903  
     335A      2.538462   336A      2.546359   337A      2.548105  
     338A      2.583077   339A      2.596355   340A      2.626543  
     341A      2.654717   342A      2.657800   343A      2.683394  
     344A      2.700168   345A      2.702126   346A      2.717147  
     347A      2.735181   348A      2.748645   349A      2.783387  
     350A      2.788825   351A      2.789773   352A      2.828576  
     353A      2.860883   354A      2.866541   355A      2.888033  
     356A      2.915854   357A      2.921328   358A      2.975923  
     359A      3.008369   360A      3.017659   361A      3.044581  
     362A      3.062510   363A      3.081296   364A      3.102614  
     365A      3.113751   366A      3.114667   367A      3.147046  
     368A      3.178106   369A      3.206197   370A      3.217629  
     371A      3.254853   372A      3.279201   373A      3.301611  
     374A      3.311738   375A      3.338588   376A      3.356291  
     377A      3.404826   378A      3.410549   379A      3.424948  
     380A      3.443906   381A      3.467736   382A      3.506259  
     383A      3.508366   384A      3.518630   385A      3.518652  
     386A      3.532595   387A      3.557089   388A      3.568058  
     389A      3.589031   390A      3.609945   391A      3.621761  
     392A      3.631510   393A      3.658536   394A      3.680077  
     395A      3.710250   396A      3.727707   397A      3.745145  
     398A      3.750096   399A      3.759319   400A      3.774296  
     401A      3.785304   402A      3.785376   403A      3.831744  
     404A      3.840478   405A      3.842511   406A      3.850373  
     407A      3.860049   408A      3.890196   409A      3.891720  
     410A      3.901567   411A      3.938159   412A      3.938346  
     413A      3.949481   414A      3.950883   415A      3.993295  
     416A      3.997372   417A      3.999951   418A      4.022386  
     419A      4.041159   420A      4.052063   421A      4.060408  
     422A      4.077189   423A      4.081358   424A      4.096756  
     425A      4.110603   426A      4.121390   427A      4.144957  
     428A      4.145530   429A      4.158231   430A      4.179682  
     431A      4.202234   432A      4.226142   433A      4.263238  
     434A      4.279948   435A      4.290776   436A      4.299282  
     437A      4.314287   438A      4.335634   439A      4.339964  
     440A      4.355681   441A      4.362990   442A      4.376989  
     443A      4.398419   444A      4.406068   445A      4.442218  
     446A      4.463715   447A      4.504051   448A      4.508560  
     449A      4.540661   450A      4.562672   451A      4.583364  
     452A      4.607282   453A      4.610906   454A      4.639386  
     455A      4.643499   456A      4.676562   457A      4.694301  
     458A      4.700422   459A      4.722627   460A      4.769039  
     461A      4.782622   462A      4.799647   463A      4.829059  
     464A      4.837039   465A      4.849642   466A      4.878339  
     467A      4.900706   468A      4.915197   469A      4.926128  
     470A      4.960290   471A      4.970451   472A      4.990667  
     473A      5.020271   474A      5.028854   475A      5.046880  
     476A      5.084613   477A      5.124994   478A      5.130944  
     479A      5.140166   480A      5.157031   481A      5.175879  
     482A      5.191818   483A      5.196733   484A      5.253647  
     485A      5.267605   486A      5.294338   487A      5.320604  
     488A      5.361439   489A      5.416459   490A      5.424725  
     491A      5.485250   492A      5.491192   493A      5.518632  
     494A      5.563069   495A      5.579805   496A      5.631571  
     497A      5.643014   498A      5.650874   499A      5.670428  
     500A      5.702908   501A      5.709737   502A      5.740505  
     503A      5.758309   504A      5.792304   505A      5.803160  
     506A      5.841942   507A      5.873124   508A      5.887977  
     509A      5.927256   510A      5.999734   511A      6.021826  
     512A      6.104840   513A      6.114292   514A      6.167244  
     515A      6.170855   516A      6.178823   517A      6.202545  
     518A      6.279440   519A      6.312023   520A      6.313020  
     521A      6.356900   522A      6.445531   523A      6.617952  
     524A      6.630566   525A      6.686534   526A      6.724258  
     527A      6.733913   528A      6.754606   529A      6.764915  
     530A      6.782973   531A      6.866340   532A      6.878220  
     533A      6.904271   534A      6.959761   535A      7.020827  
     536A      7.031287   537A      7.183440   538A      7.199390  
     539A      7.218807   540A      7.417657   541A      7.433095  
     542A      7.662873   543A      7.691304   544A      7.782689  
     545A      7.821840   546A      7.919013   547A      8.025919  
     548A      9.263263   549A     15.947952   550A     16.081470  
     551A     16.411462   552A     16.960528   553A     17.736784  
     554A     18.484445   555A     19.403088   556A     20.296811  

    Final Occupation by Irrep:
              A 
    DOCC [    37 ]

  @DF-RHF Final Energy:  -774.27543006714734

   => Energetics <=

    Nuclear Repulsion Energy =            507.5092932394728109
    One-Electron Energy =               -2069.9190037394046158
    Two-Electron Energy =                 788.1342804327845215
    Total Energy =                       -774.2754300671473402

Computation Completed

*** tstop() called on node37.bme.utexas.edu at Tue Feb  2 01:52:35 2021
Module time:
	user time   =     270.66 seconds =       4.51 minutes
	system time =      57.42 seconds =       0.96 minutes
	total time  =         74 seconds =       1.23 minutes
Total time:
	user time   =     270.66 seconds =       4.51 minutes
	system time =      57.42 seconds =       0.96 minutes
	total time  =         74 seconds =       1.23 minutes
   => Loading Basis Set <=

    Name: (AUG-CC-PVTZ AUX)
    Role: RIFIT
    Keyword: DF_BASIS_MP2
    atoms 1     entry S          line   666 file /home/xy3866/psi4conda/share/psi4/basis/aug-cc-pvtz-ri.gbs 
    atoms 2     entry O          line   264 file /home/xy3866/psi4conda/share/psi4/basis/aug-cc-pvtz-ri.gbs 
    atoms 3-4   entry N          line   206 file /home/xy3866/psi4conda/share/psi4/basis/aug-cc-pvtz-ri.gbs 
    atoms 5-9   entry C          line   148 file /home/xy3866/psi4conda/share/psi4/basis/aug-cc-pvtz-ri.gbs 
    atoms 10-15 entry H          line    30 file /home/xy3866/psi4conda/share/psi4/basis/aug-cc-pvtz-ri.gbs 


*** tstart() called on node37.bme.utexas.edu
*** at Tue Feb  2 01:52:35 2021


  //>>>>>>>>>>>>>>>>>>>>>>>>>>>>>>>>>>>//
  //               DFMP2               //
  //<<<<<<<<<<<<<<<<<<<<<<<<<<<<<<<<<<<//

	 --------------------------------------------------------
	                          DF-MP2                         
	      2nd-Order Density-Fitted Moller-Plesset Theory     
	              RMP2 Wavefunction,   8 Threads             
	                                                         
	        Rob Parrish, Justin Turney, Andy Simmonett,      
	           Ed Hohenstein, and C. David Sherrill          
	 --------------------------------------------------------

   => Auxiliary Basis Set <=

  Basis Set: (AUG-CC-PVTZ AUX)
    Blend: AUG-CC-PVTZ-RI
    Number of shells: 345
    Number of basis function: 1271
    Number of Cartesian functions: 1609
    Spherical Harmonics?: true
    Max angular momentum: 4

	 --------------------------------------------------------
	                 NBF =   556, NAUX =  1271
	 --------------------------------------------------------
	   CLASS    FOCC     OCC    AOCC    AVIR     VIR    FVIR
	   PAIRS       0      37      37     519     519       0
	 --------------------------------------------------------

  DFHelper Memory: AOs need 2.795 GiB; user supplied 22.352 GiB. Using in-core AOs.


         ------------------------------------------------------------
                                     CPHF                           
                                  Rob Parrish                       
         ------------------------------------------------------------

  ==> Geometry <==

    Molecular point group: c1
    Full point group: C1

    Geometry (in Angstrom), charge = 0, multiplicity = 1:

       Center              X                  Y                   Z               Mass       
    ------------   -----------------  -----------------  -----------------  -----------------
         S            1.503462823697    -1.042118962768     0.000000943522    31.972071174400
         O           -1.471832176303    -1.520544962768    -0.000001056478    15.994914619570
         N           -2.060869176303     0.712409037232    -0.000000056478    14.003074004430
         N            0.640832923697     1.297857237232    -0.000001056478    14.003074004430
         C            0.237837823697     0.128419037232    -0.000000056478    12.000000000000
         C           -1.181520176303    -0.317676962768    -0.000001056478    12.000000000000
         C           -3.494711176303     0.503853037232     0.000000943522    12.000000000000
         C            2.643704823697     0.234463037232    -0.000000056478    12.000000000000
         C            1.998703823697     1.453223037232    -0.000000056478    12.000000000000
         H           -1.666367176303     1.646882037232     0.000000943522     1.007825032230
         H           -3.952531176303     0.942324037232    -0.891194056478     1.007825032230
         H           -3.952529176303     0.942316037232     0.891200943522     1.007825032230
         H           -3.665481176303    -0.572511962768    -0.000003056478     1.007825032230
         H            3.708871823697     0.042302037232     0.000000943522     1.007825032230
         H            2.492788823697     2.418683037232    -0.000000056478     1.007825032230

  Nuclear repulsion =  507.509293239472811
  Reference energy  = -774.275430067147340

  ==> Basis Set <==

  Basis Set: AUG-CC-PVTZ
    Blend: AUG-CC-PVTZ
    Number of shells: 182
    Number of basis function: 556
    Number of Cartesian functions: 649
    Spherical Harmonics?: true
    Max angular momentum: 3

  ==> CGRSolver (by Rob Parrish) <==

   Number of roots    =         1
   Preconditioning    =    JACOBI
   Convergence cutoff =     1E-06
   Maximum iterations =       100

  ==> CPHFRHamiltonian (by Rob Parrish) <== 

  ==> MemDFJK: Density-Fitted J/K Matrices <==

    J tasked:                   Yes
    K tasked:                   Yes
    wK tasked:                   No
    OpenMP threads:               8
    Memory [MiB]:             22888
    Algorithm:                 Disk
    Schwarz Cutoff:           1E-12
    Mask sparsity (%):       6.4334
    Fitting Condition:        1E-10

   => Auxiliary Basis Set <=

  Basis Set: (AUG-CC-PVTZ AUX)
    Blend: AUG-CC-PVTZ-JKFIT
    Number of shells: 366
    Number of basis function: 1254
    Number of Cartesian functions: 1558
    Spherical Harmonics?: true
    Max angular momentum: 4

  ==> CPHF Iterations <==

  => Iterations <=

             Iter  Converged  Remaining    Residual
  CGR           1          0          1   1.412E-01
  CGR           2          0          1   4.772E-02
  CGR           3          0          1   2.381E-02
  CGR           4          0          1   7.987E-03
  CGR           5          0          1   3.077E-03
  CGR           6          0          1   1.173E-03
  CGR           7          0          1   3.895E-04
  CGR           8          0          1   1.526E-04
  CGR           9          0          1   5.024E-05
  CGR          10          0          1   1.621E-05
  CGR          11          0          1   5.979E-06
  CGR          12          0          1   2.100E-06
  CGR          13          1          0   9.842E-07

    CGRSolver converged.

	-----------------------------------------------------------
	 ==================> DF-MP2 Energies <==================== 
	-----------------------------------------------------------
	 Reference Energy          =    -774.2754300671473402 [Eh]
	 Singles Energy            =      -0.0000000000000000 [Eh]
	 Same-Spin Energy          =      -0.4567038962026231 [Eh]
	 Opposite-Spin Energy      =      -1.3649832757518965 [Eh]
	 Correlation Energy        =      -1.8216871719545196 [Eh]
	 Total Energy              =    -776.0971172391018627 [Eh]
	-----------------------------------------------------------
	 ================> DF-SCS-MP2 Energies <================== 
	-----------------------------------------------------------
	 SCS Same-Spin Scale       =       0.3333333333333333 [-]
	 SCS Opposite-Spin Scale   =       1.2000000000000000 [-]
	 SCS Same-Spin Energy      =      -0.1522346320675410 [Eh]
	 SCS Opposite-Spin Energy  =      -1.6379799309022758 [Eh]
	 SCS Correlation Energy    =      -1.7902145629698167 [Eh]
	 SCS Total Energy          =    -776.0656446301171627 [Eh]
	-----------------------------------------------------------



Properties will be evaluated at  -0.000000,   0.000000,   0.000000 [a0]

Properties computed using the MP2 density matrix

  Nuclear Dipole Moment: [e a0]
     X:    -6.5586      Y:     5.0404      Z:     0.0000

  Electronic Dipole Moment: [e a0]
     X:     6.9309      Y:    -3.9398      Z:    -0.0000

  Dipole Moment: [e a0]
     X:     0.3723      Y:     1.1006      Z:     0.0000     Total:     1.1619

  Dipole Moment: [D]
     X:     0.9463      Y:     2.7976      Z:     0.0000     Total:     2.9533


*** tstop() called on node37.bme.utexas.edu at Tue Feb  2 01:55:04 2021
Module time:
	user time   =     725.29 seconds =      12.09 minutes
	system time =      84.85 seconds =       1.41 minutes
	total time  =        149 seconds =       2.48 minutes
Total time:
	user time   =     996.13 seconds =      16.60 minutes
	system time =     142.27 seconds =       2.37 minutes
	total time  =        223 seconds =       3.72 minutes

    Psi4 stopped on: Tuesday, 02 February 2021 01:55AM
    Psi4 wall time for execution: 0:03:43.62

*** Psi4 exiting successfully. Buy a developer a beer!
