7342                                                                    
Freq      RMP2-FC                                                     6-31G(d)            
Number of atoms                            I               20
Info1-9                                    I   N=           9
          32          30        1002           0           0         100
           6           2           1
Charge                                     I                0
Multiplicity                               I                1
Number of electrons                        I               64
Number of alpha electrons                  I               32
Number of beta electrons                   I               32
Number of basis functions                  I              144
Number of independent functions            I              144
Number of point charges in /Mol/           I                0
Number of translation vectors              I                0
Atomic numbers                             I   N=          20
           8           8           6           6           6           6
           6           6           1           1           1           1
           1           1           1           1           1           1
           1           1
Nuclear charges                            R   N=          20
  8.00000000E+00  8.00000000E+00  6.00000000E+00  6.00000000E+00  6.00000000E+00
  6.00000000E+00  6.00000000E+00  6.00000000E+00  1.00000000E+00  1.00000000E+00
  1.00000000E+00  1.00000000E+00  1.00000000E+00  1.00000000E+00  1.00000000E+00
  1.00000000E+00  1.00000000E+00  1.00000000E+00  1.00000000E+00  1.00000000E+00
Current cartesian coordinates              R   N=          60
 -1.67141352E+00  4.74737484E-01 -4.89412696E-01  4.90274914E-01 -2.90220521E+00
  1.04692944E+00  2.78761265E+00  6.61387429E-01 -7.54190254E-01  3.11603656E+00
  2.91411274E+00  1.04002914E+00  5.11671815E+00 -1.03079939E+00 -8.01070324E-01
  4.77695582E-01 -8.30886396E-01  2.90789637E-02 -3.98096951E+00 -7.69859310E-01
  2.92075348E-01 -6.12976193E+00  9.70216038E-01 -4.25150465E-01  2.40899367E+00
  1.39733074E+00 -2.65431418E+00  4.76205759E+00  4.03293628E+00  4.81721828E-01
  3.41775213E+00  2.24846231E+00  2.97541061E+00  1.45045052E+00  4.13280847E+00
  1.01347083E+00  6.76692571E+00  5.07233234E-02 -1.41777089E+00  4.85775422E+00
 -2.62530313E+00 -2.08735699E+00  5.48820131E+00 -1.79367085E+00  1.08093475E+00
 -4.10598738E+00 -2.60202279E+00 -6.55209113E-01 -3.89876497E+00 -1.11717366E+00
  2.32750474E+00 -7.93441652E+00  1.24146369E-01  1.21656296E-01 -5.93995811E+00
  2.78885576E+00  5.31780355E-01 -6.14788830E+00  1.29762234E+00 -2.46259669E+00
Force Field                                I                0
Int Atom Types                             I   N=          20
           0           0           0           0           0           0
           0           0           0           0           0           0
           0           0           0           0           0           0
           0           0
MM charges                                 R   N=          20
  0.00000000E+00  0.00000000E+00  0.00000000E+00  0.00000000E+00  0.00000000E+00
  0.00000000E+00  0.00000000E+00  0.00000000E+00  0.00000000E+00  0.00000000E+00
  0.00000000E+00  0.00000000E+00  0.00000000E+00  0.00000000E+00  0.00000000E+00
  0.00000000E+00  0.00000000E+00  0.00000000E+00  0.00000000E+00  0.00000000E+00
Integer atomic weights                     I   N=          20
          16          16          12          12          12          12
          12          12           1           1           1           1
           1           1           1           1           1           1
           1           1
Real atomic weights                        R   N=          20
  1.59949146E+01  1.59949146E+01  1.20000000E+01  1.20000000E+01  1.20000000E+01
  1.20000000E+01  1.20000000E+01  1.20000000E+01  1.00782504E+00  1.00782504E+00
  1.00782504E+00  1.00782504E+00  1.00782504E+00  1.00782504E+00  1.00782504E+00
  1.00782504E+00  1.00782504E+00  1.00782504E+00  1.00782504E+00  1.00782504E+00
Atom fragment info                         I   N=          20
           0           0           0           0           0           0
           0           0           0           0           0           0
           0           0           0           0           0           0
           0           0
Atom residue num                           I   N=          20
           0           0           0           0           0           0
           0           0           0           0           0           0
           0           0           0           0           0           0
           0           0
Nuclear spins                              I   N=          20
           0           0           0           0           0           0
           0           0           1           1           1           1
           1           1           1           1           1           1
           1           1
Nuclear ZEff                               R   N=          20
 -5.60000000E+00 -5.60000000E+00 -3.60000000E+00 -3.60000000E+00 -3.60000000E+00
 -3.60000000E+00 -3.60000000E+00 -3.60000000E+00 -1.00000000E+00 -1.00000000E+00
 -1.00000000E+00 -1.00000000E+00 -1.00000000E+00 -1.00000000E+00 -1.00000000E+00
 -1.00000000E+00 -1.00000000E+00 -1.00000000E+00 -1.00000000E+00 -1.00000000E+00
Nuclear QMom                               R   N=          20
  0.00000000E+00  0.00000000E+00  0.00000000E+00  0.00000000E+00  0.00000000E+00
  0.00000000E+00  0.00000000E+00  0.00000000E+00  0.00000000E+00  0.00000000E+00
  0.00000000E+00  0.00000000E+00  0.00000000E+00  0.00000000E+00  0.00000000E+00
  0.00000000E+00  0.00000000E+00  0.00000000E+00  0.00000000E+00  0.00000000E+00
Nuclear GFac                               R   N=          20
  0.00000000E+00  0.00000000E+00  0.00000000E+00  0.00000000E+00  0.00000000E+00
  0.00000000E+00  0.00000000E+00  0.00000000E+00  2.79284600E+00  2.79284600E+00
  2.79284600E+00  2.79284600E+00  2.79284600E+00  2.79284600E+00  2.79284600E+00
  2.79284600E+00  2.79284600E+00  2.79284600E+00  2.79284600E+00  2.79284600E+00
MicOpt                                     I   N=          20
          -1          -1          -1          -1          -1          -1
          -1          -1          -1          -1          -1          -1
          -1          -1          -1          -1          -1          -1
          -1          -1
Number of contracted shells                I               56
Number of primitive shells                 I              136
Pure/Cartesian d shells                    I                1
Pure/Cartesian f shells                    I                0
Highest angular momentum                   I                2
Largest degree of contraction              I                6
Shell types                                I   N=          56
           0          -1          -1           2           0          -1
          -1           2           0          -1          -1           2
           0          -1          -1           2           0          -1
          -1           2           0          -1          -1           2
           0          -1          -1           2           0          -1
          -1           2           0           0           0           0
           0           0           0           0           0           0
           0           0           0           0           0           0
           0           0           0           0           0           0
           0           0
Number of primitives per shell             I   N=          56
           6           3           1           1           6           3
           1           1           6           3           1           1
           6           3           1           1           6           3
           1           1           6           3           1           1
           6           3           1           1           6           3
           1           1           3           1           3           1
           3           1           3           1           3           1
           3           1           3           1           3           1
           3           1           3           1           3           1
           3           1
Shell to atom map                          I   N=          56
           1           1           1           1           2           2
           2           2           3           3           3           3
           4           4           4           4           5           5
           5           5           6           6           6           6
           7           7           7           7           8           8
           8           8           9           9          10          10
          11          11          12          12          13          13
          14          14          15          15          16          16
          17          17          18          18          19          19
          20          20
Primitive exponents                        R   N=         136
  5.48467166E+03  8.25234946E+02  1.88046958E+02  5.29645000E+01  1.68975704E+01
  5.79963534E+00  1.55396162E+01  3.59993359E+00  1.01376175E+00  2.70005823E-01
  8.00000000E-01  5.48467166E+03  8.25234946E+02  1.88046958E+02  5.29645000E+01
  1.68975704E+01  5.79963534E+00  1.55396162E+01  3.59993359E+00  1.01376175E+00
  2.70005823E-01  8.00000000E-01  3.04752488E+03  4.57369518E+02  1.03948685E+02
  2.92101553E+01  9.28666296E+00  3.16392696E+00  7.86827235E+00  1.88128854E+00
  5.44249258E-01  1.68714478E-01  8.00000000E-01  3.04752488E+03  4.57369518E+02
  1.03948685E+02  2.92101553E+01  9.28666296E+00  3.16392696E+00  7.86827235E+00
  1.88128854E+00  5.44249258E-01  1.68714478E-01  8.00000000E-01  3.04752488E+03
  4.57369518E+02  1.03948685E+02  2.92101553E+01  9.28666296E+00  3.16392696E+00
  7.86827235E+00  1.88128854E+00  5.44249258E-01  1.68714478E-01  8.00000000E-01
  3.04752488E+03  4.57369518E+02  1.03948685E+02  2.92101553E+01  9.28666296E+00
  3.16392696E+00  7.86827235E+00  1.88128854E+00  5.44249258E-01  1.68714478E-01
  8.00000000E-01  3.04752488E+03  4.57369518E+02  1.03948685E+02  2.92101553E+01
  9.28666296E+00  3.16392696E+00  7.86827235E+00  1.88128854E+00  5.44249258E-01
  1.68714478E-01  8.00000000E-01  3.04752488E+03  4.57369518E+02  1.03948685E+02
  2.92101553E+01  9.28666296E+00  3.16392696E+00  7.86827235E+00  1.88128854E+00
  5.44249258E-01  1.68714478E-01  8.00000000E-01  1.87311370E+01  2.82539436E+00
  6.40121692E-01  1.61277759E-01  1.87311370E+01  2.82539436E+00  6.40121692E-01
  1.61277759E-01  1.87311370E+01  2.82539436E+00  6.40121692E-01  1.61277759E-01
  1.87311370E+01  2.82539436E+00  6.40121692E-01  1.61277759E-01  1.87311370E+01
  2.82539436E+00  6.40121692E-01  1.61277759E-01  1.87311370E+01  2.82539436E+00
  6.40121692E-01  1.61277759E-01  1.87311370E+01  2.82539436E+00  6.40121692E-01
  1.61277759E-01  1.87311370E+01  2.82539436E+00  6.40121692E-01  1.61277759E-01
  1.87311370E+01  2.82539436E+00  6.40121692E-01  1.61277759E-01  1.87311370E+01
  2.82539436E+00  6.40121692E-01  1.61277759E-01  1.87311370E+01  2.82539436E+00
  6.40121692E-01  1.61277759E-01  1.87311370E+01  2.82539436E+00  6.40121692E-01
  1.61277759E-01
Contraction coefficients                   R   N=         136
  1.83107443E-03  1.39501722E-02  6.84450781E-02  2.32714336E-01  4.70192898E-01
  3.58520853E-01 -1.10777550E-01 -1.48026263E-01  1.13076702E+00  1.00000000E+00
  1.00000000E+00  1.83107443E-03  1.39501722E-02  6.84450781E-02  2.32714336E-01
  4.70192898E-01  3.58520853E-01 -1.10777550E-01 -1.48026263E-01  1.13076702E+00
  1.00000000E+00  1.00000000E+00  1.83473713E-03  1.40373228E-02  6.88426223E-02
  2.32184443E-01  4.67941348E-01  3.62311985E-01 -1.19332420E-01 -1.60854152E-01
  1.14345644E+00  1.00000000E+00  1.00000000E+00  1.83473713E-03  1.40373228E-02
  6.88426223E-02  2.32184443E-01  4.67941348E-01  3.62311985E-01 -1.19332420E-01
 -1.60854152E-01  1.14345644E+00  1.00000000E+00  1.00000000E+00  1.83473713E-03
  1.40373228E-02  6.88426223E-02  2.32184443E-01  4.67941348E-01  3.62311985E-01
 -1.19332420E-01 -1.60854152E-01  1.14345644E+00  1.00000000E+00  1.00000000E+00
  1.83473713E-03  1.40373228E-02  6.88426223E-02  2.32184443E-01  4.67941348E-01
  3.62311985E-01 -1.19332420E-01 -1.60854152E-01  1.14345644E+00  1.00000000E+00
  1.00000000E+00  1.83473713E-03  1.40373228E-02  6.88426223E-02  2.32184443E-01
  4.67941348E-01  3.62311985E-01 -1.19332420E-01 -1.60854152E-01  1.14345644E+00
  1.00000000E+00  1.00000000E+00  1.83473713E-03  1.40373228E-02  6.88426223E-02
  2.32184443E-01  4.67941348E-01  3.62311985E-01 -1.19332420E-01 -1.60854152E-01
  1.14345644E+00  1.00000000E+00  1.00000000E+00  3.34946043E-02  2.34726953E-01
  8.13757326E-01  1.00000000E+00  3.34946043E-02  2.34726953E-01  8.13757326E-01
  1.00000000E+00  3.34946043E-02  2.34726953E-01  8.13757326E-01  1.00000000E+00
  3.34946043E-02  2.34726953E-01  8.13757326E-01  1.00000000E+00  3.34946043E-02
  2.34726953E-01  8.13757326E-01  1.00000000E+00  3.34946043E-02  2.34726953E-01
  8.13757326E-01  1.00000000E+00  3.34946043E-02  2.34726953E-01  8.13757326E-01
  1.00000000E+00  3.34946043E-02  2.34726953E-01  8.13757326E-01  1.00000000E+00
  3.34946043E-02  2.34726953E-01  8.13757326E-01  1.00000000E+00  3.34946043E-02
  2.34726953E-01  8.13757326E-01  1.00000000E+00  3.34946043E-02  2.34726953E-01
  8.13757326E-01  1.00000000E+00  3.34946043E-02  2.34726953E-01  8.13757326E-01
  1.00000000E+00
P(S=P) Contraction coefficients            R   N=         136
  0.00000000E+00  0.00000000E+00  0.00000000E+00  0.00000000E+00  0.00000000E+00
  0.00000000E+00  7.08742682E-02  3.39752839E-01  7.27158577E-01  1.00000000E+00
  0.00000000E+00  0.00000000E+00  0.00000000E+00  0.00000000E+00  0.00000000E+00
  0.00000000E+00  0.00000000E+00  7.08742682E-02  3.39752839E-01  7.27158577E-01
  1.00000000E+00  0.00000000E+00  0.00000000E+00  0.00000000E+00  0.00000000E+00
  0.00000000E+00  0.00000000E+00  0.00000000E+00  6.89990666E-02  3.16423961E-01
  7.44308291E-01  1.00000000E+00  0.00000000E+00  0.00000000E+00  0.00000000E+00
  0.00000000E+00  0.00000000E+00  0.00000000E+00  0.00000000E+00  6.89990666E-02
  3.16423961E-01  7.44308291E-01  1.00000000E+00  0.00000000E+00  0.00000000E+00
  0.00000000E+00  0.00000000E+00  0.00000000E+00  0.00000000E+00  0.00000000E+00
  6.89990666E-02  3.16423961E-01  7.44308291E-01  1.00000000E+00  0.00000000E+00
  0.00000000E+00  0.00000000E+00  0.00000000E+00  0.00000000E+00  0.00000000E+00
  0.00000000E+00  6.89990666E-02  3.16423961E-01  7.44308291E-01  1.00000000E+00
  0.00000000E+00  0.00000000E+00  0.00000000E+00  0.00000000E+00  0.00000000E+00
  0.00000000E+00  0.00000000E+00  6.89990666E-02  3.16423961E-01  7.44308291E-01
  1.00000000E+00  0.00000000E+00  0.00000000E+00  0.00000000E+00  0.00000000E+00
  0.00000000E+00  0.00000000E+00  0.00000000E+00  6.89990666E-02  3.16423961E-01
  7.44308291E-01  1.00000000E+00  0.00000000E+00  0.00000000E+00  0.00000000E+00
  0.00000000E+00  0.00000000E+00  0.00000000E+00  0.00000000E+00  0.00000000E+00
  0.00000000E+00  0.00000000E+00  0.00000000E+00  0.00000000E+00  0.00000000E+00
  0.00000000E+00  0.00000000E+00  0.00000000E+00  0.00000000E+00  0.00000000E+00
  0.00000000E+00  0.00000000E+00  0.00000000E+00  0.00000000E+00  0.00000000E+00
  0.00000000E+00  0.00000000E+00  0.00000000E+00  0.00000000E+00  0.00000000E+00
  0.00000000E+00  0.00000000E+00  0.00000000E+00  0.00000000E+00  0.00000000E+00
  0.00000000E+00  0.00000000E+00  0.00000000E+00  0.00000000E+00  0.00000000E+00
  0.00000000E+00  0.00000000E+00  0.00000000E+00  0.00000000E+00  0.00000000E+00
  0.00000000E+00  0.00000000E+00  0.00000000E+00  0.00000000E+00  0.00000000E+00
  0.00000000E+00
Coordinates of each shell                  R   N=         168
 -1.67141352E+00  4.74737484E-01 -4.89412696E-01 -1.67141352E+00  4.74737484E-01
 -4.89412696E-01 -1.67141352E+00  4.74737484E-01 -4.89412696E-01 -1.67141352E+00
  4.74737484E-01 -4.89412696E-01  4.90274914E-01 -2.90220521E+00  1.04692944E+00
  4.90274914E-01 -2.90220521E+00  1.04692944E+00  4.90274914E-01 -2.90220521E+00
  1.04692944E+00  4.90274914E-01 -2.90220521E+00  1.04692944E+00  2.78761265E+00
  6.61387429E-01 -7.54190254E-01  2.78761265E+00  6.61387429E-01 -7.54190254E-01
  2.78761265E+00  6.61387429E-01 -7.54190254E-01  2.78761265E+00  6.61387429E-01
 -7.54190254E-01  3.11603656E+00  2.91411274E+00  1.04002914E+00  3.11603656E+00
  2.91411274E+00  1.04002914E+00  3.11603656E+00  2.91411274E+00  1.04002914E+00
  3.11603656E+00  2.91411274E+00  1.04002914E+00  5.11671815E+00 -1.03079939E+00
 -8.01070324E-01  5.11671815E+00 -1.03079939E+00 -8.01070324E-01  5.11671815E+00
 -1.03079939E+00 -8.01070324E-01  5.11671815E+00 -1.03079939E+00 -8.01070324E-01
  4.77695582E-01 -8.30886396E-01  2.90789637E-02  4.77695582E-01 -8.30886396E-01
  2.90789637E-02  4.77695582E-01 -8.30886396E-01  2.90789637E-02  4.77695582E-01
 -8.30886396E-01  2.90789637E-02 -3.98096951E+00 -7.69859310E-01  2.92075348E-01
 -3.98096951E+00 -7.69859310E-01  2.92075348E-01 -3.98096951E+00 -7.69859310E-01
  2.92075348E-01 -3.98096951E+00 -7.69859310E-01  2.92075348E-01 -6.12976193E+00
  9.70216038E-01 -4.25150465E-01 -6.12976193E+00  9.70216038E-01 -4.25150465E-01
 -6.12976193E+00  9.70216038E-01 -4.25150465E-01 -6.12976193E+00  9.70216038E-01
 -4.25150465E-01  2.40899367E+00  1.39733074E+00 -2.65431418E+00  2.40899367E+00
  1.39733074E+00 -2.65431418E+00  4.76205759E+00  4.03293628E+00  4.81721828E-01
  4.76205759E+00  4.03293628E+00  4.81721828E-01  3.41775213E+00  2.24846231E+00
  2.97541061E+00  3.41775213E+00  2.24846231E+00  2.97541061E+00  1.45045052E+00
  4.13280847E+00  1.01347083E+00  1.45045052E+00  4.13280847E+00  1.01347083E+00
  6.76692571E+00  5.07233234E-02 -1.41777089E+00  6.76692571E+00  5.07233234E-02
 -1.41777089E+00  4.85775422E+00 -2.62530313E+00 -2.08735699E+00  4.85775422E+00
 -2.62530313E+00 -2.08735699E+00  5.48820131E+00 -1.79367085E+00  1.08093475E+00
  5.48820131E+00 -1.79367085E+00  1.08093475E+00 -4.10598738E+00 -2.60202279E+00
 -6.55209113E-01 -4.10598738E+00 -2.60202279E+00 -6.55209113E-01 -3.89876497E+00
 -1.11717366E+00  2.32750474E+00 -3.89876497E+00 -1.11717366E+00  2.32750474E+00
 -7.93441652E+00  1.24146369E-01  1.21656296E-01 -7.93441652E+00  1.24146369E-01
  1.21656296E-01 -5.93995811E+00  2.78885576E+00  5.31780355E-01 -5.93995811E+00
  2.78885576E+00  5.31780355E-01 -6.14788830E+00  1.29762234E+00 -2.46259669E+00
 -6.14788830E+00  1.29762234E+00 -2.46259669E+00
Constraint Structure                       R   N=          60
 -1.67141352E+00  4.74737484E-01 -4.89412696E-01  4.90274914E-01 -2.90220521E+00
  1.04692944E+00  2.78761265E+00  6.61387429E-01 -7.54190254E-01  3.11603656E+00
  2.91411274E+00  1.04002914E+00  5.11671815E+00 -1.03079939E+00 -8.01070324E-01
  4.77695582E-01 -8.30886396E-01  2.90789637E-02 -3.98096951E+00 -7.69859310E-01
  2.92075348E-01 -6.12976193E+00  9.70216038E-01 -4.25150465E-01  2.40899367E+00
  1.39733074E+00 -2.65431418E+00  4.76205759E+00  4.03293628E+00  4.81721828E-01
  3.41775213E+00  2.24846231E+00  2.97541061E+00  1.45045052E+00  4.13280847E+00
  1.01347083E+00  6.76692571E+00  5.07233234E-02 -1.41777089E+00  4.85775422E+00
 -2.62530313E+00 -2.08735699E+00  5.48820131E+00 -1.79367085E+00  1.08093475E+00
 -4.10598738E+00 -2.60202279E+00 -6.55209113E-01 -3.89876497E+00 -1.11717366E+00
  2.32750474E+00 -7.93441652E+00  1.24146369E-01  1.21656296E-01 -5.93995811E+00
  2.78885576E+00  5.31780355E-01 -6.14788830E+00  1.29762234E+00 -2.46259669E+00
Num ILSW                                   I              100
ILSW                                       I   N=         100
           0           1           0           0           2           0
           0           0           0           0           0          -1
           0           0           0           0           0           0
           0           0           0           0           1           0
           1           0           0           0           0           0
           0           0      100000           0          -1           0
           0           0           0           0           0           0
           0           0           0           1           1           0
           0           0           1           0           0           0
           0           0           4          40           0           0
           0           0           0           0           0           0
           0           0           0           0           0           0
           0           0           0           0           0           0
           0           0           0           0           0           0
           0           0           0           0           0           0
           0           0           0           0           0           0
           0           0           0           0
Num RLSW                                   I               40
RLSW                                       R   N=          40
  1.00000000E+00  1.00000000E+00  1.00000000E+00  1.00000000E+00  1.00000000E+00
  0.00000000E+00  0.00000000E+00  1.00000000E+00  0.00000000E+00  0.00000000E+00
  0.00000000E+00  0.00000000E+00  1.00000000E+00  0.00000000E+00  0.00000000E+00
  0.00000000E+00  0.00000000E+00  1.00000000E+00  0.00000000E+00  0.00000000E+00
  0.00000000E+00  0.00000000E+00  1.00000000E+00  0.00000000E+00  0.00000000E+00
  0.00000000E+00  0.00000000E+00  1.00000000E+00  0.00000000E+00  0.00000000E+00
  0.00000000E+00  0.00000000E+00  0.00000000E+00  0.00000000E+00  0.00000000E+00
  0.00000000E+00  0.00000000E+00  0.00000000E+00  1.00000000E+00  1.00000000E+00
MxBond                                     I                4
NBond                                      I   N=          20
           2           1           4           4           4           3
           4           4           1           1           1           1
           1           1           1           1           1           1
           1           1
IBond                                      I   N=          80
           6           7           0           0           6           0
           0           0           4           5           6           9
           3          10          11          12           3          13
          14          15           1           2           3           0
           1           8          16          17           7          18
          19          20           3           0           0           0
           4           0           0           0           4           0
           0           0           4           0           0           0
           5           0           0           0           5           0
           0           0           5           0           0           0
           7           0           0           0           7           0
           0           0           8           0           0           0
           8           0           0           0           8           0
           0           0
RBond                                      R   N=          80
  1.50000000E+00  1.00000000E+00  0.00000000E+00  0.00000000E+00  2.00000000E+00
  0.00000000E+00  0.00000000E+00  0.00000000E+00  1.00000000E+00  1.00000000E+00
  1.00000000E+00  1.00000000E+00  1.00000000E+00  1.00000000E+00  1.00000000E+00
  1.00000000E+00  1.00000000E+00  1.00000000E+00  1.00000000E+00  1.00000000E+00
  1.50000000E+00  2.00000000E+00  1.00000000E+00  0.00000000E+00  1.00000000E+00
  1.00000000E+00  1.00000000E+00  1.00000000E+00  1.00000000E+00  1.00000000E+00
  1.00000000E+00  1.00000000E+00  1.00000000E+00  0.00000000E+00  0.00000000E+00
  0.00000000E+00  1.00000000E+00  0.00000000E+00  0.00000000E+00  0.00000000E+00
  1.00000000E+00  0.00000000E+00  0.00000000E+00  0.00000000E+00  1.00000000E+00
  0.00000000E+00  0.00000000E+00  0.00000000E+00  1.00000000E+00  0.00000000E+00
  0.00000000E+00  0.00000000E+00  1.00000000E+00  0.00000000E+00  0.00000000E+00
  0.00000000E+00  1.00000000E+00  0.00000000E+00  0.00000000E+00  0.00000000E+00
  1.00000000E+00  0.00000000E+00  0.00000000E+00  0.00000000E+00  1.00000000E+00
  0.00000000E+00  0.00000000E+00  0.00000000E+00  1.00000000E+00  0.00000000E+00
  0.00000000E+00  0.00000000E+00  1.00000000E+00  0.00000000E+00  0.00000000E+00
  0.00000000E+00  1.00000000E+00  0.00000000E+00  0.00000000E+00  0.00000000E+00
Virial Ratio                               R      2.002248068117178E+00
SCF Energy                                 R     -3.839421309760313E+02
MP2 Energy                                 R     -3.850783279246853E+02
Total Energy                               R     -3.850783279246853E+02
Post-SCF wavefunction norm                 R      1.648250390270630E+00
RMS Force                                  R      2.551463360659931E-07
RMS Density                                R      1.845509614132505E-09
External E-field                           R   N=          35
  0.00000000E+00  0.00000000E+00  0.00000000E+00  0.00000000E+00  0.00000000E+00
  0.00000000E+00  0.00000000E+00  0.00000000E+00  0.00000000E+00  0.00000000E+00
  0.00000000E+00  0.00000000E+00  0.00000000E+00  0.00000000E+00  0.00000000E+00
  0.00000000E+00  0.00000000E+00  0.00000000E+00  0.00000000E+00  0.00000000E+00
  0.00000000E+00  0.00000000E+00  0.00000000E+00  0.00000000E+00  0.00000000E+00
  0.00000000E+00  0.00000000E+00  0.00000000E+00  0.00000000E+00  0.00000000E+00
  0.00000000E+00  0.00000000E+00  0.00000000E+00  0.00000000E+00  0.00000000E+00
IOpCl                                      I                0
IROHF                                      I                0
Alpha Orbital Energies                     R   N=         144
 -2.06036763E+01 -2.05485322E+01 -1.13769081E+01 -1.12877254E+01 -1.12461215E+01
 -1.12273709E+01 -1.12251510E+01 -1.12166715E+01 -1.44659503E+00 -1.34571002E+00
 -1.09285767E+00 -1.03409022E+00 -9.37919544E-01 -8.93493049E-01 -8.28492714E-01
 -7.58842291E-01 -6.95007930E-01 -6.74450473E-01 -6.59029575E-01 -6.20932414E-01
 -5.85329039E-01 -5.80158978E-01 -5.56217097E-01 -5.48134300E-01 -5.43681500E-01
 -5.17455184E-01 -5.06865989E-01 -5.04621010E-01 -4.88847088E-01 -4.79225804E-01
 -4.50436915E-01 -4.31394781E-01  1.82970062E-01  2.31731090E-01  2.47053065E-01
  2.84340062E-01  2.92057231E-01  2.93424248E-01  3.01255234E-01  3.05376546E-01
  3.10710703E-01  3.21977263E-01  3.35557524E-01  3.44840492E-01  3.50785136E-01
  3.56912872E-01  4.02328883E-01  4.10525698E-01  4.16010970E-01  4.59178878E-01
  5.20743367E-01  5.57345757E-01  7.00604738E-01  7.17615293E-01  7.36235612E-01
  7.40354293E-01  7.45279767E-01  7.63174933E-01  7.69955990E-01  8.23420710E-01
  8.52614909E-01  8.74255692E-01  9.01288833E-01  9.34767645E-01  9.46989701E-01
  9.64679252E-01  9.91380572E-01  1.00560495E+00  1.01692024E+00  1.05067677E+00
  1.09339837E+00  1.11511511E+00  1.12216216E+00  1.14786628E+00  1.15379061E+00
  1.15819902E+00  1.17282952E+00  1.18041121E+00  1.18468524E+00  1.20047832E+00
  1.20706142E+00  1.22033235E+00  1.23641370E+00  1.25136503E+00  1.27119920E+00
  1.29712237E+00  1.37195752E+00  1.41424160E+00  1.42892322E+00  1.52941291E+00
  1.56883361E+00  1.63110598E+00  1.64091158E+00  1.67628681E+00  1.73915075E+00
  1.76562283E+00  1.79533607E+00  1.87833095E+00  1.93189333E+00  1.96413909E+00
  2.02437040E+00  2.03343467E+00  2.06959800E+00  2.11208241E+00  2.15464499E+00
  2.15932967E+00  2.19972828E+00  2.21388216E+00  2.25379087E+00  2.27557509E+00
  2.30874883E+00  2.32629573E+00  2.36075470E+00  2.36887719E+00  2.40958980E+00
  2.46560198E+00  2.47094669E+00  2.51786881E+00  2.58947504E+00  2.59212733E+00
  2.59780820E+00  2.65165669E+00  2.66408887E+00  2.70726756E+00  2.72062534E+00
  2.74160378E+00  2.85082073E+00  2.91359600E+00  2.95657197E+00  3.00388028E+00
  3.01757805E+00  3.07567974E+00  3.16805535E+00  3.31881497E+00  3.42797707E+00
  3.53792459E+00  4.42579742E+00  4.55467834E+00  4.60589893E+00  4.68379176E+00
  4.73291534E+00  4.76069500E+00  4.86455048E+00  5.05385949E+00
Alpha MO coefficients                      R   N=       20736
  9.94653081E-01  2.12525513E-02  1.02846889E-04 -1.08566090E-03  5.40080713E-04
  3.63910965E-03  6.21441331E-05  7.28223246E-04 -3.58129838E-04 -4.18773881E-03
 -4.02736162E-03 -3.94324625E-03 -3.23777895E-05  3.82576243E-05  7.53476448E-05
 -2.96845274E-04  2.38783001E-05  2.47016902E-05 -2.58650600E-05  1.50578929E-05
 -2.16895915E-04  9.72011108E-05 -7.04940482E-05  1.27927831E-05  5.50203296E-06
 -2.11881576E-05 -1.06443660E-06  6.28371527E-05 -3.24843558E-05  4.67800913E-06
 -6.23305391E-06  2.09062932E-05 -1.45027397E-05  2.79097832E-05 -1.86556129E-06
  4.36366520E-04  3.25856058E-04 -2.49999500E-04  7.31243855E-05 -8.60227515E-05
 -3.54018989E-07 -2.77949636E-05 -2.09482613E-05  7.07390502E-06  2.72404385E-06
  8.54605849E-08 -7.82289359E-06 -2.17513088E-05 -2.72214732E-05  4.17651597E-06
  1.13850261E-04 -4.39328384E-05  1.84819381E-04 -5.81451283E-05  1.35550513E-05
 -1.05221955E-05  5.00612071E-06  1.45681984E-05  5.70503840E-06 -7.72395667E-06
  3.58476746E-06  2.89662443E-05  1.84410549E-05 -1.09062079E-05 -3.11822128E-06
 -3.81933984E-04  1.26965880E-04 -1.00296966E-04 -5.77102918E-06 -8.82523380E-06
  1.52906128E-06  7.97133993E-07  6.02234841E-06  4.83497088E-06 -5.59614804E-07
 -1.00201805E-06  3.57277747E-04 -3.09733026E-04  1.62032822E-04 -6.72855686E-05
  5.97517185E-05 -2.19570906E-04 -1.61740330E-04  1.25691653E-04 -1.99347847E-05
 -1.60231000E-05 -4.36879196E-05  3.70030974E-05 -1.74602283E-05 -2.23329684E-05
 -2.15107124E-05  1.30175051E-04  3.21799211E-04  1.86151344E-04 -1.14027468E-04
  3.98354911E-04 -1.52501993E-05 -2.52954544E-05  1.67300089E-06  1.21845818E-04