
    -----------------------------------------------------------------------
          Psi4: An Open-Source Ab Initio Electronic Structure Package
                               Psi4 1.3.2 release

                         Git: Rev {HEAD} ecbda83 


    R. M. Parrish, L. A. Burns, D. G. A. Smith, A. C. Simmonett,
    A. E. DePrince III, E. G. Hohenstein, U. Bozkaya, A. Yu. Sokolov,
    R. Di Remigio, R. M. Richard, J. F. Gonthier, A. M. James,
    H. R. McAlexander, A. Kumar, M. Saitow, X. Wang, B. P. Pritchard,
    P. Verma, H. F. Schaefer III, K. Patkowski, R. A. King, E. F. Valeev,
    F. A. Evangelista, J. M. Turney, T. D. Crawford, and C. D. Sherrill,
    J. Chem. Theory Comput. 13(7) pp 3185--3197 (2017).
    (doi: 10.1021/acs.jctc.7b00174)


                         Additional Contributions by
    P. Kraus, H. Kruse, M. H. Lechner, M. C. Schieber, R. A. Shaw,
    A. Alenaizan, R. Galvelis, Z. L. Glick, S. Lehtola, and J. P. Misiewicz

    -----------------------------------------------------------------------


    Psi4 started on: Friday, 06 November 2020 04:20PM

    Process ID: 57526
    Host:       node142.bme.utexas.edu
    PSIDATADIR: /home/xy3866/psi4conda/share/psi4
    Memory:     500.0 MiB
    Threads:    8
    
  ==> Input File <==

--------------------------------------------------------------------------
#psi4
#
memory 32 gb

molecule  {
0 1
 Cl       -1.5564010    -1.5365640    -0.1122650
 Cl        2.4627330     0.0122270     0.0169400
 Cl       -1.0685510     1.8023780    -0.3470660
  C       -0.2087637    -0.6984683     0.4667737
  C        0.9355250    -0.6897000    -0.5828100
  C       -0.5154060     0.7427890     0.9710020
  H        0.2242670    -1.1996790     1.3778280
  H        0.6181320    -0.1210460    -1.4565390
  H        1.1355610    -1.7215610    -0.8700150
  H       -1.3207740     0.6750150     1.7029520
  H        0.3537730     1.2151890     1.4309750
units angstrom
no_reorient  #important for SAPT in psi4, default
symmetry c1  #important for SAPT in psi4, default
}

set PROPERTIES_ORIGIN ["COM"]
properties('MP2/aug-cc-pvtz', properties = ['dipole'])
--------------------------------------------------------------------------

  Memory set to  29.802 GiB by Python driver.
    SCF Algorithm Type (re)set to DF.

*** tstart() called on node142.bme.utexas.edu
*** at Fri Nov  6 16:20:50 2020

   => Loading Basis Set <=

    Name: AUG-CC-PVTZ
    Role: ORBITAL
    Keyword: BASIS
    atoms 1-3  entry CL         line   984 file /home/xy3866/psi4conda/share/psi4/basis/aug-cc-pvtz.gbs 
    atoms 4-6  entry C          line   235 file /home/xy3866/psi4conda/share/psi4/basis/aug-cc-pvtz.gbs 
    atoms 7-11 entry H          line    36 file /home/xy3866/psi4conda/share/psi4/basis/aug-cc-pvtz.gbs 


         ---------------------------------------------------------
                                   SCF
               by Justin Turney, Rob Parrish, Andy Simmonett
                          and Daniel G. A. Smith
                              RHF Reference
                        8 Threads,  30517 MiB Core
         ---------------------------------------------------------

  ==> Geometry <==

    Molecular point group: c1
    Full point group: C1

    Geometry (in Angstrom), charge = 0, multiplicity = 1:

       Center              X                  Y                   Z               Mass       
    ------------   -----------------  -----------------  -----------------  -----------------
         CL          -1.541892321977    -1.542162836991    -0.091654475780    34.968852682000
         CL           2.477241678023     0.006628163009     0.037550524220    34.968852682000
         CL          -1.054042321977     1.796779163009    -0.326455475780    34.968852682000
         C           -0.194255021977    -0.704067136991     0.487384224220    12.000000000000
         C            0.950033678023    -0.695298836991    -0.562199475780    12.000000000000
         C           -0.500897321977     0.737190163009     0.991612524220    12.000000000000
         H            0.238775678023    -1.205277836991     1.398438524220     1.007825032230
         H            0.632640678023    -0.126644836991    -1.435928475780     1.007825032230
         H            1.150069678023    -1.727159836991    -0.849404475780     1.007825032230
         H           -1.306265321977     0.669416163009     1.723562524220     1.007825032230
         H            0.368281678023     1.209590163009     1.451585524220     1.007825032230

  Running in c1 symmetry.

  Rotational constants: A =      0.06663  B =      0.04356  C =      0.02930 [cm^-1]
  Rotational constants: A =   1997.55640  B =   1305.93015  C =    878.35976 [MHz]
  Nuclear repulsion =  432.586925869123831

  Charge       = 0
  Multiplicity = 1
  Electrons    = 74
  Nalpha       = 37
  Nbeta        = 37

  ==> Algorithm <==

  SCF Algorithm Type is DF.
  DIIS enabled.
  MOM disabled.
  Fractional occupation disabled.
  Guess Type is SAD.
  Energy threshold   = 1.00e-10
  Density threshold  = 1.00e-10
  Integral threshold = 0.00e+00

  ==> Primary Basis <==

  Basis Set: AUG-CC-PVTZ
    Blend: AUG-CC-PVTZ
    Number of shells: 135
    Number of basis function: 403
    Number of Cartesian functions: 467
    Spherical Harmonics?: true
    Max angular momentum: 3

   => Loading Basis Set <=

    Name: (AUG-CC-PVTZ AUX)
    Role: JKFIT
    Keyword: DF_BASIS_SCF
    atoms 1-3  entry CL         line   816 file /home/xy3866/psi4conda/share/psi4/basis/aug-cc-pvtz-jkfit.gbs 
    atoms 4-6  entry C          line   162 file /home/xy3866/psi4conda/share/psi4/basis/aug-cc-pvtz-jkfit.gbs 
    atoms 7-11 entry H          line    70 file /home/xy3866/psi4conda/share/psi4/basis/aug-cc-pvtz-jkfit.gbs 

  ==> Pre-Iterations <==

   -------------------------------------------------------
    Irrep   Nso     Nmo     Nalpha   Nbeta   Ndocc  Nsocc
   -------------------------------------------------------
     A        403     403       0       0       0       0
   -------------------------------------------------------
    Total     403     403      37      37      37       0
   -------------------------------------------------------

  ==> Integral Setup <==

  DFHelper Memory: AOs need 1.231 GiB; user supplied 22.352 GiB. Using in-core AOs.

  ==> MemDFJK: Density-Fitted J/K Matrices <==

    J tasked:                   Yes
    K tasked:                   Yes
    wK tasked:                   No
    OpenMP threads:               8
    Memory [MiB]:             22888
    Algorithm:                 Core
    Schwarz Cutoff:           1E-12
    Mask sparsity (%):       0.3670
    Fitting Condition:        1E-10

   => Auxiliary Basis Set <=

  Basis Set: (AUG-CC-PVTZ AUX)
    Blend: AUG-CC-PVTZ-JKFIT
    Number of shells: 286
    Number of basis function: 980
    Number of Cartesian functions: 1208
    Spherical Harmonics?: true
    Max angular momentum: 4

  Minimum eigenvalue in the overlap matrix is 1.4247440622E-05.
  Using Symmetric Orthogonalization.

  SCF Guess: Superposition of Atomic Densities via on-the-fly atomic UHF.

  ==> Iterations <==

                           Total Energy        Delta E     RMS |[F,P]|

   @DF-RHF iter SAD: -1495.05765758948564   -1.49506e+03   0.00000e+00 
   @DF-RHF iter   1: -1495.02005570169376    3.76019e-02   8.95591e-04 DIIS
   @DF-RHF iter   2: -1495.09646656969380   -7.64109e-02   3.55554e-04 DIIS
   @DF-RHF iter   3: -1495.10735726428265   -1.08907e-02   1.41364e-04 DIIS
   @DF-RHF iter   4: -1495.10954088533231   -2.18362e-03   3.15983e-05 DIIS
   @DF-RHF iter   5: -1495.10968645084131   -1.45566e-04   6.68081e-06 DIIS
   @DF-RHF iter   6: -1495.10969452367681   -8.07284e-06   2.54927e-06 DIIS
   @DF-RHF iter   7: -1495.10969552842448   -1.00475e-06   7.27820e-07 DIIS
   @DF-RHF iter   8: -1495.10969566489302   -1.36469e-07   1.78034e-07 DIIS
   @DF-RHF iter   9: -1495.10969567258280   -7.68978e-09   4.38618e-08 DIIS
   @DF-RHF iter  10: -1495.10969567291750   -3.34694e-10   1.06024e-08 DIIS
   @DF-RHF iter  11: -1495.10969567294433   -2.68301e-11   3.42325e-09 DIIS
   @DF-RHF iter  12: -1495.10969567294956   -5.22959e-12   1.43118e-09 DIIS
   @DF-RHF iter  13: -1495.10969567294273    6.82121e-12   4.52539e-10 DIIS
   @DF-RHF iter  14: -1495.10969567294478   -2.04636e-12   1.43589e-10 DIIS
   @DF-RHF iter  15: -1495.10969567294592   -1.13687e-12   5.35698e-11 DIIS
  Energy and wave function converged.


  ==> Post-Iterations <==

    Orbital Energies [Eh]
    ---------------------

    Doubly Occupied:                                                      

       1A   -104.852993     2A   -104.843030     3A   -104.835229  
       4A    -11.329804     5A    -11.313538     6A    -11.312490  
       7A    -10.578871     8A    -10.567201     9A    -10.559766  
      10A     -8.045928    11A     -8.043756    12A     -8.043698  
      13A     -8.034044    14A     -8.032247    15A     -8.032185  
      16A     -8.026622    17A     -8.024807    18A     -8.024742  
      19A     -1.213841    20A     -1.139067    21A     -1.132826  
      22A     -0.991215    23A     -0.928309    24A     -0.804203  
      25A     -0.687579    26A     -0.668311    27A     -0.622118  
      28A     -0.596054    29A     -0.569426    30A     -0.552390  
      31A     -0.537014    32A     -0.475496    33A     -0.462251  
      34A     -0.451911    35A     -0.448239    36A     -0.441002  
      37A     -0.432066  

    Virtual:                                                              

      38A      0.029491    39A      0.037312    40A      0.044740  
      41A      0.047997    42A      0.058979    43A      0.073331  
      44A      0.079100    45A      0.083828    46A      0.111766  
      47A      0.114144    48A      0.119747    49A      0.123108  
      50A      0.128989    51A      0.132964    52A      0.138926  
      53A      0.144332    54A      0.147152    55A      0.150924  
      56A      0.154181    57A      0.156701    58A      0.166083  
      59A      0.171266    60A      0.178243    61A      0.188670  
      62A      0.194116    63A      0.203450    64A      0.210812  
      65A      0.223727    66A      0.241532    67A      0.250959  
      68A      0.257057    69A      0.266407    70A      0.278192  
      71A      0.281076    72A      0.293793    73A      0.300414  
      74A      0.303231    75A      0.310583    76A      0.324663  
      77A      0.327867    78A      0.338320    79A      0.352972  
      80A      0.357411    81A      0.364121    82A      0.368618  
      83A      0.381301    84A      0.383716    85A      0.392132  
      86A      0.397930    87A      0.403366    88A      0.416132  
      89A      0.417649    90A      0.430034    91A      0.431505  
      92A      0.435000    93A      0.440171    94A      0.444655  
      95A      0.453802    96A      0.464811    97A      0.474428  
      98A      0.479086    99A      0.485524   100A      0.489775  
     101A      0.491874   102A      0.500549   103A      0.511822  
     104A      0.515248   105A      0.529500   106A      0.531611  
     107A      0.545821   108A      0.548340   109A      0.563423  
     110A      0.569892   111A      0.575215   112A      0.590484  
     113A      0.597647   114A      0.603773   115A      0.616633  
     116A      0.623599   117A      0.626931   118A      0.649923  
     119A      0.656527   120A      0.673071   121A      0.701960  
     122A      0.717852   123A      0.746392   124A      0.752843  
     125A      0.754302   126A      0.779982   127A      0.782973  
     128A      0.792236   129A      0.800872   130A      0.808646  
     131A      0.815351   132A      0.822417   133A      0.832637  
     134A      0.849585   135A      0.857459   136A      0.871945  
     137A      0.875780   138A      0.889719   139A      0.891825  
     140A      0.899135   141A      0.912415   142A      0.917285  
     143A      0.925052   144A      0.929128   145A      0.935631  
     146A      0.946893   147A      0.951071   148A      0.956968  
     149A      0.970349   150A      0.979190   151A      0.980474  
     152A      0.989076   153A      1.001981   154A      1.011208  
     155A      1.022737   156A      1.026812   157A      1.042353  
     158A      1.051867   159A      1.058878   160A      1.064322  
     161A      1.071565   162A      1.080796   163A      1.087993  
     164A      1.110973   165A      1.113976   166A      1.126692  
     167A      1.129022   168A      1.143580   169A      1.157711  
     170A      1.160200   171A      1.164779   172A      1.168572  
     173A      1.185369   174A      1.198135   175A      1.207234  
     176A      1.226352   177A      1.247571   178A      1.258267  
     179A      1.265720   180A      1.270249   181A      1.277380  
     182A      1.309925   183A      1.315285   184A      1.325763  
     185A      1.337612   186A      1.368593   187A      1.372889  
     188A      1.387334   189A      1.389979   190A      1.403353  
     191A      1.417003   192A      1.428995   193A      1.469643  
     194A      1.474840   195A      1.495942   196A      1.502559  
     197A      1.526239   198A      1.527029   199A      1.543877  
     200A      1.556834   201A      1.561757   202A      1.570262  
     203A      1.584863   204A      1.605733   205A      1.614075  
     206A      1.631475   207A      1.644874   208A      1.652214  
     209A      1.654227   210A      1.669416   211A      1.679753  
     212A      1.687742   213A      1.700153   214A      1.709526  
     215A      1.726250   216A      1.737600   217A      1.748005  
     218A      1.750687   219A      1.760551   220A      1.770830  
     221A      1.786197   222A      1.800016   223A      1.809512  
     224A      1.824858   225A      1.837407   226A      1.855353  
     227A      1.865372   228A      1.878079   229A      1.892954  
     230A      1.898107   231A      1.910635   232A      1.924935  
     233A      1.952381   234A      1.953991   235A      1.982720  
     236A      1.994915   237A      2.006799   238A      2.026222  
     239A      2.028491   240A      2.037041   241A      2.049753  
     242A      2.083931   243A      2.093209   244A      2.126200  
     245A      2.132322   246A      2.153634   247A      2.159442  
     248A      2.178950   249A      2.228459   250A      2.252804  
     251A      2.266284   252A      2.287547   253A      2.332351  
     254A      2.353825   255A      2.395592   256A      2.420528  
     257A      2.442409   258A      2.446887   259A      2.491107  
     260A      2.596543   261A      2.630153   262A      2.650431  
     263A      2.673791   264A      2.694249   265A      2.723195  
     266A      2.726956   267A      2.740298   268A      2.754225  
     269A      2.765711   270A      2.773721   271A      2.799756  
     272A      2.812004   273A      2.833073   274A      2.850238  
     275A      2.909614   276A      2.925672   277A      2.987153  
     278A      3.033990   279A      3.035300   280A      3.050963  
     281A      3.084468   282A      3.097238   283A      3.110105  
     284A      3.127945   285A      3.146576   286A      3.159730  
     287A      3.173269   288A      3.180924   289A      3.196298  
     290A      3.200949   291A      3.203708   292A      3.222730  
     293A      3.235193   294A      3.241424   295A      3.263765  
     296A      3.281962   297A      3.282724   298A      3.300252  
     299A      3.310591   300A      3.325165   301A      3.331893  
     302A      3.340094   303A      3.372876   304A      3.386386  
     305A      3.435474   306A      3.445322   307A      3.454435  
     308A      3.476357   309A      3.496110   310A      3.544156  
     311A      3.551774   312A      3.565466   313A      3.594654  
     314A      3.612094   315A      3.634849   316A      3.671928  
     317A      3.678519   318A      3.692332   319A      3.730215  
     320A      3.738221   321A      3.757527   322A      3.763942  
     323A      3.815106   324A      3.817172   325A      3.835695  
     326A      3.874608   327A      3.913228   328A      3.919692  
     329A      3.936152   330A      3.949981   331A      3.974639  
     332A      4.005513   333A      4.012441   334A      4.040310  
     335A      4.059335   336A      4.088460   337A      4.119024  
     338A      4.127046   339A      4.149864   340A      4.175839  
     341A      4.189555   342A      4.233789   343A      4.255597  
     344A      4.274915   345A      4.293349   346A      4.304362  
     347A      4.340935   348A      4.356897   349A      4.376661  
     350A      4.415429   351A      4.468340   352A      4.501829  
     353A      4.522922   354A      4.567083   355A      4.624827  
     356A      4.664828   357A      4.687044   358A      4.743342  
     359A      4.794185   360A      4.810881   361A      4.827610  
     362A      4.870114   363A      4.900240   364A      4.909634  
     365A      4.937697   366A      4.951346   367A      5.012153  
     368A      5.041473   369A      5.068799   370A      5.103947  
     371A      5.128498   372A      5.162120   373A      5.179820  
     374A      5.196342   375A      5.213787   376A      5.267711  
     377A      5.280983   378A      5.308132   379A      5.337006  
     380A      5.397971   381A      5.412980   382A      5.432427  
     383A      5.481534   384A      5.525657   385A      5.566381  
     386A      5.619631   387A      5.703772   388A      5.780735  
     389A      5.871064   390A      6.022296   391A      6.049904  
     392A      6.070743   393A      6.201877   394A      6.264635  
     395A      6.511883   396A      6.710850   397A      6.765643  
     398A      7.916541   399A      7.992390   400A      8.657456  
     401A     16.244265   402A     16.909108   403A     17.524335  

    Final Occupation by Irrep:
              A 
    DOCC [    37 ]

  @DF-RHF Final Energy: -1495.10969567294592

   => Energetics <=

    Nuclear Repulsion Energy =            432.5869258691238315
    One-Electron Energy =               -2924.0847045107916529
    Two-Electron Energy =                 996.3880829687219602
    Total Energy =                      -1495.1096956729461454

Computation Completed

*** tstop() called on node142.bme.utexas.edu at Fri Nov  6 16:21:07 2020
Module time:
	user time   =     114.32 seconds =       1.91 minutes
	system time =       3.75 seconds =       0.06 minutes
	total time  =         17 seconds =       0.28 minutes
Total time:
	user time   =     114.32 seconds =       1.91 minutes
	system time =       3.75 seconds =       0.06 minutes
	total time  =         17 seconds =       0.28 minutes
   => Loading Basis Set <=

    Name: (AUG-CC-PVTZ AUX)
    Role: RIFIT
    Keyword: DF_BASIS_MP2
    atoms 1-3  entry CL         line   742 file /home/xy3866/psi4conda/share/psi4/basis/aug-cc-pvtz-ri.gbs 
    atoms 4-6  entry C          line   148 file /home/xy3866/psi4conda/share/psi4/basis/aug-cc-pvtz-ri.gbs 
    atoms 7-11 entry H          line    30 file /home/xy3866/psi4conda/share/psi4/basis/aug-cc-pvtz-ri.gbs 


*** tstart() called on node142.bme.utexas.edu
*** at Fri Nov  6 16:21:07 2020


  //>>>>>>>>>>>>>>>>>>>>>>>>>>>>>>>>>>>//
  //               DFMP2               //
  //<<<<<<<<<<<<<<<<<<<<<<<<<<<<<<<<<<<//

	 --------------------------------------------------------
	                          DF-MP2                         
	      2nd-Order Density-Fitted Moller-Plesset Theory     
	              RMP2 Wavefunction,   8 Threads             
	                                                         
	        Rob Parrish, Justin Turney, Andy Simmonett,      
	           Ed Hohenstein, and C. David Sherrill          
	 --------------------------------------------------------

   => Auxiliary Basis Set <=

  Basis Set: (AUG-CC-PVTZ AUX)
    Blend: AUG-CC-PVTZ-RI
    Number of shells: 265
    Number of basis function: 989
    Number of Cartesian functions: 1256
    Spherical Harmonics?: true
    Max angular momentum: 4

	 --------------------------------------------------------
	                 NBF =   403, NAUX =   989
	 --------------------------------------------------------
	   CLASS    FOCC     OCC    AOCC    AVIR     VIR    FVIR
	   PAIRS       0      37      37     366     366       0
	 --------------------------------------------------------

  DFHelper Memory: AOs need 1.231 GiB; user supplied 22.352 GiB. Using in-core AOs.


         ------------------------------------------------------------
                                     CPHF                           
                                  Rob Parrish                       
         ------------------------------------------------------------

  ==> Geometry <==

    Molecular point group: c1
    Full point group: C1

    Geometry (in Angstrom), charge = 0, multiplicity = 1:

       Center              X                  Y                   Z               Mass       
    ------------   -----------------  -----------------  -----------------  -----------------
         CL          -1.541892321977    -1.542162836991    -0.091654475780    34.968852682000
         CL           2.477241678023     0.006628163009     0.037550524220    34.968852682000
         CL          -1.054042321977     1.796779163009    -0.326455475780    34.968852682000
         C           -0.194255021977    -0.704067136991     0.487384224220    12.000000000000
         C            0.950033678023    -0.695298836991    -0.562199475780    12.000000000000
         C           -0.500897321977     0.737190163009     0.991612524220    12.000000000000
         H            0.238775678023    -1.205277836991     1.398438524220     1.007825032230
         H            0.632640678023    -0.126644836991    -1.435928475780     1.007825032230
         H            1.150069678023    -1.727159836991    -0.849404475780     1.007825032230
         H           -1.306265321977     0.669416163009     1.723562524220     1.007825032230
         H            0.368281678023     1.209590163009     1.451585524220     1.007825032230

  Nuclear repulsion =  432.586925869123831
  Reference energy  = -1495.109695672945918

  ==> Basis Set <==

  Basis Set: AUG-CC-PVTZ
    Blend: AUG-CC-PVTZ
    Number of shells: 135
    Number of basis function: 403
    Number of Cartesian functions: 467
    Spherical Harmonics?: true
    Max angular momentum: 3

  ==> CGRSolver (by Rob Parrish) <==

   Number of roots    =         1
   Preconditioning    =    JACOBI
   Convergence cutoff =     1E-06
   Maximum iterations =       100

  ==> CPHFRHamiltonian (by Rob Parrish) <== 

  ==> MemDFJK: Density-Fitted J/K Matrices <==

    J tasked:                   Yes
    K tasked:                   Yes
    wK tasked:                   No
    OpenMP threads:               8
    Memory [MiB]:             22888
    Algorithm:                 Core
    Schwarz Cutoff:           1E-12
    Mask sparsity (%):       0.3670
    Fitting Condition:        1E-10

   => Auxiliary Basis Set <=

  Basis Set: (AUG-CC-PVTZ AUX)
    Blend: AUG-CC-PVTZ-JKFIT
    Number of shells: 286
    Number of basis function: 980
    Number of Cartesian functions: 1208
    Spherical Harmonics?: true
    Max angular momentum: 4

  ==> CPHF Iterations <==

  => Iterations <=

             Iter  Converged  Remaining    Residual
  CGR           1          0          1   9.607E-02
  CGR           2          0          1   1.530E-02
  CGR           3          0          1   5.081E-03
  CGR           4          0          1   1.604E-03
  CGR           5          0          1   5.031E-04
  CGR           6          0          1   1.442E-04
  CGR           7          0          1   3.301E-05
  CGR           8          0          1   8.743E-06
  CGR           9          0          1   2.478E-06
  CGR          10          1          0   8.500E-07

    CGRSolver converged.

	-----------------------------------------------------------
	 ==================> DF-MP2 Energies <==================== 
	-----------------------------------------------------------
	 Reference Energy          =   -1495.1096956729459180 [Eh]
	 Singles Energy            =      -0.0000000000000000 [Eh]
	 Same-Spin Energy          =      -0.3141827649516414 [Eh]
	 Opposite-Spin Energy      =      -0.9656596612466670 [Eh]
	 Correlation Energy        =      -1.2798424261983083 [Eh]
	 Total Energy              =   -1496.3895380991441471 [Eh]
	-----------------------------------------------------------
	 ================> DF-SCS-MP2 Energies <================== 
	-----------------------------------------------------------
	 SCS Same-Spin Scale       =       0.3333333333333333 [-]
	 SCS Opposite-Spin Scale   =       1.2000000000000000 [-]
	 SCS Same-Spin Energy      =      -0.1047275883172138 [Eh]
	 SCS Opposite-Spin Energy  =      -1.1587915934960005 [Eh]
	 SCS Correlation Energy    =      -1.2635191818132143 [Eh]
	 SCS Total Energy          =   -1496.3732148547592260 [Eh]
	-----------------------------------------------------------



Properties will be evaluated at   0.000000,  -0.000000,   0.000000 [a0]

Properties computed using the MP2 density matrix

  Nuclear Dipole Moment: [e a0]
     X:     1.1244      Y:    -1.3454      Z:     2.4935

  Electronic Dipole Moment: [e a0]
     X:    -1.0737      Y:     0.9524      Z:    -2.0483

  Dipole Moment: [e a0]
     X:     0.0507      Y:    -0.3931      Z:     0.4453     Total:     0.5961

  Dipole Moment: [D]
     X:     0.1288      Y:    -0.9991      Z:     1.1318     Total:     1.5152


*** tstop() called on node142.bme.utexas.edu at Fri Nov  6 16:22:11 2020
Module time:
	user time   =     423.45 seconds =       7.06 minutes
	system time =      10.49 seconds =       0.17 minutes
	total time  =         64 seconds =       1.07 minutes
Total time:
	user time   =     538.78 seconds =       8.98 minutes
	system time =      14.31 seconds =       0.24 minutes
	total time  =         81 seconds =       1.35 minutes

    Psi4 stopped on: Friday, 06 November 2020 04:22PM
    Psi4 wall time for execution: 0:01:21.37

*** Psi4 exiting successfully. Buy a developer a beer!
