113_MalonicAcid Gaussian SP Calculation on g2-node38.bme.utexas.edu     
Freq      RMP2-FC                                                     6-31G(d)            
Number of atoms                            I               11
Info1-9                                    I   N=           9
          22          21        1002           0           0         100
           6           2           1
Charge                                     I                0
Multiplicity                               I                1
Number of electrons                        I               54
Number of alpha electrons                  I               27
Number of beta electrons                   I               27
Number of basis functions                  I              113
Number of independent functions            I              113
Number of point charges in /Mol/           I                0
Number of translation vectors              I                0
Atomic numbers                             I   N=          11
           8           8           8           8           6           6
           6           1           1           1           1
Nuclear charges                            R   N=          11
  8.00000000E+00  8.00000000E+00  8.00000000E+00  8.00000000E+00  6.00000000E+00
  6.00000000E+00  6.00000000E+00  1.00000000E+00  1.00000000E+00  1.00000000E+00
  1.00000000E+00
Current cartesian coordinates              R   N=          33
 -2.96557094E+00  1.28361897E+00  1.84733004E+00  4.51289368E+00 -7.99676734E-01
  5.18090540E-01 -3.75442300E+00 -8.76455655E-01 -1.77523902E+00  1.99064579E+00
  2.17673599E+00 -1.26673240E+00  1.34498436E-01 -1.62655374E+00  5.30113561E-01
 -2.39308757E+00 -4.18693688E-01  1.88547818E-02  2.24264655E+00  1.64090956E-01
 -1.84412583E-01  3.17734076E-01 -2.12866768E+00  2.52627555E+00  3.00209122E-01
 -3.34831981E+00 -5.98787551E-01 -4.56811446E+00  2.05670373E+00  1.33583249E+00
  5.77746260E+00  4.33441993E-01 -3.82483224E-02
Force Field                                I                0
Int Atom Types                             I   N=          11
           0           0           0           0           0           0
           0           0           0           0           0
MM charges                                 R   N=          11
  0.00000000E+00  0.00000000E+00  0.00000000E+00  0.00000000E+00  0.00000000E+00
  0.00000000E+00  0.00000000E+00  0.00000000E+00  0.00000000E+00  0.00000000E+00
  0.00000000E+00
Integer atomic weights                     I   N=          11
          16          16          16          16          12          12
          12           1           1           1           1
Real atomic weights                        R   N=          11
  1.59949146E+01  1.59949146E+01  1.59949146E+01  1.59949146E+01  1.20000000E+01
  1.20000000E+01  1.20000000E+01  1.00782504E+00  1.00782504E+00  1.00782504E+00
  1.00782504E+00
Atom fragment info                         I   N=          11
           0           0           0           0           0           0
           0           0           0           0           0
Atom residue num                           I   N=          11
           0           0           0           0           0           0
           0           0           0           0           0
Nuclear spins                              I   N=          11
           0           0           0           0           0           0
           0           1           1           1           1
Nuclear ZEff                               R   N=          11
 -5.60000000E+00 -5.60000000E+00 -5.60000000E+00 -5.60000000E+00 -3.60000000E+00
 -3.60000000E+00 -3.60000000E+00 -1.00000000E+00 -1.00000000E+00 -1.00000000E+00
 -1.00000000E+00
Nuclear QMom                               R   N=          11
  0.00000000E+00  0.00000000E+00  0.00000000E+00  0.00000000E+00  0.00000000E+00
  0.00000000E+00  0.00000000E+00  0.00000000E+00  0.00000000E+00  0.00000000E+00
  0.00000000E+00
Nuclear GFac                               R   N=          11
  0.00000000E+00  0.00000000E+00  0.00000000E+00  0.00000000E+00  0.00000000E+00
  0.00000000E+00  0.00000000E+00  2.79284600E+00  2.79284600E+00  2.79284600E+00
  2.79284600E+00
MicOpt                                     I   N=          11
          -1          -1          -1          -1          -1          -1
          -1          -1          -1          -1          -1
Number of contracted shells                I               36
Number of primitive shells                 I               93
Pure/Cartesian d shells                    I                1
Pure/Cartesian f shells                    I                0
Highest angular momentum                   I                2
Largest degree of contraction              I                6
Shell types                                I   N=          36
           0          -1          -1           2           0          -1
          -1           2           0          -1          -1           2
           0          -1          -1           2           0          -1
          -1           2           0          -1          -1           2
           0          -1          -1           2           0           0
           0           0           0           0           0           0
Number of primitives per shell             I   N=          36
           6           3           1           1           6           3
           1           1           6           3           1           1
           6           3           1           1           6           3
           1           1           6           3           1           1
           6           3           1           1           3           1
           3           1           3           1           3           1
Shell to atom map                          I   N=          36
           1           1           1           1           2           2
           2           2           3           3           3           3
           4           4           4           4           5           5
           5           5           6           6           6           6
           7           7           7           7           8           8
           9           9          10          10          11          11
Primitive exponents                        R   N=          93
  5.48467166E+03  8.25234946E+02  1.88046958E+02  5.29645000E+01  1.68975704E+01
  5.79963534E+00  1.55396162E+01  3.59993359E+00  1.01376175E+00  2.70005823E-01
  8.00000000E-01  5.48467166E+03  8.25234946E+02  1.88046958E+02  5.29645000E+01
  1.68975704E+01  5.79963534E+00  1.55396162E+01  3.59993359E+00  1.01376175E+00
  2.70005823E-01  8.00000000E-01  5.48467166E+03  8.25234946E+02  1.88046958E+02
  5.29645000E+01  1.68975704E+01  5.79963534E+00  1.55396162E+01  3.59993359E+00
  1.01376175E+00  2.70005823E-01  8.00000000E-01  5.48467166E+03  8.25234946E+02
  1.88046958E+02  5.29645000E+01  1.68975704E+01  5.79963534E+00  1.55396162E+01
  3.59993359E+00  1.01376175E+00  2.70005823E-01  8.00000000E-01  3.04752488E+03
  4.57369518E+02  1.03948685E+02  2.92101553E+01  9.28666296E+00  3.16392696E+00
  7.86827235E+00  1.88128854E+00  5.44249258E-01  1.68714478E-01  8.00000000E-01
  3.04752488E+03  4.57369518E+02  1.03948685E+02  2.92101553E+01  9.28666296E+00
  3.16392696E+00  7.86827235E+00  1.88128854E+00  5.44249258E-01  1.68714478E-01
  8.00000000E-01  3.04752488E+03  4.57369518E+02  1.03948685E+02  2.92101553E+01
  9.28666296E+00  3.16392696E+00  7.86827235E+00  1.88128854E+00  5.44249258E-01
  1.68714478E-01  8.00000000E-01  1.87311370E+01  2.82539436E+00  6.40121692E-01
  1.61277759E-01  1.87311370E+01  2.82539436E+00  6.40121692E-01  1.61277759E-01
  1.87311370E+01  2.82539436E+00  6.40121692E-01  1.61277759E-01  1.87311370E+01
  2.82539436E+00  6.40121692E-01  1.61277759E-01
Contraction coefficients                   R   N=          93
  1.83107443E-03  1.39501722E-02  6.84450781E-02  2.32714336E-01  4.70192898E-01
  3.58520853E-01 -1.10777550E-01 -1.48026263E-01  1.13076702E+00  1.00000000E+00
  1.00000000E+00  1.83107443E-03  1.39501722E-02  6.84450781E-02  2.32714336E-01
  4.70192898E-01  3.58520853E-01 -1.10777550E-01 -1.48026263E-01  1.13076702E+00
  1.00000000E+00  1.00000000E+00  1.83107443E-03  1.39501722E-02  6.84450781E-02
  2.32714336E-01  4.70192898E-01  3.58520853E-01 -1.10777550E-01 -1.48026263E-01
  1.13076702E+00  1.00000000E+00  1.00000000E+00  1.83107443E-03  1.39501722E-02
  6.84450781E-02  2.32714336E-01  4.70192898E-01  3.58520853E-01 -1.10777550E-01
 -1.48026263E-01  1.13076702E+00  1.00000000E+00  1.00000000E+00  1.83473713E-03
  1.40373228E-02  6.88426223E-02  2.32184443E-01  4.67941348E-01  3.62311985E-01
 -1.19332420E-01 -1.60854152E-01  1.14345644E+00  1.00000000E+00  1.00000000E+00
  1.83473713E-03  1.40373228E-02  6.88426223E-02  2.32184443E-01  4.67941348E-01
  3.62311985E-01 -1.19332420E-01 -1.60854152E-01  1.14345644E+00  1.00000000E+00
  1.00000000E+00  1.83473713E-03  1.40373228E-02  6.88426223E-02  2.32184443E-01
  4.67941348E-01  3.62311985E-01 -1.19332420E-01 -1.60854152E-01  1.14345644E+00
  1.00000000E+00  1.00000000E+00  3.34946043E-02  2.34726953E-01  8.13757326E-01
  1.00000000E+00  3.34946043E-02  2.34726953E-01  8.13757326E-01  1.00000000E+00
  3.34946043E-02  2.34726953E-01  8.13757326E-01  1.00000000E+00  3.34946043E-02
  2.34726953E-01  8.13757326E-01  1.00000000E+00
P(S=P) Contraction coefficients            R   N=          93
  0.00000000E+00  0.00000000E+00  0.00000000E+00  0.00000000E+00  0.00000000E+00
  0.00000000E+00  7.08742682E-02  3.39752839E-01  7.27158577E-01  1.00000000E+00
  0.00000000E+00  0.00000000E+00  0.00000000E+00  0.00000000E+00  0.00000000E+00
  0.00000000E+00  0.00000000E+00  7.08742682E-02  3.39752839E-01  7.27158577E-01
  1.00000000E+00  0.00000000E+00  0.00000000E+00  0.00000000E+00  0.00000000E+00
  0.00000000E+00  0.00000000E+00  0.00000000E+00  7.08742682E-02  3.39752839E-01
  7.27158577E-01  1.00000000E+00  0.00000000E+00  0.00000000E+00  0.00000000E+00
  0.00000000E+00  0.00000000E+00  0.00000000E+00  0.00000000E+00  7.08742682E-02
  3.39752839E-01  7.27158577E-01  1.00000000E+00  0.00000000E+00  0.00000000E+00
  0.00000000E+00  0.00000000E+00  0.00000000E+00  0.00000000E+00  0.00000000E+00
  6.89990666E-02  3.16423961E-01  7.44308291E-01  1.00000000E+00  0.00000000E+00
  0.00000000E+00  0.00000000E+00  0.00000000E+00  0.00000000E+00  0.00000000E+00
  0.00000000E+00  6.89990666E-02  3.16423961E-01  7.44308291E-01  1.00000000E+00
  0.00000000E+00  0.00000000E+00  0.00000000E+00  0.00000000E+00  0.00000000E+00
  0.00000000E+00  0.00000000E+00  6.89990666E-02  3.16423961E-01  7.44308291E-01
  1.00000000E+00  0.00000000E+00  0.00000000E+00  0.00000000E+00  0.00000000E+00
  0.00000000E+00  0.00000000E+00  0.00000000E+00  0.00000000E+00  0.00000000E+00
  0.00000000E+00  0.00000000E+00  0.00000000E+00  0.00000000E+00  0.00000000E+00
  0.00000000E+00  0.00000000E+00  0.00000000E+00
Coordinates of each shell                  R   N=         108
 -2.96557094E+00  1.28361897E+00  1.84733004E+00 -2.96557094E+00  1.28361897E+00
  1.84733004E+00 -2.96557094E+00  1.28361897E+00  1.84733004E+00 -2.96557094E+00
  1.28361897E+00  1.84733004E+00  4.51289368E+00 -7.99676734E-01  5.18090540E-01
  4.51289368E+00 -7.99676734E-01  5.18090540E-01  4.51289368E+00 -7.99676734E-01
  5.18090540E-01  4.51289368E+00 -7.99676734E-01  5.18090540E-01 -3.75442300E+00
 -8.76455655E-01 -1.77523902E+00 -3.75442300E+00 -8.76455655E-01 -1.77523902E+00
 -3.75442300E+00 -8.76455655E-01 -1.77523902E+00 -3.75442300E+00 -8.76455655E-01
 -1.77523902E+00  1.99064579E+00  2.17673599E+00 -1.26673240E+00  1.99064579E+00
  2.17673599E+00 -1.26673240E+00  1.99064579E+00  2.17673599E+00 -1.26673240E+00
  1.99064579E+00  2.17673599E+00 -1.26673240E+00  1.34498436E-01 -1.62655374E+00
  5.30113561E-01  1.34498436E-01 -1.62655374E+00  5.30113561E-01  1.34498436E-01
 -1.62655374E+00  5.30113561E-01  1.34498436E-01 -1.62655374E+00  5.30113561E-01
 -2.39308757E+00 -4.18693688E-01  1.88547818E-02 -2.39308757E+00 -4.18693688E-01
  1.88547818E-02 -2.39308757E+00 -4.18693688E-01  1.88547818E-02 -2.39308757E+00
 -4.18693688E-01  1.88547818E-02  2.24264655E+00  1.64090956E-01 -1.84412583E-01
  2.24264655E+00  1.64090956E-01 -1.84412583E-01  2.24264655E+00  1.64090956E-01
 -1.84412583E-01  2.24264655E+00  1.64090956E-01 -1.84412583E-01  3.17734076E-01
 -2.12866768E+00  2.52627555E+00  3.17734076E-01 -2.12866768E+00  2.52627555E+00
  3.00209122E-01 -3.34831981E+00 -5.98787551E-01  3.00209122E-01 -3.34831981E+00
 -5.98787551E-01 -4.56811446E+00  2.05670373E+00  1.33583249E+00 -4.56811446E+00
  2.05670373E+00  1.33583249E+00  5.77746260E+00  4.33441993E-01 -3.82483224E-02
  5.77746260E+00  4.33441993E-01 -3.82483224E-02
Constraint Structure                       R   N=          33
 -2.96557094E+00  1.28361897E+00  1.84733004E+00  4.51289368E+00 -7.99676734E-01
  5.18090540E-01 -3.75442300E+00 -8.76455655E-01 -1.77523902E+00  1.99064579E+00
  2.17673599E+00 -1.26673240E+00  1.34498436E-01 -1.62655374E+00  5.30113561E-01
 -2.39308757E+00 -4.18693688E-01  1.88547818E-02  2.24264655E+00  1.64090956E-01
 -1.84412583E-01  3.17734076E-01 -2.12866768E+00  2.52627555E+00  3.00209122E-01
 -3.34831981E+00 -5.98787551E-01 -4.56811446E+00  2.05670373E+00  1.33583249E+00
  5.77746260E+00  4.33441993E-01 -3.82483224E-02
Num ILSW                                   I              100
ILSW                                       I   N=         100
           0           1           0           0           2           0
           0           0           0           0           0          -1
           0           0           0           0           0           0
           0           0           0           0           1           0
           1           0           0           0           0           0
           0           0      100000           0          -1           0
           0           0           0           0           0           0
           0           0           0           1           1           0
           0           0           1           0           0           0
           0           0           4          40           0           0
           0           0           0           0           0           0
           0           0           0           0           0           0
           0           0           0           0           0           0
           0           0           0           0           0           0
           0           0           0           0           0           0
           0           0           0           0           0           0
           0           0           0           0
Num RLSW                                   I               40
RLSW                                       R   N=          40
  1.00000000E+00  1.00000000E+00  1.00000000E+00  1.00000000E+00  1.00000000E+00
  0.00000000E+00  0.00000000E+00  1.00000000E+00  0.00000000E+00  0.00000000E+00
  0.00000000E+00  0.00000000E+00  1.00000000E+00  0.00000000E+00  0.00000000E+00
  0.00000000E+00  0.00000000E+00  1.00000000E+00  0.00000000E+00  0.00000000E+00
  0.00000000E+00  0.00000000E+00  1.00000000E+00  0.00000000E+00  0.00000000E+00
  0.00000000E+00  0.00000000E+00  1.00000000E+00  0.00000000E+00  0.00000000E+00
  0.00000000E+00  0.00000000E+00  0.00000000E+00  0.00000000E+00  0.00000000E+00
  0.00000000E+00  0.00000000E+00  0.00000000E+00  1.00000000E+00  1.00000000E+00
MxBond                                     I                4
NBond                                      I   N=          11
           2           2           1           1           4           3
           3           1           1           1           1
IBond                                      I   N=          44
           6          10           0           0           7          11
           0           0           6           0           0           0
           7           0           0           0           6           7
           8           9           1           3           5           0
           2           4           5           0           5           0
           0           0           5           0           0           0
           1           0           0           0           2           0
           0           0
RBond                                      R   N=          44
  1.50000000E+00  1.00000000E+00  0.00000000E+00  0.00000000E+00  1.50000000E+00
  1.00000000E+00  0.00000000E+00  0.00000000E+00  2.00000000E+00  0.00000000E+00
  0.00000000E+00  0.00000000E+00  2.00000000E+00  0.00000000E+00  0.00000000E+00
  0.00000000E+00  1.00000000E+00  1.00000000E+00  1.00000000E+00  1.00000000E+00
  1.50000000E+00  2.00000000E+00  1.00000000E+00  0.00000000E+00  1.50000000E+00
  2.00000000E+00  1.00000000E+00  0.00000000E+00  1.00000000E+00  0.00000000E+00
  0.00000000E+00  0.00000000E+00  1.00000000E+00  0.00000000E+00  0.00000000E+00
  0.00000000E+00  1.00000000E+00  0.00000000E+00  0.00000000E+00  0.00000000E+00
  1.00000000E+00  0.00000000E+00  0.00000000E+00  0.00000000E+00
Virial Ratio                               R      2.003411801774214E+00
SCF Energy                                 R     -4.154131498192112E+02
MP2 Energy                                 R     -4.165034187545138E+02
Total Energy                               R     -4.165034187545138E+02
Post-SCF wavefunction norm                 R      1.626656351178907E+00
RMS Force                                  R      1.678363293056981E-07
RMS Density                                R      1.609674939169134E-09
External E-field                           R   N=          35
  0.00000000E+00  0.00000000E+00  0.00000000E+00  0.00000000E+00  0.00000000E+00
  0.00000000E+00  0.00000000E+00  0.00000000E+00  0.00000000E+00  0.00000000E+00
  0.00000000E+00  0.00000000E+00  0.00000000E+00  0.00000000E+00  0.00000000E+00
  0.00000000E+00  0.00000000E+00  0.00000000E+00  0.00000000E+00  0.00000000E+00
  0.00000000E+00  0.00000000E+00  0.00000000E+00  0.00000000E+00  0.00000000E+00
  0.00000000E+00  0.00000000E+00  0.00000000E+00  0.00000000E+00  0.00000000E+00
  0.00000000E+00  0.00000000E+00  0.00000000E+00  0.00000000E+00  0.00000000E+00
IOpCl                                      I                0
IROHF                                      I                0
Alpha Orbital Energies                     R   N=         113
 -2.06389739E+01 -2.06293982E+01 -2.05788840E+01 -2.05698790E+01 -1.14183383E+01
 -1.14076854E+01 -1.12802550E+01 -1.47875454E+00 -1.46690057E+00 -1.37516654E+00
 -1.36571537E+00 -1.07999896E+00 -8.83531684E-01 -8.06374072E-01 -7.21861919E-01
 -7.13767685E-01 -7.10622987E-01 -6.81328927E-01 -6.58667350E-01 -6.28353160E-01
 -5.89572112E-01 -5.86540064E-01 -5.77991166E-01 -4.96256618E-01 -4.84921061E-01
 -4.70273972E-01 -4.62030527E-01  1.60230997E-01  1.65619440E-01  2.10024771E-01
  2.22968463E-01  2.58500517E-01  3.02908331E-01  3.85027442E-01  4.04347501E-01
  4.53474295E-01  4.91551566E-01  4.95087657E-01  5.51341467E-01  7.26435940E-01
  7.56515853E-01  7.82170744E-01  7.92423916E-01  7.99127260E-01  8.75248559E-01
  9.01589422E-01  9.09791491E-01  9.20032414E-01  9.70092707E-01  1.04366492E+00
  1.05538740E+00  1.07401745E+00  1.09403534E+00  1.11571500E+00  1.13084412E+00
  1.15961588E+00  1.18594138E+00  1.21274308E+00  1.22570330E+00  1.23409778E+00
  1.27949280E+00  1.33812083E+00  1.34462481E+00  1.37126909E+00  1.44186225E+00
  1.48859477E+00  1.60867231E+00  1.63141114E+00  1.65231425E+00  1.66532614E+00
  1.73127932E+00  1.78371163E+00  1.83075297E+00  1.92448686E+00  1.95168886E+00
  1.98978785E+00  2.00346139E+00  2.01447162E+00  2.06245306E+00  2.08460645E+00
  2.11400121E+00  2.13959697E+00  2.17590341E+00  2.21207176E+00  2.22520785E+00
  2.23259689E+00  2.27472800E+00  2.34878573E+00  2.40323261E+00  2.48622588E+00
  2.58721127E+00  2.63431255E+00  2.72798385E+00  2.73990543E+00  2.75190197E+00
  2.82118410E+00  2.94148824E+00  2.97946987E+00  3.04399473E+00  3.07288621E+00
  3.13657198E+00  3.20113378E+00  3.31356105E+00  3.32735908E+00  3.41637639E+00
  3.46918153E+00  4.22008112E+00  4.22780610E+00  4.45112984E+00  4.52163308E+00
  4.60189786E+00  4.77623096E+00  4.96436958E+00
Alpha MO coefficients                      R   N=       12769
  3.16743399E-06  2.50109000E-05  4.64336444E-06 -5.08795721E-06 -4.67799133E-06
 -1.12672919E-04 -6.46999671E-06  2.97320748E-05  3.60276604E-05  1.66850234E-05
  1.94481707E-05  1.36231346E-05  1.60099152E-06 -3.73868568E-06 -6.44197468E-06
  9.94636324E-01  2.11699240E-02 -2.43626906E-04  1.10157703E-03 -6.11665883E-04
  4.09452660E-03 -4.24631646E-05 -5.71018856E-04  3.02253678E-04 -4.15108855E-03
 -4.06497281E-03 -3.98550272E-03 -3.03463024E-05 -2.29096220E-06  6.55279921E-05
 -9.88444384E-07 -2.22875397E-06 -1.06903101E-06  3.65097823E-06  2.63248628E-06
  3.77603538E-05  4.90935819E-05 -3.18525058E-05 -2.36187860E-06  6.20015363E-06
 -9.53295612E-07 -8.19977778E-07  1.32768152E-06  4.30328581E-06 -7.73780269E-06
 -2.84507111E-04  3.42588934E-05 -3.26657573E-05  2.14638404E-05 -1.42669393E-05
 -3.38194383E-04 -9.06299346E-05  5.99741180E-05 -3.85866155E-05  4.93084287E-07
  5.99448274E-06 -6.46761796E-06  6.53884101E-05 -3.38881176E-05 -7.47036154E-07
 -1.11565122E-05 -1.12138885E-05  1.69386434E-05 -1.01485693E-05  1.28971453E-06
  7.29009747E-04 -2.67473009E-04  2.15164368E-04 -1.10222285E-04 -6.90194469E-05
 -1.31446157E-05 -3.39298147E-05 -2.87039073E-05  8.88344543E-06 -1.20683710E-05
  7.66641635E-06  4.11126335E-05 -6.65695679E-06  3.84536507E-06  4.54959550E-06
 -4.34081665E-04 -2.66020205E-04  1.74230390E-04  3.51009921E-05 -5.91114244E-06
  1.78775281E-05  7.92232228E-06  2.53605620E-06 -6.57929576E-06 -5.19792970E-06
 -2.72479688E-06  3.96924524E-04  2.78285020E-04 -1.22967055E-04  8.86162716E-05
 -1.70868050E-04  1.63517830E-04  4.45330527E-04 -2.24893710E-04 -8.94689769E-05
 -2.17906443E-05 -5.11487633E-05  4.34979583E-05 -2.56781711E-05 -1.67254162E-05
  2.31057994E-05 -5.49233991E-05  6.89798186E-06 -2.54363408E-05  1.71457150E-06
 -3.01256384E-05  4.31262913E-04 -2.51353873E-04  9.94641114E-01  2.11980929E-02
 -6.70891611E-04 -2.93202104E-04 -1.05051853E-03  3.94071414E-03  4.09888124E-04
  7.20407429E-05  5.07936224E-04 -4.07928766E-03 -4.03965047E-03 -4.04552856E-03
  1.02070122E-04 -2.56384431E-05 -6.24503731E-05  1.32805953E-05  5.09716415E-05
 -3.91769096E-06 -1.97766411E-06 -3.20308832E-06 -3.08091934E-04  1.05293221E-04
 -1.65775619E-05  2.76580958E-05  1.19535147E-05  3.09674336E-05  3.30435183E-05
  4.81629324E-06 -8.39759750E-06  3.54415158E-07 -2.85807262E-04  4.19812448E-05
  8.54592860E-06 -2.39036101E-05 -3.38603627E-05 -3.58376551E-04 -1.99166810E-05
 -8.92643170E-05 -8.68858106E-05  5.35635344E-05 -6.20612309E-06 -2.85794920E-05
 -3.08506089E-05  1.26260134E-05 -4.17693738E-05 -2.78609416E-05 -5.14630921E-05
 -5.62298364E-06  5.50122567E-06  4.81193011E-06  3.39963410E-04 -1.75857898E-05
 -1.03893611E-04  3.09487205E-05 -2.29681991E-05 -1.12928129E-05 -1.93030560E-05
  6.05079385E-06 -1.81187514E-06 -3.17119698E-06 -2.30143643E-06  3.37412020E-05
  1.19201594E-05  2.09813931E-05  1.10744189E-05  3.37701013E-04 -1.12017383E-04
 -1.19017034E-04 -1.82999380E-04 -4.92729686E-05 -2.57566317E-05 -1.91079552E-05
  4.00533589E-05  2.31470079E-05 -1.21825160E-05 -7.20784650E-06  3.72219747E-04
 -7.71700179E-05  2.04779825E-04  2.27493228E-04  9.75591178E-06 -3.47736447E-04
  1.42341233E-04 -2.58459538E-04 -1.68912602E-05 -8.36330874E-05 -7.09861994E-05
 -4.06094367E-07  3.49074509E-05 -2.71317297E-05  4.81449887E-06 -8.48932148E-06
 -1.81545108E-05  6.33446088E-07  1.80749519E-05 -6.98157048E-05  2.44568259E-04
 -2.40188973E-04  1.68811883E-04  4.60423064E-05 -1.42469493E-06  2.04728091E-05
 -1.62665832E-05 -8.16895534E-07  7.29640636E-06  4.44236369E-05 -5.45348210E-05
 -2.74431009E-05 -1.68432209E-04  4.33796991E-04 -2.59107642E-04  5.09722524E-06
 -1.34832501E-05  1.82443876E-05 -1.66143775E-05  5.02558040E-06  2.04796550E-06
 -6.06469779E-07  1.01713781E-04  5.60042860E-06 -2.46783654E-05 -4.09544999E-05
  1.06271334E-06 -3.08077046E-06  5.01469493E-06 -3.78962094E-06 -1.80773475E-06
 -1.49075989E-06  2.79361240E-04 -6.98587387E-05  1.54540737E-05 -3.09255222E-05
  1.76015298E-05  3.12627283E-04 -1.23309620E-04  5.99184867E-05 -4.20394025E-05
  5.48308181E-05 -1.04419431E-04 -9.45769551E-05  3.31555018E-05 -3.35355675E-06
  1.25585098E-05 -5.72813157E-05 -4.58329767E-05 -7.65452279E-06 -4.65385962E-06
 -3.08049544E-06  2.42546481E-04  7.41806619E-05  3.47836713E-05  4.76072182E-05
 -2.10828544E-05 -2.69778682E-05 -3.03490042E-05  7.21394708E-06  6.19804130E-06
  4.07065248E-06  9.94695147E-01  2.09881013E-02  2.11737470E-04 -1.39879680E-03
  7.53149261E-04  4.45488041E-03  1.21899997E-05  2.46422450E-05 -9.31888896E-06
 -3.90559853E-03 -3.69792654E-03 -4.01054389E-03 -2.81394373E-05  3.73971988E-05
 -2.68416551E-04 -1.64784648E-06 -1.91677776E-05  8.21719836E-06 -1.43251028E-05
  9.69230251E-06  4.00997823E-05 -1.74250493E-04 -5.59372161E-06 -1.15348094E-05
  6.94936378E-05 -4.52449851E-05 -2.29633154E-05 -2.62289758E-06  1.07351744E-05
  1.81649309E-05  1.27235271E-05  5.32230771E-05  1.97017365E-05  1.93539366E-05
 -2.85955939E-06 -4.73974791E-04 -8.95310836E-05 -2.52112355E-05  5.00856630E-05
  1.17239604E-05  1.60698005E-05  1.71911996E-05  1.55200591E-05 -7.18176797E-06
 -3.65640324E-06 -6.14873471E-06  4.88076531E-04  8.38729648E-06 -6.18517398E-05
  3.41058438E-05 -4.33768089E-04 -1.81523506E-04 -3.92937417E-04  1.89042020E-04
 -8.68717191E-05 -6.51314018E-04 -2.14797232E-04  1.06629048E-04 -6.18613447E-05
  3.84361349E-04  8.79395361E-06 -2.93070866E-05  7.72374799E-06 -3.14295275E-05
 -9.05015730E-06  2.75456325E-06 -2.02920290E-05 -2.69105430E-07  2.90768268E-04
 -3.17115347E-05  1.72888513E-05  1.06856104E-05  3.04019259E-05  9.22469260E-05
 -1.28545377E-05 -3.61771893E-05 -5.56611130E-05 -2.57532494E-06 -6.84360731E-06
 -7.22113853E-05 -7.46943691E-05 -4.45531129E-05  2.21589274E-05  1.04601120E-05
  4.30693537E-05 -5.68651994E-06 -8.88322617E-07 -2.84603896E-06 -2.46773528E-04
  8.32635204E-05 -1.86932355E-05  2.50133214E-05  1.54430549E-05  2.70671270E-05
  2.98881504E-05  3.99295022E-06 -4.54575250E-06  1.89755431E-06  9.94696271E-01
  2.09886678E-02  9.20039688E-04  3.36785405E-04  1.25993697E-03  4.49204388E-03
 -3.17585401E-05  2.79463709E-06 -1.36829603E-06 -3.83417473E-03 -4.00533195E-03
 -3.75901672E-03 -4.04547495E-05  2.42845773E-04  1.58211649E-04  4.41905313E-05
 -2.03582256E-05 -2.57711364E-07  2.71234505E-06  1.74003323E-06  1.46437473E-04
 -3.17585469E-05 -3.72314137E-05  1.12194037E-05 -1.08365741E-05 -9.16186531E-06
 -7.40302317E-06  8.91754078E-06 -1.63489270E-06  2.03227589E-06 -2.23989050E-07
  2.29320721E-06  8.85255891E-06  1.67508035E-05  2.11813414E-05 -1.18157877E-04
  9.93506493E-05 -5.62607270E-05 -3.36479314E-05 -1.77547839E-05  2.35713333E-05
 -2.74516798E-05 -3.28190421E-05 -4.34759112E-05  1.21523454E-05 -8.26036377E-06
  4.70030815E-04  3.60719825E-05  1.00046079E-05  5.40166639E-05 -2.87928829E-04
  4.55644743E-04  3.73874527E-05  3.73350123E-04 -3.16945768E-04 -8.61906216E-05
 -5.40586436E-04 -1.00336769E-04 -4.20625856E-04 -1.62139311E-04  5.31768935E-06
  7.71014592E-06 -9.19871778E-06 -3.77017341E-06  4.80958979E-06 -4.13290250E-05
  2.10207958E-04 -1.07714655E-04  6.63820571E-05  2.22045379E-05  1.05173410E-05
  1.73994158E-05 -6.97755390E-07  6.10008375E-06 -1.27075151E-06  1.59537702E-05
 -3.31556773E-05  6.98636261E-06 -6.19661853E-05 -1.64957589E-05 -1.10765995E-05
  4.54737059E-06 -1.72630456E-05  3.11208915E-08  3.05470698E-05 -3.16645606E-05
 -2.08590265E-05  1.05878813E-05 -2.26596238E-04 -3.26692218E-05  1.23801945E-04
  3.48512246E-05 -2.10755953E-05 -2.18548930E-05  1.24086276E-06  3.53169539E-05
  5.23292856E-06  1.95410004E-05 -7.73599367E-05  6.78741054E-04 -9.28520792E-05
  1.30748205E-04 -7.72522517E-05 -1.76053168E-03  9.77682586E-04 -1.32957415E-03
  7.82050220E-04 -4.39068519E-04  1.30207624E-04  4.01801861E-04  3.48671793E-04
 -2.80679450E-04  2.84731641E-04  2.97541608E-05  1.41291206E-04  4.07986693E-05
 -6.26759879E-06  1.35973350E-05 -7.31737820E-04 -3.18277714E-04  2.10541081E-05
 -1.33983695E-04  5.17331851E-05  1.06050302E-04  9.52034386E-05 -4.11347309E-06
 -1.86067183E-05  9.10528251E-06 -2.71814949E-04  6.81791208E-04  8.33534253E-05
 -2.74792227E-04  1.54529514E-04 -3.42978624E-03 -9.58618110E-04  1.41133596E-03
 -8.45110514E-04  1.76086719E-04  2.38097030E-04  3.62723062E-04  1.43957412E-04
 -1.03096967E-04  1.36256819E-04  2.14697302E-03  1.77333946E-04 -3.27929873E-05
 -1.04137958E-04  2.97905894E-05  3.32884299E-03  2.46426609E-03  1.27466310E-03
 -3.43105745E-04 -4.30372680E-04 -2.85525695E-04 -1.29544212E-04 -1.47551357E-04
  4.99033009E-05  9.03341642E-05 -4.67829821E-04 -3.55771150E-04 -1.15554298E-04
 -4.51447528E-07 -3.04367323E-05  2.03271092E-03  6.75155716E-04 -3.69534918E-04
 -2.39999005E-05 -1.27181157E-05 -8.04523839E-05 -1.09918993E-04 -1.82816070E-05
  9.94627055E-06  6.47501802E-06  9.95903837E-01  2.58884250E-02  8.16453987E-04
 -5.15930345E-05  8.80926482E-05 -6.16584287E-03  3.03291784E-03  3.50264582E-03
 -1.54196551E-03 -1.09974511E-03 -9.43508834E-04 -1.86935659E-03 -2.26415651E-04
  2.39712108E-04 -8.10836702E-04 -1.54046586E-04  2.42049654E-04 -1.47288258E-04
  3.76383195E-04  3.39202926E-05  2.69480061E-05  3.04920326E-04 -8.46470080E-06
 -1.31049509E-04  4.25648788E-04 -6.78677914E-05 -5.71383036E-05 -1.36056600E-04
 -2.73796565E-04  7.38812044E-04  5.03582179E-04  1.18941579E-03  1.13192278E-04
 -1.27681981E-04 -2.92823256E-04  2.01279809E-04 -9.11218403E-06 -6.05347805E-04
 -8.73509282E-05 -3.91358791E-04  6.00128001E-05  1.08215786E-05  1.10004952E-05
  2.22829433E-03 -8.09265241E-04  1.62308818E-04 -1.71509971E-04 -1.46542466E-04