197_FumaricAcid Gaussian SP Calculation on node58.bme.utexas.edu        
Freq      RMP2-FC                                                     6-31G(d)            
Number of atoms                            I               12
Info1-9                                    I   N=           9
          23          22        1002           0           0         100
           6           2           1
Charge                                     I                0
Multiplicity                               I                1
Number of electrons                        I               60
Number of alpha electrons                  I               30
Number of beta electrons                   I               30
Number of basis functions                  I              128
Number of independent functions            I              128
Number of point charges in /Mol/           I                0
Number of translation vectors              I                0
Atomic numbers                             I   N=          12
           8           8           8           8           6           6
           6           6           1           1           1           1
Nuclear charges                            R   N=          12
  8.00000000E+00  8.00000000E+00  8.00000000E+00  8.00000000E+00  6.00000000E+00
  6.00000000E+00  6.00000000E+00  6.00000000E+00  1.00000000E+00  1.00000000E+00
  1.00000000E+00  1.00000000E+00
Current cartesian coordinates              R   N=          36
  3.07879712E+00 -1.17148523E+00  2.10549974E+00 -5.21954484E+00 -6.60793679E-02
  1.50221908E-01  4.13481200E+00 -2.30425060E-01 -1.95180146E+00 -1.64975279E+00
 -2.29796405E+00 -6.83773720E-01  1.11830149E+00  2.35759584E+00  2.13997276E-01
 -1.40853588E+00  2.16869137E+00  1.44478937E-01  2.89240357E+00  1.75484987E-01
 -5.97809417E-02 -2.68429968E+00 -2.99268263E-01 -1.76338263E-01  2.00558536E+00
  4.20355450E+00  3.77455289E-01 -2.59703959E+00  3.83260520E+00  2.99268383E-01
  4.24636535E+00 -2.56085148E+00  1.73043925E+00 -5.91661997E+00 -1.76270218E+00
 -1.02476773E-01
Force Field                                I                0
Int Atom Types                             I   N=          12
           0           0           0           0           0           0
           0           0           0           0           0           0
MM charges                                 R   N=          12
  0.00000000E+00  0.00000000E+00  0.00000000E+00  0.00000000E+00  0.00000000E+00
  0.00000000E+00  0.00000000E+00  0.00000000E+00  0.00000000E+00  0.00000000E+00
  0.00000000E+00  0.00000000E+00
Integer atomic weights                     I   N=          12
          16          16          16          16          12          12
          12          12           1           1           1           1
Real atomic weights                        R   N=          12
  1.59949146E+01  1.59949146E+01  1.59949146E+01  1.59949146E+01  1.20000000E+01
  1.20000000E+01  1.20000000E+01  1.20000000E+01  1.00782504E+00  1.00782504E+00
  1.00782504E+00  1.00782504E+00
Atom fragment info                         I   N=          12
           0           0           0           0           0           0
           0           0           0           0           0           0
Atom residue num                           I   N=          12
           0           0           0           0           0           0
           0           0           0           0           0           0
Nuclear spins                              I   N=          12
           0           0           0           0           0           0
           0           0           1           1           1           1
Nuclear ZEff                               R   N=          12
 -5.60000000E+00 -5.60000000E+00 -5.60000000E+00 -5.60000000E+00 -3.60000000E+00
 -3.60000000E+00 -3.60000000E+00 -3.60000000E+00 -1.00000000E+00 -1.00000000E+00
 -1.00000000E+00 -1.00000000E+00
Nuclear QMom                               R   N=          12
  0.00000000E+00  0.00000000E+00  0.00000000E+00  0.00000000E+00  0.00000000E+00
  0.00000000E+00  0.00000000E+00  0.00000000E+00  0.00000000E+00  0.00000000E+00
  0.00000000E+00  0.00000000E+00
Nuclear GFac                               R   N=          12
  0.00000000E+00  0.00000000E+00  0.00000000E+00  0.00000000E+00  0.00000000E+00
  0.00000000E+00  0.00000000E+00  0.00000000E+00  2.79284600E+00  2.79284600E+00
  2.79284600E+00  2.79284600E+00
MicOpt                                     I   N=          12
          -1          -1          -1          -1          -1          -1
          -1          -1          -1          -1          -1          -1
Number of contracted shells                I               40
Number of primitive shells                 I              104
Pure/Cartesian d shells                    I                1
Pure/Cartesian f shells                    I                0
Highest angular momentum                   I                2
Largest degree of contraction              I                6
Shell types                                I   N=          40
           0          -1          -1           2           0          -1
          -1           2           0          -1          -1           2
           0          -1          -1           2           0          -1
          -1           2           0          -1          -1           2
           0          -1          -1           2           0          -1
          -1           2           0           0           0           0
           0           0           0           0
Number of primitives per shell             I   N=          40
           6           3           1           1           6           3
           1           1           6           3           1           1
           6           3           1           1           6           3
           1           1           6           3           1           1
           6           3           1           1           6           3
           1           1           3           1           3           1
           3           1           3           1
Shell to atom map                          I   N=          40
           1           1           1           1           2           2
           2           2           3           3           3           3
           4           4           4           4           5           5
           5           5           6           6           6           6
           7           7           7           7           8           8
           8           8           9           9          10          10
          11          11          12          12
Primitive exponents                        R   N=         104
  5.48467166E+03  8.25234946E+02  1.88046958E+02  5.29645000E+01  1.68975704E+01
  5.79963534E+00  1.55396162E+01  3.59993359E+00  1.01376175E+00  2.70005823E-01
  8.00000000E-01  5.48467166E+03  8.25234946E+02  1.88046958E+02  5.29645000E+01
  1.68975704E+01  5.79963534E+00  1.55396162E+01  3.59993359E+00  1.01376175E+00
  2.70005823E-01  8.00000000E-01  5.48467166E+03  8.25234946E+02  1.88046958E+02
  5.29645000E+01  1.68975704E+01  5.79963534E+00  1.55396162E+01  3.59993359E+00
  1.01376175E+00  2.70005823E-01  8.00000000E-01  5.48467166E+03  8.25234946E+02
  1.88046958E+02  5.29645000E+01  1.68975704E+01  5.79963534E+00  1.55396162E+01
  3.59993359E+00  1.01376175E+00  2.70005823E-01  8.00000000E-01  3.04752488E+03
  4.57369518E+02  1.03948685E+02  2.92101553E+01  9.28666296E+00  3.16392696E+00
  7.86827235E+00  1.88128854E+00  5.44249258E-01  1.68714478E-01  8.00000000E-01
  3.04752488E+03  4.57369518E+02  1.03948685E+02  2.92101553E+01  9.28666296E+00
  3.16392696E+00  7.86827235E+00  1.88128854E+00  5.44249258E-01  1.68714478E-01
  8.00000000E-01  3.04752488E+03  4.57369518E+02  1.03948685E+02  2.92101553E+01
  9.28666296E+00  3.16392696E+00  7.86827235E+00  1.88128854E+00  5.44249258E-01
  1.68714478E-01  8.00000000E-01  3.04752488E+03  4.57369518E+02  1.03948685E+02
  2.92101553E+01  9.28666296E+00  3.16392696E+00  7.86827235E+00  1.88128854E+00
  5.44249258E-01  1.68714478E-01  8.00000000E-01  1.87311370E+01  2.82539436E+00
  6.40121692E-01  1.61277759E-01  1.87311370E+01  2.82539436E+00  6.40121692E-01
  1.61277759E-01  1.87311370E+01  2.82539436E+00  6.40121692E-01  1.61277759E-01
  1.87311370E+01  2.82539436E+00  6.40121692E-01  1.61277759E-01
Contraction coefficients                   R   N=         104
  1.83107443E-03  1.39501722E-02  6.84450781E-02  2.32714336E-01  4.70192898E-01
  3.58520853E-01 -1.10777550E-01 -1.48026263E-01  1.13076702E+00  1.00000000E+00
  1.00000000E+00  1.83107443E-03  1.39501722E-02  6.84450781E-02  2.32714336E-01
  4.70192898E-01  3.58520853E-01 -1.10777550E-01 -1.48026263E-01  1.13076702E+00
  1.00000000E+00  1.00000000E+00  1.83107443E-03  1.39501722E-02  6.84450781E-02
  2.32714336E-01  4.70192898E-01  3.58520853E-01 -1.10777550E-01 -1.48026263E-01
  1.13076702E+00  1.00000000E+00  1.00000000E+00  1.83107443E-03  1.39501722E-02
  6.84450781E-02  2.32714336E-01  4.70192898E-01  3.58520853E-01 -1.10777550E-01
 -1.48026263E-01  1.13076702E+00  1.00000000E+00  1.00000000E+00  1.83473713E-03
  1.40373228E-02  6.88426223E-02  2.32184443E-01  4.67941348E-01  3.62311985E-01
 -1.19332420E-01 -1.60854152E-01  1.14345644E+00  1.00000000E+00  1.00000000E+00
  1.83473713E-03  1.40373228E-02  6.88426223E-02  2.32184443E-01  4.67941348E-01
  3.62311985E-01 -1.19332420E-01 -1.60854152E-01  1.14345644E+00  1.00000000E+00
  1.00000000E+00  1.83473713E-03  1.40373228E-02  6.88426223E-02  2.32184443E-01
  4.67941348E-01  3.62311985E-01 -1.19332420E-01 -1.60854152E-01  1.14345644E+00
  1.00000000E+00  1.00000000E+00  1.83473713E-03  1.40373228E-02  6.88426223E-02
  2.32184443E-01  4.67941348E-01  3.62311985E-01 -1.19332420E-01 -1.60854152E-01
  1.14345644E+00  1.00000000E+00  1.00000000E+00  3.34946043E-02  2.34726953E-01
  8.13757326E-01  1.00000000E+00  3.34946043E-02  2.34726953E-01  8.13757326E-01
  1.00000000E+00  3.34946043E-02  2.34726953E-01  8.13757326E-01  1.00000000E+00
  3.34946043E-02  2.34726953E-01  8.13757326E-01  1.00000000E+00
P(S=P) Contraction coefficients            R   N=         104
  0.00000000E+00  0.00000000E+00  0.00000000E+00  0.00000000E+00  0.00000000E+00
  0.00000000E+00  7.08742682E-02  3.39752839E-01  7.27158577E-01  1.00000000E+00
  0.00000000E+00  0.00000000E+00  0.00000000E+00  0.00000000E+00  0.00000000E+00
  0.00000000E+00  0.00000000E+00  7.08742682E-02  3.39752839E-01  7.27158577E-01
  1.00000000E+00  0.00000000E+00  0.00000000E+00  0.00000000E+00  0.00000000E+00
  0.00000000E+00  0.00000000E+00  0.00000000E+00  7.08742682E-02  3.39752839E-01
  7.27158577E-01  1.00000000E+00  0.00000000E+00  0.00000000E+00  0.00000000E+00
  0.00000000E+00  0.00000000E+00  0.00000000E+00  0.00000000E+00  7.08742682E-02
  3.39752839E-01  7.27158577E-01  1.00000000E+00  0.00000000E+00  0.00000000E+00
  0.00000000E+00  0.00000000E+00  0.00000000E+00  0.00000000E+00  0.00000000E+00
  6.89990666E-02  3.16423961E-01  7.44308291E-01  1.00000000E+00  0.00000000E+00
  0.00000000E+00  0.00000000E+00  0.00000000E+00  0.00000000E+00  0.00000000E+00
  0.00000000E+00  6.89990666E-02  3.16423961E-01  7.44308291E-01  1.00000000E+00
  0.00000000E+00  0.00000000E+00  0.00000000E+00  0.00000000E+00  0.00000000E+00
  0.00000000E+00  0.00000000E+00  6.89990666E-02  3.16423961E-01  7.44308291E-01
  1.00000000E+00  0.00000000E+00  0.00000000E+00  0.00000000E+00  0.00000000E+00
  0.00000000E+00  0.00000000E+00  0.00000000E+00  6.89990666E-02  3.16423961E-01
  7.44308291E-01  1.00000000E+00  0.00000000E+00  0.00000000E+00  0.00000000E+00
  0.00000000E+00  0.00000000E+00  0.00000000E+00  0.00000000E+00  0.00000000E+00
  0.00000000E+00  0.00000000E+00  0.00000000E+00  0.00000000E+00  0.00000000E+00
  0.00000000E+00  0.00000000E+00  0.00000000E+00  0.00000000E+00
Coordinates of each shell                  R   N=         120
  3.07879712E+00 -1.17148523E+00  2.10549974E+00  3.07879712E+00 -1.17148523E+00
  2.10549974E+00  3.07879712E+00 -1.17148523E+00  2.10549974E+00  3.07879712E+00
 -1.17148523E+00  2.10549974E+00 -5.21954484E+00 -6.60793679E-02  1.50221908E-01
 -5.21954484E+00 -6.60793679E-02  1.50221908E-01 -5.21954484E+00 -6.60793679E-02
  1.50221908E-01 -5.21954484E+00 -6.60793679E-02  1.50221908E-01  4.13481200E+00
 -2.30425060E-01 -1.95180146E+00  4.13481200E+00 -2.30425060E-01 -1.95180146E+00
  4.13481200E+00 -2.30425060E-01 -1.95180146E+00  4.13481200E+00 -2.30425060E-01
 -1.95180146E+00 -1.64975279E+00 -2.29796405E+00 -6.83773720E-01 -1.64975279E+00
 -2.29796405E+00 -6.83773720E-01 -1.64975279E+00 -2.29796405E+00 -6.83773720E-01
 -1.64975279E+00 -2.29796405E+00 -6.83773720E-01  1.11830149E+00  2.35759584E+00
  2.13997276E-01  1.11830149E+00  2.35759584E+00  2.13997276E-01  1.11830149E+00
  2.35759584E+00  2.13997276E-01  1.11830149E+00  2.35759584E+00  2.13997276E-01
 -1.40853588E+00  2.16869137E+00  1.44478937E-01 -1.40853588E+00  2.16869137E+00
  1.44478937E-01 -1.40853588E+00  2.16869137E+00  1.44478937E-01 -1.40853588E+00
  2.16869137E+00  1.44478937E-01  2.89240357E+00  1.75484987E-01 -5.97809417E-02
  2.89240357E+00  1.75484987E-01 -5.97809417E-02  2.89240357E+00  1.75484987E-01
 -5.97809417E-02  2.89240357E+00  1.75484987E-01 -5.97809417E-02 -2.68429968E+00
 -2.99268263E-01 -1.76338263E-01 -2.68429968E+00 -2.99268263E-01 -1.76338263E-01
 -2.68429968E+00 -2.99268263E-01 -1.76338263E-01 -2.68429968E+00 -2.99268263E-01
 -1.76338263E-01  2.00558536E+00  4.20355450E+00  3.77455289E-01  2.00558536E+00
  4.20355450E+00  3.77455289E-01 -2.59703959E+00  3.83260520E+00  2.99268383E-01
 -2.59703959E+00  3.83260520E+00  2.99268383E-01  4.24636535E+00 -2.56085148E+00
  1.73043925E+00  4.24636535E+00 -2.56085148E+00  1.73043925E+00 -5.91661997E+00
 -1.76270218E+00 -1.02476773E-01 -5.91661997E+00 -1.76270218E+00 -1.02476773E-01
Constraint Structure                       R   N=          36
  3.07879712E+00 -1.17148523E+00  2.10549974E+00 -5.21954484E+00 -6.60793679E-02
  1.50221908E-01  4.13481200E+00 -2.30425060E-01 -1.95180146E+00 -1.64975279E+00
 -2.29796405E+00 -6.83773720E-01  1.11830149E+00  2.35759584E+00  2.13997276E-01
 -1.40853588E+00  2.16869137E+00  1.44478937E-01  2.89240357E+00  1.75484987E-01
 -5.97809417E-02 -2.68429968E+00 -2.99268263E-01 -1.76338263E-01  2.00558536E+00
  4.20355450E+00  3.77455289E-01 -2.59703959E+00  3.83260520E+00  2.99268383E-01
  4.24636535E+00 -2.56085148E+00  1.73043925E+00 -5.91661997E+00 -1.76270218E+00
 -1.02476773E-01
Num ILSW                                   I              100
ILSW                                       I   N=         100
           0           1           0           0           2           0
           0           0           0           0           0          -1
           0           0           0           0           0           0
           0           0           0           0           1           0
           1           0           0           0           0           0
           0           0      100000           0          -1           0
           0           0           0           0           0           0
           0           0           0           1           1           0
           0           0           1           0           0           0
           0           0           4          40           0           0
           0           0           0           0           0           0
           0           0           0           0           0           0
           0           0           0           0           0           0
           0           0           0           0           0           0
           0           0           0           0           0           0
           0           0           0           0           0           0
           0           0           0           0
Num RLSW                                   I               40
RLSW                                       R   N=          40
  1.00000000E+00  1.00000000E+00  1.00000000E+00  1.00000000E+00  1.00000000E+00
  0.00000000E+00  0.00000000E+00  1.00000000E+00  0.00000000E+00  0.00000000E+00
  0.00000000E+00  0.00000000E+00  1.00000000E+00  0.00000000E+00  0.00000000E+00
  0.00000000E+00  0.00000000E+00  1.00000000E+00  0.00000000E+00  0.00000000E+00
  0.00000000E+00  0.00000000E+00  1.00000000E+00  0.00000000E+00  0.00000000E+00
  0.00000000E+00  0.00000000E+00  1.00000000E+00  0.00000000E+00  0.00000000E+00
  0.00000000E+00  0.00000000E+00  0.00000000E+00  0.00000000E+00  0.00000000E+00
  0.00000000E+00  0.00000000E+00  0.00000000E+00  1.00000000E+00  1.00000000E+00
MxBond                                     I                3
NBond                                      I   N=          12
           2           2           1           1           3           3
           3           3           1           1           1           1
IBond                                      I   N=          36
           7          11           0           8          12           0
           7           0           0           8           0           0
           6           7           9           5           8          10
           1           3           5           2           4           6
           5           0           0           6           0           0
           1           0           0           2           0           0
RBond                                      R   N=          36
  1.50000000E+00  1.00000000E+00  0.00000000E+00  1.50000000E+00  1.00000000E+00
  0.00000000E+00  2.00000000E+00  0.00000000E+00  0.00000000E+00  2.00000000E+00
  0.00000000E+00  0.00000000E+00  2.00000000E+00  1.00000000E+00  1.00000000E+00
  2.00000000E+00  1.00000000E+00  1.00000000E+00  1.50000000E+00  2.00000000E+00
  1.00000000E+00  1.50000000E+00  2.00000000E+00  1.00000000E+00  1.00000000E+00
  0.00000000E+00  0.00000000E+00  1.00000000E+00  0.00000000E+00  0.00000000E+00
  1.00000000E+00  0.00000000E+00  0.00000000E+00  1.00000000E+00  0.00000000E+00
  0.00000000E+00
Virial Ratio                               R      2.003409263748409E+00
SCF Energy                                 R     -4.532525943259042E+02
MP2 Energy                                 R     -4.544648647473055E+02
Total Energy                               R     -4.544648647473055E+02
Post-SCF wavefunction norm                 R      1.657073890591499E+00
RMS Force                                  R      5.645927033992063E-07
RMS Density                                R      1.360823842601331E-09
External E-field                           R   N=          35
  0.00000000E+00  0.00000000E+00  0.00000000E+00  0.00000000E+00  0.00000000E+00
  0.00000000E+00  0.00000000E+00  0.00000000E+00  0.00000000E+00  0.00000000E+00
  0.00000000E+00  0.00000000E+00  0.00000000E+00  0.00000000E+00  0.00000000E+00
  0.00000000E+00  0.00000000E+00  0.00000000E+00  0.00000000E+00  0.00000000E+00
  0.00000000E+00  0.00000000E+00  0.00000000E+00  0.00000000E+00  0.00000000E+00
  0.00000000E+00  0.00000000E+00  0.00000000E+00  0.00000000E+00  0.00000000E+00
  0.00000000E+00  0.00000000E+00  0.00000000E+00  0.00000000E+00  0.00000000E+00
IOpCl                                      I                0
IROHF                                      I                0
Alpha Orbital Energies                     R   N=         128
 -2.06331887E+01 -2.06260266E+01 -2.05706295E+01 -2.05655779E+01 -1.14102789E+01
 -1.14092764E+01 -1.12970253E+01 -1.12794596E+01 -1.47104561E+00 -1.46412402E+00
 -1.36709137E+00 -1.36224328E+00 -1.11295363E+00 -9.54996377E-01 -8.57804796E-01
 -7.77781421E-01 -7.29334531E-01 -7.12144970E-01 -7.02880653E-01 -6.61475323E-01
 -6.50986724E-01 -6.36120705E-01 -6.04851273E-01 -5.97889443E-01 -5.72775818E-01
 -4.98572606E-01 -4.79302300E-01 -4.69142455E-01 -4.59795318E-01 -4.10465832E-01
  7.78531027E-02  1.72070958E-01  2.20033561E-01  2.27015267E-01  2.49693412E-01
  2.69320766E-01  3.02304302E-01  3.79595938E-01  4.37280430E-01  4.60814296E-01
  4.90720679E-01  5.36604983E-01  5.82833267E-01  6.03609566E-01  7.15429168E-01
  7.18751715E-01  7.61255185E-01  7.89251894E-01  8.02881502E-01  8.15579924E-01
  8.36974455E-01  8.66261184E-01  8.81728946E-01  9.16221284E-01  9.56632308E-01
  9.73535236E-01  1.02589187E+00  1.06076196E+00  1.09262636E+00  1.09865947E+00
  1.10643559E+00  1.11277080E+00  1.14365853E+00  1.16761098E+00  1.17970831E+00
  1.19910612E+00  1.22024687E+00  1.27018818E+00  1.30609885E+00  1.32574900E+00
  1.35332612E+00  1.37280574E+00  1.40464862E+00  1.50197862E+00  1.51489953E+00
  1.58345223E+00  1.59369809E+00  1.61714175E+00  1.67591034E+00  1.72132780E+00
  1.74828453E+00  1.80263943E+00  1.87473724E+00  1.90844998E+00  1.97841789E+00
  1.98212519E+00  2.00482935E+00  2.03706262E+00  2.05938591E+00  2.07504686E+00
  2.09386978E+00  2.12344057E+00  2.16826988E+00  2.18691172E+00  2.20024354E+00
  2.22520650E+00  2.25575331E+00  2.31069146E+00  2.34404687E+00  2.38555838E+00
  2.40353722E+00  2.57207271E+00  2.58036234E+00  2.63645480E+00  2.72942158E+00
  2.73425703E+00  2.78487964E+00  2.85287588E+00  2.89135043E+00  2.97072306E+00
  2.98673762E+00  2.99932433E+00  3.09401824E+00  3.12391385E+00  3.18637950E+00
  3.26526197E+00  3.33296886E+00  3.40857041E+00  3.42552369E+00  3.55945245E+00
  4.21882208E+00  4.23931988E+00  4.44020894E+00  4.51087788E+00  4.60624565E+00
  4.73746653E+00  4.81354891E+00  4.99157960E+00
Alpha MO coefficients                      R   N=       16384
 -1.63783788E-05 -1.27770612E-05 -1.75339526E-06 -3.54652868E-06  1.57772381E-06
  6.32165307E-05  6.93760577E-06  2.05905288E-05 -2.45037634E-05 -6.41704883E-06
 -5.81441231E-06 -4.32653151E-06 -2.11208368E-06 -1.71603881E-06 -2.24179694E-06
  9.94640096E-01  2.11818762E-02  6.66601092E-04 -1.05929421E-03 -2.81504479E-04
  3.98821794E-03 -2.15044820E-04  6.09770004E-04  1.42892523E-04 -4.12191110E-03
 -4.10107236E-03 -3.95495377E-03 -4.41521033E-05  1.34984565E-05 -3.04661352E-05
 -6.23618893E-06 -2.25913094E-05  1.93528908E-06 -8.46249657E-07 -3.37573208E-06
  1.25500925E-04 -1.61157351E-05  3.39597824E-06  3.80199783E-05 -1.39072068E-05
 -1.75346816E-05 -1.13719774E-05 -1.23055438E-06 -1.64687040E-06 -2.87108882E-07
 -2.76056291E-04  1.23468477E-05  3.96965081E-05 -1.30517173E-05 -8.32256174E-06
 -1.87120198E-04  1.03503940E-04  1.15024534E-06 -5.84666778E-06 -5.66055919E-05
  3.14371645E-05 -1.75687950E-05  5.17865561E-05  1.51109053E-05  6.03199964E-06
  7.63765080E-06  3.98433012E-05  9.51706929E-06  1.24172435E-06 -2.64289753E-06
 -6.86182630E-04  3.33656573E-04  8.39528464E-05  2.64217926E-05  7.07953582E-06
  8.72365858E-06  1.27567780E-05 -1.46524243E-05 -2.45567617E-06 -1.23702590E-06
 -1.00688997E-05 -2.63254007E-06 -2.27291140E-05  2.58005532E-06  3.18887952E-06
  8.49761695E-04  5.14243234E-04 -1.21950362E-04 -2.63926558E-05 -5.25942184E-05
 -4.16798906E-05 -2.96659574E-05 -4.15998292E-05  1.30576598E-06  2.88800924E-06
  3.22897623E-06  1.08533089E-05 -1.16867296E-05  4.77505225E-06  7.34549690E-07
 -1.15034080E-04 -6.13529749E-05  2.03935077E-05  8.58127249E-06  1.13882372E-05
  7.85983661E-07  5.26114799E-06 -9.13828685E-07  2.17313349E-06 -4.15544997E-07
 -2.63120340E-06  3.90164430E-04 -3.10314443E-04  3.66116808E-05  4.15427605E-05
 -1.79137712E-04 -1.10776967E-04 -4.19189678E-04 -8.15492385E-05 -9.99436624E-05
  5.84026991E-06 -5.45352326E-05  8.26531774E-06  7.42389789E-06  1.13317692E-05
  8.69415407E-06 -2.51144183E-05  4.89688015E-05 -1.35490594E-05 -2.27245164E-06
  9.54422829E-06  4.35705629E-04 -2.49600255E-04  9.94644652E-01  2.12023154E-02
  5.95699372E-04 -1.88119065E-04 -1.13324454E-03  3.91445176E-03 -3.34381514E-04
  1.73554640E-04  5.36147309E-04 -3.99848190E-03 -4.07470664E-03 -4.06361462E-03
  1.07111746E-04  1.53870858E-05  4.64437244E-05  1.82810642E-05  1.95197939E-05
 -3.93735190E-07  2.31341896E-06 -2.29985686E-06 -1.27566006E-04 -4.44987176E-05
 -2.08623305E-05  1.47167989E-05  1.42397810E-06  1.63183784E-05  1.10601545E-05
 -3.53863222E-06  4.29234257E-06  3.02946997E-07 -2.74884562E-04  5.65993185E-05
 -4.28736540E-06  1.76195530E-05 -3.80800191E-05 -4.57194237E-04  5.66570228E-05
  5.02220971E-05 -1.24379119E-04  3.98355803E-05  4.24132152E-05 -3.46963494E-05
 -4.38524857E-05  4.92170731E-06  3.25364235E-05 -3.21781430E-05 -1.16143927E-05
  1.74615561E-05  2.58235192E-06  7.08791608E-06  1.25025246E-04 -7.84830041E-05
  5.13642072E-05  9.70697082E-07  8.78620532E-06  2.23202967E-05  1.34309000E-05
 -9.28966112E-06 -8.24303611E-06 -3.02777570E-07  1.11417099E-05  7.56434759E-05
 -5.84444302E-06  6.66064326E-06  1.00590802E-05 -1.02027686E-04  1.11453595E-04
  4.27426535E-05 -7.23062155E-05  1.53778519E-06 -2.97073758E-05  1.01397031E-05
  2.70407159E-05 -1.80151346E-05  3.83172337E-05  1.36280794E-06 -1.34519831E-05
  7.53223255E-06 -1.00083338E-05  3.04130497E-06  6.45025387E-05  1.45860086E-04
 -1.06489497E-06  2.17689320E-05  7.68424089E-06  1.83583136E-05  8.10948382E-06
 -8.77630205E-06  2.49364289E-06 -1.81036284E-06 -6.38063198E-06  3.87937772E-04
  3.19013158E-05 -1.55765383E-04  2.69510438E-04  1.54102101E-04  2.45585609E-04
 -2.70797605E-04 -2.89060713E-04 -3.81385045E-05 -6.35553673E-05 -8.38614451E-05
 -2.79861448E-05 -2.82809425E-05  4.15596323E-05  1.01609844E-07 -1.52916283E-05
  6.98736201E-06  6.86106653E-06  1.58831071E-05 -1.14687759E-05 -1.38578395E-04
  1.72153000E-04  1.26674252E-05  2.85676319E-05 -1.42469606E-05  6.44509000E-06
  2.11525887E-06  2.90077534E-06 -1.03772107E-05  3.87927889E-06 -1.74781753E-05
  1.73367260E-06  2.46165530E-05  4.28884320E-04 -2.58445769E-04 -2.09496647E-07
 -1.68114202E-06  3.81895641E-05 -5.39035146E-07 -1.38899640E-05  1.68763077E-07
 -2.37531232E-06  4.95619420E-05  3.22546207E-05 -1.98475896E-06 -5.36080623E-05
  1.31872419E-05  1.24877487E-05  2.67737722E-05 -2.22438537E-06 -4.00832766E-06
  6.48811358E-06  2.66902932E-04 -6.46556282E-05 -2.78780359E-05  2.70154261E-05
  8.62270331E-06  2.79748647E-04  1.27045753E-04 -2.24422605E-05 -1.85665793E-05
  1.35926227E-05 -6.49105542E-05 -8.68729743E-05  8.69168372E-05  4.35696385E-06
 -5.25575427E-06 -2.04229085E-04 -7.42077643E-05  6.61455646E-06  4.89827989E-06
 -7.69674208E-06  4.07123174E-04 -9.43355318E-05 -1.95290407E-05  1.03662888E-04
 -3.23054414E-05 -4.51005613E-05 -3.68017941E-05  4.81992011E-06 -1.05147959E-05
 -6.16351706E-06  9.94688852E-01  2.09788365E-02 -7.38835627E-04  1.35673093E-03
  3.51874982E-04  4.47793630E-03  4.53667070E-05 -5.10652120E-05 -9.56545472E-06
 -3.86042323E-03 -3.70229142E-03 -4.11794199E-03 -1.30719588E-04 -6.29415369E-05
  1.13698228E-04 -3.12671536E-06 -1.60172671E-05  2.53368115E-05 -3.47455695E-06
 -1.21500463E-06  9.53914834E-05 -6.86302729E-06 -1.68189615E-04 -4.09341207E-05
 -3.34866656E-05  7.08114462E-06 -5.51665982E-07  1.40836120E-05 -2.88012599E-06
  6.58224638E-06  5.69616325E-06  1.36438260E-05 -2.02519465E-05  1.04299577E-05
  5.65770574E-06 -2.93901547E-04  7.23779127E-05  2.22003143E-04  3.08222546E-05
  7.53696774E-05 -4.16054808E-05 -4.22624580E-06  6.29631987E-05  3.74728504E-06
 -1.33311486E-05  1.39615699E-05  5.25346617E-05 -3.08555691E-05 -1.95137783E-05
  4.23151555E-06 -5.49500713E-04  4.30965040E-05  1.34822154E-04  1.27746494E-04
  1.98163740E-05  3.31118129E-05  1.43719059E-05  6.33171437E-06  3.08319336E-06
  2.73691729E-06 -5.06999757E-06  4.99971171E-04 -2.02651428E-05  4.25067840E-05
  1.03938033E-05 -2.74614618E-04  3.85298321E-05  4.93771579E-04  8.96146095E-05
 -2.40791670E-04 -6.11838764E-04 -7.64314708E-05  3.52829842E-04  9.48486002E-05
 -1.67711398E-04  6.51802283E-06  5.17401925E-05  1.94377826E-05 -6.66424545E-05
 -5.81411347E-06  9.35604508E-06 -2.04580379E-05  1.92506776E-06  2.83462121E-04
 -3.21775053E-05 -1.73834987E-05  4.85050702E-06  3.24492051E-05  1.05377220E-04
  1.36702869E-05  1.39696350E-05 -7.27409150E-05 -3.67854417E-05  2.02459662E-05
 -5.97180518E-05 -5.77757009E-05  4.67644606E-05 -5.32878802E-05  6.46881544E-06
  2.34019581E-05  2.05978234E-06  1.82578795E-06 -1.46990187E-06 -1.37099729E-04
 -5.17744779E-05 -8.97112526E-06  9.19934359E-06  4.67307959E-06  1.79282749E-05
  1.63851196E-05 -9.47662649E-07  2.31891914E-06  2.85065265E-07  9.94699875E-01
  2.09931954E-02 -8.43553183E-04  2.64494932E-04  1.33653748E-03  4.42768903E-03
  3.44171913E-05 -3.04404617E-05 -1.80437602E-05 -3.91801269E-03 -3.96433197E-03
 -3.69237827E-03 -1.43341548E-04 -2.33513677E-04  3.86598235E-06  1.90510516E-04
 -2.94338990E-06  4.65696765E-06  2.53873913E-06  1.75561423E-06  5.65856392E-05
 -1.40396796E-05  1.37454592E-05 -1.02825003E-06  4.16239226E-06  3.41407210E-06
  4.71908814E-06 -9.44244875E-07 -3.58646219E-06 -1.90979280E-06  4.28907467E-06
  2.32460959E-05 -6.23919693E-06  8.08223546E-06  2.20793264E-05 -2.74143288E-04
 -1.22083920E-04  8.73637533E-05 -9.30684195E-06 -2.68024863E-05  2.11492233E-05
 -7.82991365E-06 -3.52727112E-06  3.70767479E-05 -4.50852713E-05  3.75959540E-06
  1.07419914E-05  1.78826967E-05 -8.44062640E-06  5.83748482E-06 -7.51750843E-05
 -6.76870026E-06  2.38291942E-05 -1.36920555E-06  1.22499501E-05  5.30345950E-06
  1.31567225E-05 -1.32446074E-06  3.51057379E-06  6.39791193E-06 -7.45188614E-06
  4.75538987E-04 -3.47345192E-05  1.66183686E-05  5.21548027E-05 -2.31154995E-04
 -3.73832797E-04  2.47937008E-04  3.50406172E-04 -2.70929030E-04 -6.68764434E-05
 -6.01050700E-04  8.60684722E-05  4.06784786E-04 -1.16189566E-04  1.66581267E-06
 -1.02223560E-06  6.23253491E-06  2.16962472E-06  5.22360119E-06  3.99045108E-05
 -1.08955081E-04  6.81705429E-05  1.45641370E-05  2.08305704E-05 -3.89996213E-06
  5.82526861E-06  1.23949611E-06 -1.79298397E-06 -1.10363933E-06  1.89445527E-05
  8.83316434E-06  9.61625148E-07 -1.83697463E-05 -1.85688683E-05 -5.74263770E-06
  1.63906015E-06 -6.95462718E-06  5.13404889E-06  4.12859261E-05  1.00925178E-05
  5.74729728E-06  6.15543884E-06 -3.27241435E-04  1.03946507E-04 -1.41601465E-04