12945815                                                                
Freq      RMP2-FC                                                     6-31G(d)            
Number of atoms                            I               16
Info1-9                                    I   N=           9
          28          26        1002           0           0         100
           6           2           1
Charge                                     I                0
Multiplicity                               I                1
Number of electrons                        I               66
Number of alpha electrons                  I               33
Number of beta electrons                   I               33
Number of basis functions                  I              149
Number of independent functions            I              149
Number of point charges in /Mol/           I                0
Number of translation vectors              I                0
Atomic numbers                             I   N=          16
           8           7           7           7           6           6
           6           6           6           1           1           1
           1           1           1           1
Nuclear charges                            R   N=          16
  8.00000000E+00  7.00000000E+00  7.00000000E+00  7.00000000E+00  6.00000000E+00
  6.00000000E+00  6.00000000E+00  6.00000000E+00  6.00000000E+00  1.00000000E+00
  1.00000000E+00  1.00000000E+00  1.00000000E+00  1.00000000E+00  1.00000000E+00
  1.00000000E+00
Current cartesian coordinates              R   N=          48
  2.37025457E+00  3.00816849E+00 -7.97262425E-06 -2.77847479E+00  1.85056644E+00
  5.53388615E-06  3.31969582E+00 -1.25740900E+00  1.90271397E-07 -1.95762740E+00
 -2.28181283E+00 -2.39217115E-07 -9.60396578E-01  3.47127388E-02  8.52750712E-06
  1.73544153E+00  7.50674243E-01  5.14070600E-07 -5.07733571E+00  6.61953042E-01
 -2.02728911E-06 -4.52006663E+00 -1.89359210E+00 -5.34403042E-06  6.04254027E+00
 -9.80310714E-01 -1.15790828E-07 -2.38428342E+00  3.72741003E+00  1.61168966E-05
  2.49803540E+00 -2.99006359E+00  1.38393883E-05 -6.84325094E+00  1.68573301E+00
 -1.79055084E-06 -5.83568616E+00 -3.45854338E+00 -1.35416607E-05  6.45040058E+00
  1.03855119E+00 -1.36746653E-05  6.87325081E+00 -1.84424730E+00 -1.68379408E+00
  6.87324448E+00 -1.84422346E+00  1.68380919E+00
Force Field                                I                0
Int Atom Types                             I   N=          16
           0           0           0           0           0           0
           0           0           0           0           0           0
           0           0           0           0
MM charges                                 R   N=          16
  0.00000000E+00  0.00000000E+00  0.00000000E+00  0.00000000E+00  0.00000000E+00
  0.00000000E+00  0.00000000E+00  0.00000000E+00  0.00000000E+00  0.00000000E+00
  0.00000000E+00  0.00000000E+00  0.00000000E+00  0.00000000E+00  0.00000000E+00
  0.00000000E+00
Integer atomic weights                     I   N=          16
          16          14          14          14          12          12
          12          12          12           1           1           1
           1           1           1           1
Real atomic weights                        R   N=          16
  1.59949146E+01  1.40030740E+01  1.40030740E+01  1.40030740E+01  1.20000000E+01
  1.20000000E+01  1.20000000E+01  1.20000000E+01  1.20000000E+01  1.00782504E+00
  1.00782504E+00  1.00782504E+00  1.00782504E+00  1.00782504E+00  1.00782504E+00
  1.00782504E+00
Atom fragment info                         I   N=          16
           0           0           0           0           0           0
           0           0           0           0           0           0
           0           0           0           0
Atom residue num                           I   N=          16
           0           0           0           0           0           0
           0           0           0           0           0           0
           0           0           0           0
Nuclear spins                              I   N=          16
           0           2           2           2           0           0
           0           0           0           1           1           1
           1           1           1           1
Nuclear ZEff                               R   N=          16
 -5.60000000E+00 -4.55000000E+00 -4.55000000E+00 -4.55000000E+00 -3.60000000E+00
 -3.60000000E+00 -3.60000000E+00 -3.60000000E+00 -3.60000000E+00 -1.00000000E+00
 -1.00000000E+00 -1.00000000E+00 -1.00000000E+00 -1.00000000E+00 -1.00000000E+00
 -1.00000000E+00
Nuclear QMom                               R   N=          16
  0.00000000E+00  2.04400000E+00  2.04400000E+00  2.04400000E+00  0.00000000E+00
  0.00000000E+00  0.00000000E+00  0.00000000E+00  0.00000000E+00  0.00000000E+00
  0.00000000E+00  0.00000000E+00  0.00000000E+00  0.00000000E+00  0.00000000E+00
  0.00000000E+00
Nuclear GFac                               R   N=          16
  0.00000000E+00  4.03761000E-01  4.03761000E-01  4.03761000E-01  0.00000000E+00
  0.00000000E+00  0.00000000E+00  0.00000000E+00  0.00000000E+00  2.79284600E+00
  2.79284600E+00  2.79284600E+00  2.79284600E+00  2.79284600E+00  2.79284600E+00
  2.79284600E+00
MicOpt                                     I   N=          16
          -1          -1          -1          -1          -1          -1
          -1          -1          -1          -1          -1          -1
          -1          -1          -1          -1
Number of contracted shells                I               50
Number of primitive shells                 I              127
Pure/Cartesian d shells                    I                1
Pure/Cartesian f shells                    I                0
Highest angular momentum                   I                2
Largest degree of contraction              I                6
Shell types                                I   N=          50
           0          -1          -1           2           0          -1
          -1           2           0          -1          -1           2
           0          -1          -1           2           0          -1
          -1           2           0          -1          -1           2
           0          -1          -1           2           0          -1
          -1           2           0          -1          -1           2
           0           0           0           0           0           0
           0           0           0           0           0           0
           0           0
Number of primitives per shell             I   N=          50
           6           3           1           1           6           3
           1           1           6           3           1           1
           6           3           1           1           6           3
           1           1           6           3           1           1
           6           3           1           1           6           3
           1           1           6           3           1           1
           3           1           3           1           3           1
           3           1           3           1           3           1
           3           1
Shell to atom map                          I   N=          50
           1           1           1           1           2           2
           2           2           3           3           3           3
           4           4           4           4           5           5
           5           5           6           6           6           6
           7           7           7           7           8           8
           8           8           9           9           9           9
          10          10          11          11          12          12
          13          13          14          14          15          15
          16          16
Primitive exponents                        R   N=         127
  5.48467166E+03  8.25234946E+02  1.88046958E+02  5.29645000E+01  1.68975704E+01
  5.79963534E+00  1.55396162E+01  3.59993359E+00  1.01376175E+00  2.70005823E-01
  8.00000000E-01  4.17351146E+03  6.27457911E+02  1.42902093E+02  4.02343293E+01
  1.28202129E+01  4.39043701E+00  1.16263619E+01  2.71627981E+00  7.72218397E-01
  2.12031498E-01  8.00000000E-01  4.17351146E+03  6.27457911E+02  1.42902093E+02
  4.02343293E+01  1.28202129E+01  4.39043701E+00  1.16263619E+01  2.71627981E+00
  7.72218397E-01  2.12031498E-01  8.00000000E-01  4.17351146E+03  6.27457911E+02
  1.42902093E+02  4.02343293E+01  1.28202129E+01  4.39043701E+00  1.16263619E+01
  2.71627981E+00  7.72218397E-01  2.12031498E-01  8.00000000E-01  3.04752488E+03
  4.57369518E+02  1.03948685E+02  2.92101553E+01  9.28666296E+00  3.16392696E+00
  7.86827235E+00  1.88128854E+00  5.44249258E-01  1.68714478E-01  8.00000000E-01
  3.04752488E+03  4.57369518E+02  1.03948685E+02  2.92101553E+01  9.28666296E+00
  3.16392696E+00  7.86827235E+00  1.88128854E+00  5.44249258E-01  1.68714478E-01
  8.00000000E-01  3.04752488E+03  4.57369518E+02  1.03948685E+02  2.92101553E+01
  9.28666296E+00  3.16392696E+00  7.86827235E+00  1.88128854E+00  5.44249258E-01
  1.68714478E-01  8.00000000E-01  3.04752488E+03  4.57369518E+02  1.03948685E+02
  2.92101553E+01  9.28666296E+00  3.16392696E+00  7.86827235E+00  1.88128854E+00
  5.44249258E-01  1.68714478E-01  8.00000000E-01  3.04752488E+03  4.57369518E+02
  1.03948685E+02  2.92101553E+01  9.28666296E+00  3.16392696E+00  7.86827235E+00
  1.88128854E+00  5.44249258E-01  1.68714478E-01  8.00000000E-01  1.87311370E+01
  2.82539436E+00  6.40121692E-01  1.61277759E-01  1.87311370E+01  2.82539436E+00
  6.40121692E-01  1.61277759E-01  1.87311370E+01  2.82539436E+00  6.40121692E-01
  1.61277759E-01  1.87311370E+01  2.82539436E+00  6.40121692E-01  1.61277759E-01
  1.87311370E+01  2.82539436E+00  6.40121692E-01  1.61277759E-01  1.87311370E+01
  2.82539436E+00  6.40121692E-01  1.61277759E-01  1.87311370E+01  2.82539436E+00
  6.40121692E-01  1.61277759E-01
Contraction coefficients                   R   N=         127
  1.83107443E-03  1.39501722E-02  6.84450781E-02  2.32714336E-01  4.70192898E-01
  3.58520853E-01 -1.10777550E-01 -1.48026263E-01  1.13076702E+00  1.00000000E+00
  1.00000000E+00  1.83477216E-03  1.39946270E-02  6.85865518E-02  2.32240873E-01
  4.69069948E-01  3.60455199E-01 -1.14961182E-01 -1.69117479E-01  1.14585195E+00
  1.00000000E+00  1.00000000E+00  1.83477216E-03  1.39946270E-02  6.85865518E-02
  2.32240873E-01  4.69069948E-01  3.60455199E-01 -1.14961182E-01 -1.69117479E-01
  1.14585195E+00  1.00000000E+00  1.00000000E+00  1.83477216E-03  1.39946270E-02
  6.85865518E-02  2.32240873E-01  4.69069948E-01  3.60455199E-01 -1.14961182E-01
 -1.69117479E-01  1.14585195E+00  1.00000000E+00  1.00000000E+00  1.83473713E-03
  1.40373228E-02  6.88426223E-02  2.32184443E-01  4.67941348E-01  3.62311985E-01
 -1.19332420E-01 -1.60854152E-01  1.14345644E+00  1.00000000E+00  1.00000000E+00
  1.83473713E-03  1.40373228E-02  6.88426223E-02  2.32184443E-01  4.67941348E-01
  3.62311985E-01 -1.19332420E-01 -1.60854152E-01  1.14345644E+00  1.00000000E+00
  1.00000000E+00  1.83473713E-03  1.40373228E-02  6.88426223E-02  2.32184443E-01
  4.67941348E-01  3.62311985E-01 -1.19332420E-01 -1.60854152E-01  1.14345644E+00
  1.00000000E+00  1.00000000E+00  1.83473713E-03  1.40373228E-02  6.88426223E-02
  2.32184443E-01  4.67941348E-01  3.62311985E-01 -1.19332420E-01 -1.60854152E-01
  1.14345644E+00  1.00000000E+00  1.00000000E+00  1.83473713E-03  1.40373228E-02
  6.88426223E-02  2.32184443E-01  4.67941348E-01  3.62311985E-01 -1.19332420E-01
 -1.60854152E-01  1.14345644E+00  1.00000000E+00  1.00000000E+00  3.34946043E-02
  2.34726953E-01  8.13757326E-01  1.00000000E+00  3.34946043E-02  2.34726953E-01
  8.13757326E-01  1.00000000E+00  3.34946043E-02  2.34726953E-01  8.13757326E-01
  1.00000000E+00  3.34946043E-02  2.34726953E-01  8.13757326E-01  1.00000000E+00
  3.34946043E-02  2.34726953E-01  8.13757326E-01  1.00000000E+00  3.34946043E-02
  2.34726953E-01  8.13757326E-01  1.00000000E+00  3.34946043E-02  2.34726953E-01
  8.13757326E-01  1.00000000E+00
P(S=P) Contraction coefficients            R   N=         127
  0.00000000E+00  0.00000000E+00  0.00000000E+00  0.00000000E+00  0.00000000E+00
  0.00000000E+00  7.08742682E-02  3.39752839E-01  7.27158577E-01  1.00000000E+00
  0.00000000E+00  0.00000000E+00  0.00000000E+00  0.00000000E+00  0.00000000E+00
  0.00000000E+00  0.00000000E+00  6.75797439E-02  3.23907296E-01  7.40895140E-01
  1.00000000E+00  0.00000000E+00  0.00000000E+00  0.00000000E+00  0.00000000E+00
  0.00000000E+00  0.00000000E+00  0.00000000E+00  6.75797439E-02  3.23907296E-01
  7.40895140E-01  1.00000000E+00  0.00000000E+00  0.00000000E+00  0.00000000E+00
  0.00000000E+00  0.00000000E+00  0.00000000E+00  0.00000000E+00  6.75797439E-02
  3.23907296E-01  7.40895140E-01  1.00000000E+00  0.00000000E+00  0.00000000E+00
  0.00000000E+00  0.00000000E+00  0.00000000E+00  0.00000000E+00  0.00000000E+00
  6.89990666E-02  3.16423961E-01  7.44308291E-01  1.00000000E+00  0.00000000E+00
  0.00000000E+00  0.00000000E+00  0.00000000E+00  0.00000000E+00  0.00000000E+00
  0.00000000E+00  6.89990666E-02  3.16423961E-01  7.44308291E-01  1.00000000E+00
  0.00000000E+00  0.00000000E+00  0.00000000E+00  0.00000000E+00  0.00000000E+00
  0.00000000E+00  0.00000000E+00  6.89990666E-02  3.16423961E-01  7.44308291E-01
  1.00000000E+00  0.00000000E+00  0.00000000E+00  0.00000000E+00  0.00000000E+00
  0.00000000E+00  0.00000000E+00  0.00000000E+00  6.89990666E-02  3.16423961E-01
  7.44308291E-01  1.00000000E+00  0.00000000E+00  0.00000000E+00  0.00000000E+00
  0.00000000E+00  0.00000000E+00  0.00000000E+00  0.00000000E+00  6.89990666E-02
  3.16423961E-01  7.44308291E-01  1.00000000E+00  0.00000000E+00  0.00000000E+00
  0.00000000E+00  0.00000000E+00  0.00000000E+00  0.00000000E+00  0.00000000E+00
  0.00000000E+00  0.00000000E+00  0.00000000E+00  0.00000000E+00  0.00000000E+00
  0.00000000E+00  0.00000000E+00  0.00000000E+00  0.00000000E+00  0.00000000E+00
  0.00000000E+00  0.00000000E+00  0.00000000E+00  0.00000000E+00  0.00000000E+00
  0.00000000E+00  0.00000000E+00  0.00000000E+00  0.00000000E+00  0.00000000E+00
  0.00000000E+00  0.00000000E+00
Coordinates of each shell                  R   N=         150
  2.37025457E+00  3.00816849E+00 -7.97262425E-06  2.37025457E+00  3.00816849E+00
 -7.97262425E-06  2.37025457E+00  3.00816849E+00 -7.97262425E-06  2.37025457E+00
  3.00816849E+00 -7.97262425E-06 -2.77847479E+00  1.85056644E+00  5.53388615E-06
 -2.77847479E+00  1.85056644E+00  5.53388615E-06 -2.77847479E+00  1.85056644E+00
  5.53388615E-06 -2.77847479E+00  1.85056644E+00  5.53388615E-06  3.31969582E+00
 -1.25740900E+00  1.90271397E-07  3.31969582E+00 -1.25740900E+00  1.90271397E-07
  3.31969582E+00 -1.25740900E+00  1.90271397E-07  3.31969582E+00 -1.25740900E+00
  1.90271397E-07 -1.95762740E+00 -2.28181283E+00 -2.39217115E-07 -1.95762740E+00
 -2.28181283E+00 -2.39217115E-07 -1.95762740E+00 -2.28181283E+00 -2.39217115E-07
 -1.95762740E+00 -2.28181283E+00 -2.39217115E-07 -9.60396578E-01  3.47127388E-02
  8.52750712E-06 -9.60396578E-01  3.47127388E-02  8.52750712E-06 -9.60396578E-01
  3.47127388E-02  8.52750712E-06 -9.60396578E-01  3.47127388E-02  8.52750712E-06
  1.73544153E+00  7.50674243E-01  5.14070600E-07  1.73544153E+00  7.50674243E-01
  5.14070600E-07  1.73544153E+00  7.50674243E-01  5.14070600E-07  1.73544153E+00
  7.50674243E-01  5.14070600E-07 -5.07733571E+00  6.61953042E-01 -2.02728911E-06
 -5.07733571E+00  6.61953042E-01 -2.02728911E-06 -5.07733571E+00  6.61953042E-01
 -2.02728911E-06 -5.07733571E+00  6.61953042E-01 -2.02728911E-06 -4.52006663E+00
 -1.89359210E+00 -5.34403042E-06 -4.52006663E+00 -1.89359210E+00 -5.34403042E-06
 -4.52006663E+00 -1.89359210E+00 -5.34403042E-06 -4.52006663E+00 -1.89359210E+00
 -5.34403042E-06  6.04254027E+00 -9.80310714E-01 -1.15790828E-07  6.04254027E+00
 -9.80310714E-01 -1.15790828E-07  6.04254027E+00 -9.80310714E-01 -1.15790828E-07
  6.04254027E+00 -9.80310714E-01 -1.15790828E-07 -2.38428342E+00  3.72741003E+00
  1.61168966E-05 -2.38428342E+00  3.72741003E+00  1.61168966E-05  2.49803540E+00
 -2.99006359E+00  1.38393883E-05  2.49803540E+00 -2.99006359E+00  1.38393883E-05
 -6.84325094E+00  1.68573301E+00 -1.79055084E-06 -6.84325094E+00  1.68573301E+00
 -1.79055084E-06 -5.83568616E+00 -3.45854338E+00 -1.35416607E-05 -5.83568616E+00
 -3.45854338E+00 -1.35416607E-05  6.45040058E+00  1.03855119E+00 -1.36746653E-05
  6.45040058E+00  1.03855119E+00 -1.36746653E-05  6.87325081E+00 -1.84424730E+00
 -1.68379408E+00  6.87325081E+00 -1.84424730E+00 -1.68379408E+00  6.87324448E+00
 -1.84422346E+00  1.68380919E+00  6.87324448E+00 -1.84422346E+00  1.68380919E+00
Constraint Structure                       R   N=          48
  2.37025457E+00  3.00816849E+00 -7.97262425E-06 -2.77847479E+00  1.85056644E+00
  5.53388615E-06  3.31969582E+00 -1.25740900E+00  1.90271397E-07 -1.95762740E+00
 -2.28181283E+00 -2.39217115E-07 -9.60396578E-01  3.47127388E-02  8.52750712E-06
  1.73544153E+00  7.50674243E-01  5.14070600E-07 -5.07733571E+00  6.61953042E-01
 -2.02728911E-06 -4.52006663E+00 -1.89359210E+00 -5.34403042E-06  6.04254027E+00
 -9.80310714E-01 -1.15790828E-07 -2.38428342E+00  3.72741003E+00  1.61168966E-05
  2.49803540E+00 -2.99006359E+00  1.38393883E-05 -6.84325094E+00  1.68573301E+00
 -1.79055084E-06 -5.83568616E+00 -3.45854338E+00 -1.35416607E-05  6.45040058E+00
  1.03855119E+00 -1.36746653E-05  6.87325081E+00 -1.84424730E+00 -1.68379408E+00
  6.87324448E+00 -1.84422346E+00  1.68380919E+00
Num ILSW                                   I              100
ILSW                                       I   N=         100
           0           1           0           0           2           0
           0           0           0           0           0          -1
           0           0           0           0           0           0
           0           0           0           0           1           0
           1           0           0           0           0           0
           0           0      100000           0          -1           0
           0           0           0           0           0           0
           0           0           0           1           1           0
           0           0           1           0           0           0
           0           0           4          40           0           0
           0           0           0           0           0           0
           0           0           0           0           0           0
           0           0           0           0           0           0
           0           0           0           0           0           0
           0           0           0           0           0           0
           0           0           0           0           0           0
           0           0           0           0
Num RLSW                                   I               40
RLSW                                       R   N=          40
  1.00000000E+00  1.00000000E+00  1.00000000E+00  1.00000000E+00  1.00000000E+00
  0.00000000E+00  0.00000000E+00  1.00000000E+00  0.00000000E+00  0.00000000E+00
  0.00000000E+00  0.00000000E+00  1.00000000E+00  0.00000000E+00  0.00000000E+00
  0.00000000E+00  0.00000000E+00  1.00000000E+00  0.00000000E+00  0.00000000E+00
  0.00000000E+00  0.00000000E+00  1.00000000E+00  0.00000000E+00  0.00000000E+00
  0.00000000E+00  0.00000000E+00  1.00000000E+00  0.00000000E+00  0.00000000E+00
  0.00000000E+00  0.00000000E+00  0.00000000E+00  0.00000000E+00  0.00000000E+00
  0.00000000E+00  0.00000000E+00  0.00000000E+00  1.00000000E+00  1.00000000E+00
MxBond                                     I                4
NBond                                      I   N=          16
           1           3           3           2           3           3
           3           3           4           1           1           1
           1           1           1           1
IBond                                      I   N=          64
           6           0           0           0           5           7
          10           0           6           9          11           0
           5           8           0           0           2           4
           6           0           1           3           5           0
           2           8          12           0           4           7
          13           0           3          14          15          16
           2           0           0           0           3           0
           0           0           7           0           0           0
           8           0           0           0           9           0
           0           0           9           0           0           0
           9           0           0           0
RBond                                      R   N=          64
  2.00000000E+00  0.00000000E+00  0.00000000E+00  0.00000000E+00  1.50000000E+00
  1.50000000E+00  1.00000000E+00  0.00000000E+00  1.00000000E+00  1.00000000E+00
  1.00000000E+00  0.00000000E+00  1.50000000E+00  1.00000000E+00  0.00000000E+00
  0.00000000E+00  1.50000000E+00  1.50000000E+00  1.50000000E+00  0.00000000E+00
  2.00000000E+00  1.00000000E+00  1.50000000E+00  0.00000000E+00  1.50000000E+00
  1.50000000E+00  1.00000000E+00  0.00000000E+00  1.00000000E+00  1.50000000E+00
  1.00000000E+00  0.00000000E+00  1.00000000E+00  1.00000000E+00  1.00000000E+00
  1.00000000E+00  1.00000000E+00  0.00000000E+00  0.00000000E+00  0.00000000E+00
  1.00000000E+00  0.00000000E+00  0.00000000E+00  0.00000000E+00  1.00000000E+00
  0.00000000E+00  0.00000000E+00  0.00000000E+00  1.00000000E+00  0.00000000E+00
  0.00000000E+00  0.00000000E+00  1.00000000E+00  0.00000000E+00  0.00000000E+00
  0.00000000E+00  1.00000000E+00  0.00000000E+00  0.00000000E+00  0.00000000E+00
  1.00000000E+00  0.00000000E+00  0.00000000E+00  0.00000000E+00
Virial Ratio                               R      2.002960642674167E+00
SCF Energy                                 R     -4.316367936689373E+02
MP2 Energy                                 R     -4.329413139750585E+02
Total Energy                               R     -4.329413139750585E+02
Post-SCF wavefunction norm                 R      1.690814492897337E+00
RMS Force                                  R      1.875071692902470E-07
RMS Density                                R      2.223978231232039E-09
External E-field                           R   N=          35
  0.00000000E+00  0.00000000E+00  0.00000000E+00  0.00000000E+00  0.00000000E+00
  0.00000000E+00  0.00000000E+00  0.00000000E+00  0.00000000E+00  0.00000000E+00
  0.00000000E+00  0.00000000E+00  0.00000000E+00  0.00000000E+00  0.00000000E+00
  0.00000000E+00  0.00000000E+00  0.00000000E+00  0.00000000E+00  0.00000000E+00
  0.00000000E+00  0.00000000E+00  0.00000000E+00  0.00000000E+00  0.00000000E+00
  0.00000000E+00  0.00000000E+00  0.00000000E+00  0.00000000E+00  0.00000000E+00
  0.00000000E+00  0.00000000E+00  0.00000000E+00  0.00000000E+00  0.00000000E+00
IOpCl                                      I                0
IROHF                                      I                0
Alpha Orbital Energies                     R   N=         149
 -2.05299514E+01 -1.56383917E+01 -1.55928311E+01 -1.55701879E+01 -1.13652128E+01
 -1.13065695E+01 -1.12787273E+01 -1.12612344E+01 -1.12580037E+01 -1.38151168E+00
 -1.34385677E+00 -1.23465144E+00 -1.17596253E+00 -1.03451922E+00 -9.58745159E-01
 -8.54372800E-01 -8.20685932E-01 -7.93680510E-01 -7.68045466E-01 -6.64557164E-01
 -6.44621332E-01 -6.32975984E-01 -6.09693557E-01 -6.02983824E-01 -5.92595585E-01
 -5.80126248E-01 -5.47743918E-01 -5.30392931E-01 -4.57594931E-01 -4.33188973E-01
 -4.09957619E-01 -3.87682431E-01 -3.23439381E-01  1.16917627E-01  2.12345739E-01
  2.32631987E-01  2.52609390E-01  2.78494424E-01  2.87767421E-01  3.01233071E-01
  3.06125814E-01  3.22414467E-01  3.26344855E-01  3.62953693E-01  3.83229111E-01
  4.18010234E-01  4.74396722E-01  4.85131305E-01  5.32137580E-01  5.78007243E-01
  6.22978029E-01  6.78839445E-01  7.24766380E-01  7.32921980E-01  7.59977942E-01
  7.65915112E-01  7.90415087E-01  7.96449946E-01  8.01266827E-01  8.15755842E-01
  8.58547699E-01  8.60718106E-01  8.85734656E-01  9.35708971E-01  9.44852489E-01
  9.50656478E-01  9.72252561E-01  9.78145233E-01  1.04570043E+00  1.05412265E+00
  1.06279342E+00  1.07414779E+00  1.08172692E+00  1.11033555E+00  1.13024338E+00
  1.13370679E+00  1.15347631E+00  1.16236441E+00  1.20802390E+00  1.22009398E+00
  1.25101495E+00  1.28605333E+00  1.29583667E+00  1.34035098E+00  1.34158806E+00
  1.39747510E+00  1.46184890E+00  1.51096971E+00  1.52750041E+00  1.55498141E+00
  1.58978720E+00  1.60244178E+00  1.62092433E+00  1.64897788E+00  1.69419293E+00
  1.71966373E+00  1.72675766E+00  1.74254038E+00  1.81429164E+00  1.82778425E+00
  1.96448606E+00  2.03166748E+00  2.05743469E+00  2.07461864E+00  2.11943735E+00
  2.16194567E+00  2.18632109E+00  2.24342908E+00  2.27618482E+00  2.29695704E+00
  2.33430057E+00  2.36718381E+00  2.36832229E+00  2.38593062E+00  2.42157449E+00
  2.48471623E+00  2.52063532E+00  2.53514335E+00  2.58325972E+00  2.58644509E+00
  2.60103710E+00  2.64556786E+00  2.66013466E+00  2.67533383E+00  2.72092388E+00
  2.84267237E+00  2.84513396E+00  2.91774658E+00  2.94639945E+00  3.01127612E+00
  3.03851790E+00  3.04012925E+00  3.08608779E+00  3.14365431E+00  3.23455724E+00
  3.26843795E+00  3.34108424E+00  3.36504355E+00  3.59684967E+00  3.63268916E+00
  4.37416072E+00  4.42254801E+00  4.45223586E+00  4.54967234E+00  4.60121288E+00
  4.68815551E+00  4.76998811E+00  4.90271930E+00  5.15123690E+00
Alpha MO coefficients                      R   N=       22201
  9.94691657E-01  2.09550676E-02 -4.16672053E-04 -1.46123900E-03  5.91074743E-09
  4.48738027E-03  3.37555798E-05  8.75976885E-05 -3.36516915E-10 -3.88562988E-03
 -3.71163553E-03 -4.08970894E-03  7.38385016E-05 -8.50605545E-10 -1.64880547E-09
  9.07242538E-07  1.52103211E-05  4.85798309E-06  1.09222607E-06 -1.45965512E-10
 -1.29789804E-04 -1.65630802E-04  1.29889282E-04  2.95269625E-10 -1.01040481E-05
 -2.44912742E-05  8.79637912E-06  2.34076811E-05 -9.11184079E-12  5.12781793E-11
 -1.92309788E-06 -1.73548177E-05 -1.24947392E-05 -1.86003371E-05  9.26661067E-11
 -6.89390682E-05  1.08541676E-05  4.48914427E-06  1.79579121E-10  1.11249716E-04
 -6.87955155E-05 -3.66248027E-05 -4.45923381E-05 -3.58543457E-10  2.77764621E-10
 -2.17394505E-06 -6.33077911E-06  1.19614811E-05  1.76030424E-05  3.67698625E-11
  1.72374672E-04  2.01069447E-05  6.80236707E-05  8.09832672E-10 -1.22507299E-05
  2.66590707E-05 -4.30312083E-06  3.56525223E-06  1.04664903E-10  2.77782472E-10
  4.24443282E-07  7.30448043E-06 -2.79447574E-05 -1.17988800E-05  1.16649931E-10
 -2.96602553E-05 -1.28653105E-04  2.93618432E-04 -1.46517476E-10  1.83777953E-05
 -3.51099829E-05 -1.79647180E-05 -9.23016723E-05  1.29011501E-10  4.72852947E-11
 -3.19048109E-06  5.30287633E-04  2.73014330E-06  2.48064551E-05 -9.84651285E-11
 -3.06898121E-04 -1.52483266E-04 -5.52210391E-04  1.81189129E-09 -8.62730131E-05
 -7.06705623E-04 -5.16852441E-05 -1.86526040E-04  6.43556384E-10  2.71198456E-09
  3.17024166E-08  8.75388167E-07 -3.25247247E-06 -4.33300481E-06 -1.45156534E-11
 -3.20186149E-05  8.94186115E-06 -6.83851996E-05 -2.35994737E-10  2.26355603E-06
 -5.33223525E-06  9.24551410E-07 -5.63569414E-06 -3.71129523E-11 -4.74323339E-11
 -4.93942384E-07 -4.59918037E-07 -5.28325624E-06 -2.46437053E-06 -2.14676703E-11
 -5.47394074E-05  1.57026796E-06 -2.53698776E-05 -1.95743812E-10 -1.70803182E-06
 -1.20140644E-06 -2.29863691E-06 -4.28305856E-06 -5.55538257E-11 -7.23471049E-12
 -6.49998290E-06 -1.08982016E-05  1.62585258E-05  3.95221884E-06  1.51264569E-10
  1.66216310E-04  3.72944600E-05  5.15438832E-05 -8.44308576E-10 -4.96519779E-05
 -1.16822674E-05 -7.52878283E-06 -1.29599744E-05 -7.70395038E-11  2.55940666E-11
  2.68673310E-05 -1.32486577E-04  1.39225447E-05 -1.30315541E-05  4.16290016E-06
  2.76209230E-05  1.81538095E-06 -7.13003203E-07  1.38310568E-05 -1.57830884E-04
 -9.69893261E-06 -1.46850617E-05 -9.69878970E-06 -1.46845509E-05 -3.74764989E-05
 -1.72403627E-04 -1.32740317E-06  1.35677491E-05  3.86583385E-11  1.29090468E-03
 -1.14420911E-04 -2.99765322E-04  1.40599074E-09 -1.31446062E-04 -9.28909281E-05
 -9.07277722E-05  2.29584668E-05  7.01020169E-11 -1.31225550E-10  9.95018437E-01
  2.54300377E-02  8.86691099E-07 -2.19132757E-04  6.17904583E-09 -5.53715658E-03
 -4.12068575E-04  1.84618763E-03 -3.63727114E-09 -3.38491992E-03 -3.27720496E-03
 -3.31893615E-03  5.55626358E-05 -7.28466059E-10  8.76819926E-10  1.89900765E-05
  3.14874665E-05  5.44392314E-05  7.61070359E-06 -3.90470097E-10 -8.80761691E-04
 -1.78402077E-04 -2.12943581E-04  1.20519735E-09  4.66997484E-06  4.11617581E-05
 -1.37507539E-05 -5.37357649E-06 -2.38921285E-10 -2.10654449E-10 -3.26824316E-04
 -2.18893649E-04 -3.07572802E-05 -5.60866642E-05 -8.23211792E-10  1.83082698E-03
  3.58545485E-04  5.45029660E-04  4.79102445E-09 -1.65443780E-05 -6.23086619E-05
 -1.26249161E-04  3.66681340E-05  6.23235345E-10  4.08724676E-10  2.73856612E-05
  1.79447681E-04 -1.39833822E-04  1.89669832E-04  7.28079595E-11  1.80313935E-03
 -1.65028924E-03  2.56913883E-03 -5.01168768E-10 -5.19459056E-05 -8.90512644E-05
 -5.52112037E-05 -1.71377631E-05 -9.10134296E-11 -7.48833011E-10 -1.17907664E-05
 -4.21460203E-05 -3.23831771E-06  6.17237916E-06  6.07693736E-11 -4.15424838E-05
  2.94749658E-04 -1.60930222E-03  2.63853458E-09 -4.99651728E-05 -2.19364301E-05
 -2.50130214E-05  3.95252686E-05  1.47517828E-11 -1.47699848E-10  1.40492711E-05
  1.41213807E-04  2.13685859E-04  1.45505578E-04  8.02590255E-10  2.96881746E-03
  1.78427698E-03 -8.81902897E-04  4.10943457E-09 -1.12095451E-04 -5.75870280E-05
 -7.84234254E-05 -3.20985617E-05  1.95932890E-10 -1.14262140E-10  2.64373889E-05