opt=(Tight,CalcAll)                                                     
Freq      RMP2-FC                                                     6-31G(d)            
Number of atoms                            I                6
Info1-9                                    I   N=           9
          15          15        1002           0           0         100
           6           2           1
Charge                                     I               -2
Multiplicity                               I                1
Number of electrons                        I               46
Number of alpha electrons                  I               23
Number of beta electrons                   I               23
Number of basis functions                  I               90
Number of independent functions            I               90
Number of point charges in /Mol/           I                0
Number of translation vectors              I                0
Atomic numbers                             I   N=           6
           8           8           8           8           6           6
Nuclear charges                            R   N=           6
  8.00000000E+00  8.00000000E+00  8.00000000E+00  8.00000000E+00  6.00000000E+00
  6.00000000E+00
Current cartesian coordinates              R   N=          18
 -1.42582010E+00  1.60859312E+00  2.53375215E+00 -1.42582010E+00 -1.60859312E+00
 -2.53375215E+00  1.42582010E+00 -1.60859312E+00  2.53375215E+00  1.42582010E+00
  1.60859312E+00 -2.53375215E+00  1.01643954E-20 -7.24345519E-19  1.45008284E+00
  1.77565211E-16  2.42238188E-19 -1.45008284E+00
Force Field                                I                0
Int Atom Types                             I   N=           6
           0           0           0           0           0           0
MM charges                                 R   N=           6
  0.00000000E+00  0.00000000E+00  0.00000000E+00  0.00000000E+00  0.00000000E+00
  0.00000000E+00
Integer atomic weights                     I   N=           6
          16          16          16          16          12          12
Real atomic weights                        R   N=           6
  1.59949146E+01  1.59949146E+01  1.59949146E+01  1.59949146E+01  1.20000000E+01
  1.20000000E+01
Atom fragment info                         I   N=           6
           0           0           0           0           0           0
Atom residue num                           I   N=           6
           0           0           0           0           0           0
Nuclear spins                              I   N=           6
           0           0           0           0           0           0
Nuclear ZEff                               R   N=           6
 -5.60000000E+00 -5.60000000E+00 -5.60000000E+00 -5.60000000E+00 -3.60000000E+00
 -3.60000000E+00
Nuclear QMom                               R   N=           6
  0.00000000E+00  0.00000000E+00  0.00000000E+00  0.00000000E+00  0.00000000E+00
  0.00000000E+00
Nuclear GFac                               R   N=           6
  0.00000000E+00  0.00000000E+00  0.00000000E+00  0.00000000E+00  0.00000000E+00
  0.00000000E+00
MicOpt                                     I   N=           6
          -1          -1          -1          -1          -1          -1
Number of contracted shells                I               24
Number of primitive shells                 I               66
Pure/Cartesian d shells                    I                1
Pure/Cartesian f shells                    I                0
Highest angular momentum                   I                2
Largest degree of contraction              I                6
Shell types                                I   N=          24
           0          -1          -1           2           0          -1
          -1           2           0          -1          -1           2
           0          -1          -1           2           0          -1
          -1           2           0          -1          -1           2
Number of primitives per shell             I   N=          24
           6           3           1           1           6           3
           1           1           6           3           1           1
           6           3           1           1           6           3
           1           1           6           3           1           1
Shell to atom map                          I   N=          24
           1           1           1           1           2           2
           2           2           3           3           3           3
           4           4           4           4           5           5
           5           5           6           6           6           6
Primitive exponents                        R   N=          66
  5.48467166E+03  8.25234946E+02  1.88046958E+02  5.29645000E+01  1.68975704E+01
  5.79963534E+00  1.55396162E+01  3.59993359E+00  1.01376175E+00  2.70005823E-01
  8.00000000E-01  5.48467166E+03  8.25234946E+02  1.88046958E+02  5.29645000E+01
  1.68975704E+01  5.79963534E+00  1.55396162E+01  3.59993359E+00  1.01376175E+00
  2.70005823E-01  8.00000000E-01  5.48467166E+03  8.25234946E+02  1.88046958E+02
  5.29645000E+01  1.68975704E+01  5.79963534E+00  1.55396162E+01  3.59993359E+00
  1.01376175E+00  2.70005823E-01  8.00000000E-01  5.48467166E+03  8.25234946E+02
  1.88046958E+02  5.29645000E+01  1.68975704E+01  5.79963534E+00  1.55396162E+01
  3.59993359E+00  1.01376175E+00  2.70005823E-01  8.00000000E-01  3.04752488E+03
  4.57369518E+02  1.03948685E+02  2.92101553E+01  9.28666296E+00  3.16392696E+00
  7.86827235E+00  1.88128854E+00  5.44249258E-01  1.68714478E-01  8.00000000E-01
  3.04752488E+03  4.57369518E+02  1.03948685E+02  2.92101553E+01  9.28666296E+00
  3.16392696E+00  7.86827235E+00  1.88128854E+00  5.44249258E-01  1.68714478E-01
  8.00000000E-01
Contraction coefficients                   R   N=          66
  1.83107443E-03  1.39501722E-02  6.84450781E-02  2.32714336E-01  4.70192898E-01
  3.58520853E-01 -1.10777550E-01 -1.48026263E-01  1.13076702E+00  1.00000000E+00
  1.00000000E+00  1.83107443E-03  1.39501722E-02  6.84450781E-02  2.32714336E-01
  4.70192898E-01  3.58520853E-01 -1.10777550E-01 -1.48026263E-01  1.13076702E+00
  1.00000000E+00  1.00000000E+00  1.83107443E-03  1.39501722E-02  6.84450781E-02
  2.32714336E-01  4.70192898E-01  3.58520853E-01 -1.10777550E-01 -1.48026263E-01
  1.13076702E+00  1.00000000E+00  1.00000000E+00  1.83107443E-03  1.39501722E-02
  6.84450781E-02  2.32714336E-01  4.70192898E-01  3.58520853E-01 -1.10777550E-01
 -1.48026263E-01  1.13076702E+00  1.00000000E+00  1.00000000E+00  1.83473713E-03
  1.40373228E-02  6.88426223E-02  2.32184443E-01  4.67941348E-01  3.62311985E-01
 -1.19332420E-01 -1.60854152E-01  1.14345644E+00  1.00000000E+00  1.00000000E+00
  1.83473713E-03  1.40373228E-02  6.88426223E-02  2.32184443E-01  4.67941348E-01
  3.62311985E-01 -1.19332420E-01 -1.60854152E-01  1.14345644E+00  1.00000000E+00
  1.00000000E+00
P(S=P) Contraction coefficients            R   N=          66
  0.00000000E+00  0.00000000E+00  0.00000000E+00  0.00000000E+00  0.00000000E+00
  0.00000000E+00  7.08742682E-02  3.39752839E-01  7.27158577E-01  1.00000000E+00
  0.00000000E+00  0.00000000E+00  0.00000000E+00  0.00000000E+00  0.00000000E+00
  0.00000000E+00  0.00000000E+00  7.08742682E-02  3.39752839E-01  7.27158577E-01
  1.00000000E+00  0.00000000E+00  0.00000000E+00  0.00000000E+00  0.00000000E+00
  0.00000000E+00  0.00000000E+00  0.00000000E+00  7.08742682E-02  3.39752839E-01
  7.27158577E-01  1.00000000E+00  0.00000000E+00  0.00000000E+00  0.00000000E+00
  0.00000000E+00  0.00000000E+00  0.00000000E+00  0.00000000E+00  7.08742682E-02
  3.39752839E-01  7.27158577E-01  1.00000000E+00  0.00000000E+00  0.00000000E+00
  0.00000000E+00  0.00000000E+00  0.00000000E+00  0.00000000E+00  0.00000000E+00
  6.89990666E-02  3.16423961E-01  7.44308291E-01  1.00000000E+00  0.00000000E+00
  0.00000000E+00  0.00000000E+00  0.00000000E+00  0.00000000E+00  0.00000000E+00
  0.00000000E+00  6.89990666E-02  3.16423961E-01  7.44308291E-01  1.00000000E+00
  0.00000000E+00
Coordinates of each shell                  R   N=          72
 -1.42582010E+00  1.60859312E+00  2.53375215E+00 -1.42582010E+00  1.60859312E+00
  2.53375215E+00 -1.42582010E+00  1.60859312E+00  2.53375215E+00 -1.42582010E+00
  1.60859312E+00  2.53375215E+00 -1.42582010E+00 -1.60859312E+00 -2.53375215E+00
 -1.42582010E+00 -1.60859312E+00 -2.53375215E+00 -1.42582010E+00 -1.60859312E+00
 -2.53375215E+00 -1.42582010E+00 -1.60859312E+00 -2.53375215E+00  1.42582010E+00
 -1.60859312E+00  2.53375215E+00  1.42582010E+00 -1.60859312E+00  2.53375215E+00
  1.42582010E+00 -1.60859312E+00  2.53375215E+00  1.42582010E+00 -1.60859312E+00
  2.53375215E+00  1.42582010E+00  1.60859312E+00 -2.53375215E+00  1.42582010E+00
  1.60859312E+00 -2.53375215E+00  1.42582010E+00  1.60859312E+00 -2.53375215E+00
  1.42582010E+00  1.60859312E+00 -2.53375215E+00  6.77626358E-21 -4.82954364E-19
  1.45008284E+00  6.77626358E-21 -4.82954364E-19  1.45008284E+00  6.77626358E-21
 -4.82954364E-19  1.45008284E+00  6.77626358E-21 -4.82954364E-19  1.45008284E+00
  1.77568599E-16  8.47032947E-22 -1.45008284E+00  1.77568599E-16  8.47032947E-22
 -1.45008284E+00  1.77568599E-16  8.47032947E-22 -1.45008284E+00  1.77568599E-16
  8.47032947E-22 -1.45008284E+00
Constraint Structure                       R   N=          18
 -1.42582010E+00  1.60859312E+00  2.53375215E+00 -1.42582010E+00 -1.60859312E+00
 -2.53375215E+00  1.42582010E+00 -1.60859312E+00  2.53375215E+00  1.42582010E+00
  1.60859312E+00 -2.53375215E+00  6.77626358E-21 -4.82954364E-19  1.45008284E+00
  1.77568599E-16  8.47032947E-22 -1.45008284E+00
Num ILSW                                   I              100
ILSW                                       I   N=         100
           0           1           0           0           2           0
           0           0           0           0           0          -1
           0           0           0           0           0           0
           0           0           0           0           1           0
           1           0           0           0           0           0
           0           0      100000           0          -1           0
           0           0           0           0           0           0
           0           0           0           1           1           0
           0           0           1           0           0           0
           0           0           4          40           0           0
           0           0           0           0           0           0
           0           0           0           0           0           0
           0           0           0           0           0           0
           0           0           0           0           0           0
           0           0           0           0           0           0
           0           0           0           0           0           0
           0           0           0           0
Num RLSW                                   I               40
RLSW                                       R   N=          40
  1.00000000E+00  1.00000000E+00  1.00000000E+00  1.00000000E+00  1.00000000E+00
  0.00000000E+00  0.00000000E+00  1.00000000E+00  0.00000000E+00  0.00000000E+00
  0.00000000E+00  0.00000000E+00  1.00000000E+00  0.00000000E+00  0.00000000E+00
  0.00000000E+00  0.00000000E+00  1.00000000E+00  0.00000000E+00  0.00000000E+00
  0.00000000E+00  0.00000000E+00  1.00000000E+00  0.00000000E+00  0.00000000E+00
  0.00000000E+00  0.00000000E+00  1.00000000E+00  0.00000000E+00  0.00000000E+00
  0.00000000E+00  0.00000000E+00  0.00000000E+00  0.00000000E+00  0.00000000E+00
  0.00000000E+00  0.00000000E+00  0.00000000E+00  1.00000000E+00  1.00000000E+00
MxBond                                     I                3
NBond                                      I   N=           6
           1           1           1           1           3           3
IBond                                      I   N=          18
           5           0           0           6           0           0
           5           0           0           6           0           0
           1           3           6           2           4           5
RBond                                      R   N=          18
  2.00000000E+00  0.00000000E+00  0.00000000E+00  2.00000000E+00  0.00000000E+00
  0.00000000E+00  2.00000000E+00  0.00000000E+00  0.00000000E+00  2.00000000E+00
  0.00000000E+00  0.00000000E+00  2.00000000E+00  2.00000000E+00  1.00000000E+00
  2.00000000E+00  2.00000000E+00  1.00000000E+00
Virial Ratio                               R      2.003249120930826E+00
SCF Energy                                 R     -3.754209039553368E+02
MP2 Energy                                 R     -3.763830688668857E+02
Total Energy                               R     -3.763830688668857E+02
Post-SCF wavefunction norm                 R      1.600886164732098E+00
RMS Force                                  R      8.931507702586285E-08
RMS Density                                R      1.210432740197474E-09
External E-field                           R   N=          35
  0.00000000E+00  0.00000000E+00  0.00000000E+00  0.00000000E+00  0.00000000E+00
  0.00000000E+00  0.00000000E+00  0.00000000E+00  0.00000000E+00  0.00000000E+00
  0.00000000E+00  0.00000000E+00  0.00000000E+00  0.00000000E+00  0.00000000E+00
  0.00000000E+00  0.00000000E+00  0.00000000E+00  0.00000000E+00  0.00000000E+00
  0.00000000E+00  0.00000000E+00  0.00000000E+00  0.00000000E+00  0.00000000E+00
  0.00000000E+00  0.00000000E+00  0.00000000E+00  0.00000000E+00  0.00000000E+00
  0.00000000E+00  0.00000000E+00  0.00000000E+00  0.00000000E+00  0.00000000E+00
IOpCl                                      I                0
IROHF                                      I                0
Alpha Orbital Energies                     R   N=          90
 -2.04563249E+01 -2.04563240E+01 -2.04562936E+01 -2.04562911E+01 -1.12927802E+01
 -1.12922189E+01 -1.33344137E+00 -1.29680894E+00 -1.21680734E+00 -1.21400146E+00
 -8.00134393E-01 -6.31239244E-01 -5.92735728E-01 -5.61031816E-01 -5.58303417E-01
 -4.98546913E-01 -4.93511932E-01 -4.44514534E-01 -3.70393424E-01 -3.66691398E-01
 -3.61400626E-01 -3.47791658E-01 -3.15849376E-01  2.70138778E-01  2.89788233E-01
  4.78331950E-01  5.16538265E-01  6.18736583E-01  6.41923812E-01  6.48842100E-01
  8.44433352E-01  8.53086052E-01  8.65261102E-01  8.98859442E-01  9.76240640E-01
  9.79633969E-01  9.82754559E-01  1.06759792E+00  1.16893471E+00  1.17166026E+00
  1.18478892E+00  1.19589742E+00  1.27640184E+00  1.33828660E+00  1.36264910E+00
  1.36587277E+00  1.36973070E+00  1.44372049E+00  1.45120961E+00  1.45977809E+00
  1.73637408E+00  1.77233038E+00  1.80265815E+00  1.82062497E+00  1.82206859E+00
  1.85109194E+00  2.02694384E+00  2.06813118E+00  2.10440044E+00  2.17022425E+00
  2.18624362E+00  2.19477937E+00  2.19696944E+00  2.27478798E+00  2.28084138E+00
  2.28398541E+00  2.33131615E+00  2.33498013E+00  2.36000104E+00  2.39570391E+00
  2.58457087E+00  2.69564026E+00  2.69819143E+00  2.70017039E+00  2.99668547E+00
  3.15103797E+00  3.16489452E+00  3.20580013E+00  3.21018777E+00  3.32023671E+00
  3.34768338E+00  3.38948843E+00  3.51530778E+00  3.58380013E+00  4.30932923E+00
  4.42028737E+00  4.52608936E+00  4.57841556E+00  4.60432670E+00  5.01749742E+00
Alpha MO coefficients                      R   N=        8100
  4.97350456E-01  1.05124271E-02  3.77218653E-04 -4.23140916E-04 -2.68673951E-04
  1.96836191E-03 -7.97729857E-05  8.33723713E-05  8.39235306E-05 -1.93097967E-03
 -1.92250438E-03 -1.95226587E-03 -6.25788498E-05  1.59523131E-05 -1.43181206E-05
  4.97350456E-01  1.05124271E-02  3.77218653E-04  4.23140916E-04  2.68673951E-04
  1.96836191E-03 -7.97729857E-05 -8.33723713E-05 -8.39235306E-05 -1.93097967E-03
 -1.92250438E-03 -1.95226587E-03  6.25788498E-05 -1.59523131E-05 -1.43181206E-05
 -4.97350456E-01 -1.05124271E-02  3.77218653E-04 -4.23140916E-04  2.68673951E-04
 -1.96836191E-03 -7.97729857E-05  8.33723713E-05 -8.39235306E-05  1.93097967E-03
  1.92250438E-03  1.95226587E-03  6.25788498E-05  1.59523131E-05 -1.43181206E-05
 -4.97350456E-01 -1.05124271E-02  3.77218653E-04  4.23140916E-04 -2.68673951E-04
 -1.96836191E-03 -7.97729857E-05 -8.33723713E-05  8.39235306E-05  1.93097967E-03
  1.92250438E-03  1.95226587E-03 -6.25788498E-05 -1.59523131E-05 -1.43181206E-05
  0.00000000E+00  0.00000000E+00 -9.10341717E-05  1.20721549E-04  0.00000000E+00
  0.00000000E+00  1.15451996E-04 -1.01138557E-04  0.00000000E+00  0.00000000E+00
  0.00000000E+00  0.00000000E+00  0.00000000E+00  1.06631261E-04 -1.90406712E-04
  0.00000000E+00  0.00000000E+00 -9.10341717E-05 -1.20721549E-04  0.00000000E+00
  0.00000000E+00  1.15451996E-04  1.01138557E-04  0.00000000E+00  0.00000000E+00
  0.00000000E+00  0.00000000E+00  0.00000000E+00 -1.06631261E-04 -1.90406712E-04
  4.97351598E-01  1.05149035E-02  3.72280135E-04 -4.26057509E-04 -2.69718917E-04
  1.95399225E-03 -7.68262980E-05  9.42127691E-05  8.76425983E-05 -1.93373387E-03
 -1.91601951E-03 -1.94658630E-03 -5.84811098E-05  1.24493075E-05 -1.92444510E-05
 -4.97351598E-01 -1.05149035E-02 -3.72280135E-04 -4.26057509E-04 -2.69718917E-04
 -1.95399225E-03  7.68262980E-05  9.42127691E-05  8.76425983E-05  1.93373387E-03
  1.91601951E-03  1.94658630E-03 -5.84811098E-05  1.24493075E-05  1.92444510E-05
 -4.97351598E-01 -1.05149035E-02  3.72280135E-04 -4.26057509E-04  2.69718917E-04
 -1.95399225E-03 -7.68262980E-05  9.42127691E-05 -8.76425983E-05  1.93373387E-03
  1.91601951E-03  1.94658630E-03  5.84811098E-05  1.24493075E-05 -1.92444510E-05
  4.97351598E-01  1.05149035E-02 -3.72280135E-04 -4.26057509E-04  2.69718917E-04
  1.95399225E-03  7.68262980E-05  9.42127691E-05 -8.76425983E-05 -1.93373387E-03
 -1.91601951E-03 -1.94658630E-03  5.84811098E-05  1.24493075E-05  1.92444510E-05
  0.00000000E+00  0.00000000E+00 -1.10106789E-04  1.06420993E-04  0.00000000E+00
  0.00000000E+00  8.61963146E-05 -1.26401984E-04  0.00000000E+00  0.00000000E+00
  0.00000000E+00  0.00000000E+00  0.00000000E+00  1.66628185E-04 -1.18139363E-04
  0.00000000E+00  0.00000000E+00  1.10106789E-04  1.06420993E-04  0.00000000E+00
  0.00000000E+00 -8.61963146E-05 -1.26401984E-04  0.00000000E+00  0.00000000E+00
  0.00000000E+00  0.00000000E+00  0.00000000E+00  1.66628185E-04  1.18139363E-04
  4.97340325E-01  1.04672815E-02  3.56110813E-04 -4.04958252E-04 -2.88413439E-04
  2.20317447E-03 -1.19899185E-05  1.82642018E-05  3.61947186E-05 -2.00901769E-03
 -1.99741206E-03 -1.92042461E-03 -5.70066944E-05 -4.03574346E-05  4.30983969E-05
 -4.97340325E-01 -1.04672815E-02 -3.56110813E-04 -4.04958252E-04 -2.88413439E-04
 -2.20317447E-03  1.19899185E-05  1.82642018E-05  3.61947186E-05  2.00901769E-03
  1.99741206E-03  1.92042461E-03 -5.70066944E-05 -4.03574346E-05 -4.30983969E-05
  4.97340325E-01  1.04672815E-02 -3.56110813E-04  4.04958252E-04 -2.88413439E-04
  2.20317447E-03  1.19899185E-05 -1.82642018E-05  3.61947186E-05 -2.00901769E-03
 -1.99741206E-03 -1.92042461E-03 -5.70066944E-05  4.03574346E-05 -4.30983969E-05
 -4.97340325E-01 -1.04672815E-02  3.56110813E-04  4.04958252E-04 -2.88413439E-04
 -2.20317447E-03 -1.19899185E-05 -1.82642018E-05  3.61947186E-05  2.00901769E-03
  1.99741206E-03  1.92042461E-03 -5.70066944E-05  4.03574346E-05  4.30983969E-05
 -1.42383182E-05  4.41012623E-04  0.00000000E+00  0.00000000E+00  3.50906688E-05
  8.13645780E-05  0.00000000E+00  0.00000000E+00 -4.95175009E-04 -2.40859388E-04
 -2.90438803E-04 -9.15097400E-05  2.31643705E-04  0.00000000E+00  0.00000000E+00
  1.42383182E-05 -4.41012623E-04  0.00000000E+00  0.00000000E+00  3.50906688E-05
 -8.13645780E-05  0.00000000E+00  0.00000000E+00 -4.95175009E-04  2.40859388E-04
  2.90438803E-04  9.15097400E-05  2.31643705E-04  0.00000000E+00  0.00000000E+00
  4.97346210E-01  1.04781215E-02  3.61934350E-04 -4.08947834E-04 -3.01135232E-04
  2.17584511E-03 -1.34009325E-05  1.16880356E-05  2.35129276E-05 -1.98343729E-03
 -1.97061846E-03 -1.89921224E-03 -5.53739532E-05 -3.95415470E-05  4.54298074E-05
  4.97346210E-01  1.04781215E-02  3.61934350E-04  4.08947834E-04  3.01135232E-04
  2.17584511E-03 -1.34009325E-05 -1.16880356E-05 -2.35129276E-05 -1.98343729E-03
 -1.97061846E-03 -1.89921224E-03  5.53739532E-05  3.95415470E-05  4.54298074E-05
  4.97346210E-01  1.04781215E-02 -3.61934350E-04  4.08947834E-04 -3.01135232E-04
  2.17584511E-03  1.34009325E-05 -1.16880356E-05  2.35129276E-05 -1.98343729E-03
 -1.97061846E-03 -1.89921224E-03 -5.53739532E-05  3.95415470E-05 -4.54298074E-05
  4.97346210E-01  1.04781215E-02 -3.61934350E-04 -4.08947834E-04  3.01135232E-04
  2.17584511E-03  1.34009325E-05  1.16880356E-05 -2.35129276E-05 -1.98343729E-03
 -1.97061846E-03 -1.89921224E-03  5.53739532E-05 -3.95415470E-05 -4.54298074E-05
  1.30089055E-06  5.49331237E-04  0.00000000E+00  0.00000000E+00  8.84146300E-05
 -4.99254905E-04  0.00000000E+00  0.00000000E+00 -2.13308487E-04 -2.40867054E-04
 -2.90999123E-04 -1.61044917E-04  2.47250800E-04  0.00000000E+00  0.00000000E+00
  1.30089055E-06  5.49331237E-04  0.00000000E+00  0.00000000E+00 -8.84146300E-05
 -4.99254905E-04  0.00000000E+00  0.00000000E+00  2.13308487E-04 -2.40867054E-04
 -2.90999123E-04 -1.61044917E-04 -2.47250800E-04  0.00000000E+00  0.00000000E+00
 -1.90597155E-04  1.04456865E-04  8.28071411E-05 -9.11025734E-05  6.10714727E-05
 -4.45871420E-04 -6.24234983E-04  7.00404353E-04 -1.02649670E-04 -1.30506769E-04
 -1.72721728E-04 -1.74368693E-05  1.91489949E-04  6.49527802E-05 -7.42301694E-05
 -1.90597155E-04  1.04456865E-04  8.28071411E-05  9.11025734E-05 -6.10714727E-05
 -4.45871420E-04 -6.24234983E-04 -7.00404353E-04  1.02649670E-04 -1.30506769E-04
 -1.72721728E-04 -1.74368693E-05 -1.91489949E-04 -6.49527802E-05 -7.42301694E-05
 -1.90597155E-04  1.04456865E-04 -8.28071411E-05  9.11025734E-05  6.10714727E-05
 -4.45871420E-04  6.24234983E-04 -7.00404353E-04 -1.02649670E-04 -1.30506769E-04
 -1.72721728E-04 -1.74368693E-05  1.91489949E-04 -6.49527802E-05  7.42301694E-05
 -1.90597155E-04  1.04456865E-04 -8.28071411E-05 -9.11025734E-05 -6.10714727E-05
 -4.45871420E-04  6.24234983E-04  7.00404353E-04  1.02649670E-04 -1.30506769E-04
 -1.72721728E-04 -1.74368693E-05 -1.91489949E-04  6.49527802E-05  7.42301694E-05
  7.04076137E-01  1.82367712E-02  0.00000000E+00  0.00000000E+00  2.72022457E-04
 -1.94126099E-03  0.00000000E+00  0.00000000E+00  1.19820834E-03 -1.21793260E-03
 -1.07846050E-03 -1.31948240E-03 -7.21444732E-04  0.00000000E+00  0.00000000E+00
  7.04076137E-01  1.82367712E-02  0.00000000E+00  0.00000000E+00 -2.72022457E-04
 -1.94126099E-03  0.00000000E+00  0.00000000E+00 -1.19820834E-03 -1.21793260E-03
 -1.07846050E-03 -1.31948240E-03  7.21444732E-04  0.00000000E+00  0.00000000E+00
 -9.85848818E-05  5.64810399E-04  9.72583467E-05 -1.08794281E-04 -4.65200088E-05
 -2.01396614E-03 -9.76630012E-04  1.09857019E-03  7.98832315E-05  1.88761016E-04
  1.08907047E-04  1.68187015E-04  3.84856049E-04  1.15925301E-04 -1.29516757E-04
  9.85848818E-05 -5.64810399E-04 -9.72583467E-05 -1.08794281E-04 -4.65200088E-05
  2.01396614E-03  9.76630012E-04  1.09857019E-03  7.98832315E-05 -1.88761016E-04
 -1.08907047E-04 -1.68187015E-04  3.84856049E-04  1.15925301E-04  1.29516757E-04
 -9.85848818E-05  5.64810399E-04 -9.72583467E-05  1.08794281E-04 -4.65200088E-05
 -2.01396614E-03  9.76630012E-04 -1.09857019E-03  7.98832315E-05  1.88761016E-04
  1.08907047E-04  1.68187015E-04  3.84856049E-04 -1.15925301E-04  1.29516757E-04
  9.85848818E-05 -5.64810399E-04  9.72583467E-05  1.08794281E-04 -4.65200088E-05
  2.01396614E-03 -9.76630012E-04 -1.09857019E-03  7.98832315E-05 -1.88761016E-04
 -1.08907047E-04 -1.68187015E-04  3.84856049E-04 -1.15925301E-04 -1.29516757E-04
  7.04374045E-01  1.83545880E-02  0.00000000E+00  0.00000000E+00  3.62301733E-04
 -7.48341035E-03  0.00000000E+00  0.00000000E+00  4.86682923E-03 -7.85201794E-04
 -6.16169912E-04 -4.53294529E-04 -8.06759620E-04  0.00000000E+00  0.00000000E+00
 -7.04374045E-01 -1.83545880E-02  0.00000000E+00  0.00000000E+00  3.62301733E-04
  7.48341035E-03  0.00000000E+00  0.00000000E+00  4.86682923E-03  7.85201794E-04
  6.16169912E-04  4.53294529E-04 -8.06759620E-04  0.00000000E+00  0.00000000E+00
 -9.07140203E-02  1.97780800E-01  3.90771347E-02 -4.40101916E-02 -2.86368537E-02
  1.88841760E-01  1.71567850E-02 -1.94761789E-02 -9.79416387E-03  3.16481734E-03
  4.13807935E-03 -4.63642556E-05 -4.79219509E-03 -3.31994711E-03  3.74374314E-03
 -9.07140203E-02  1.97780800E-01  3.90771347E-02  4.40101916E-02  2.86368537E-02
  1.88841760E-01  1.71567850E-02  1.94761789E-02  9.79416387E-03  3.16481734E-03
  4.13807935E-03 -4.63642556E-05  4.79219509E-03  3.31994711E-03  3.74374314E-03
 -9.07140203E-02  1.97780800E-01 -3.90771347E-02  4.40101916E-02 -2.86368537E-02
  1.88841760E-01 -1.71567850E-02  1.94761789E-02 -9.79416387E-03  3.16481734E-03
  4.13807935E-03 -4.63642556E-05 -4.79219509E-03  3.31994711E-03 -3.74374314E-03
 -9.07140203E-02  1.97780800E-01 -3.90771347E-02 -4.40101916E-02  2.86368537E-02
  1.88841760E-01 -1.71567850E-02 -1.94761789E-02  9.79416387E-03  3.16481734E-03
  4.13807935E-03 -4.63642556E-05  4.79219509E-03 -3.31994711E-03 -3.74374314E-03
 -9.92514386E-02  1.92997864E-01  0.00000000E+00  0.00000000E+00  3.23428571E-02
  4.67943368E-02  0.00000000E+00  0.00000000E+00 -1.51449575E-02 -3.85664299E-04
  3.33256913E-03  1.19286952E-03 -1.86753612E-02  0.00000000E+00  0.00000000E+00
 -9.92514386E-02  1.92997864E-01  0.00000000E+00  0.00000000E+00 -3.23428571E-02
  4.67943368E-02  0.00000000E+00  0.00000000E+00  1.51449575E-02 -3.85664299E-04
  3.33256913E-03  1.19286952E-03  1.86753612E-02  0.00000000E+00  0.00000000E+00
 -9.76325673E-02  2.12857982E-01  4.03515947E-02 -4.56541099E-02 -2.25525604E-02
  2.08185490E-01  1.82429465E-02 -2.07391302E-02 -6.26541211E-03  3.46109164E-03
  4.67547665E-03 -5.74281040E-04 -5.67370561E-03 -2.88124004E-03  3.32655518E-03
  9.76325673E-02 -2.12857982E-01 -4.03515947E-02 -4.56541099E-02 -2.25525604E-02
 -2.08185490E-01 -1.82429465E-02 -2.07391302E-02 -6.26541211E-03 -3.46109164E-03
 -4.67547665E-03  5.74281040E-04 -5.67370561E-03 -2.88124004E-03 -3.32655518E-03
 -9.76325673E-02  2.12857982E-01 -4.03515947E-02  4.56541099E-02 -2.25525604E-02
  2.08185490E-01 -1.82429465E-02  2.07391302E-02 -6.26541211E-03  3.46109164E-03
  4.67547665E-03 -5.74281040E-04 -5.67370561E-03  2.88124004E-03 -3.32655518E-03
  9.76325673E-02 -2.12857982E-01  4.03515947E-02  4.56541099E-02 -2.25525604E-02
 -2.08185490E-01  1.82429465E-02  2.07391302E-02 -6.26541211E-03 -3.46109164E-03
 -4.67547665E-03  5.74281040E-04 -5.67370561E-03  2.88124004E-03  3.32655518E-03
 -8.36605852E-02  1.57884419E-01  0.00000000E+00  0.00000000E+00  9.02551682E-02
  6.42153482E-02  0.00000000E+00  0.00000000E+00 -2.52997533E-02  1.16852574E-03
  5.28925801E-03 -1.31956724E-02 -1.98313817E-02  0.00000000E+00  0.00000000E+00
  8.36605852E-02 -1.57884419E-01  0.00000000E+00  0.00000000E+00  9.02551682E-02
 -6.42153482E-02  0.00000000E+00  0.00000000E+00 -2.52997533E-02 -1.16852574E-03
 -5.28925801E-03  1.31956724E-02 -1.98313817E-02  0.00000000E+00  0.00000000E+00
 -1.07438100E-01  2.31291907E-01  2.80800193E-02 -2.88372321E-02 -3.03771563E-02
  2.48109480E-01  1.07550848E-02 -1.16707885E-02 -1.55961230E-02 -9.05234216E-05
  3.38758545E-04  9.70865667E-04 -2.64566198E-03 -3.33791052E-03  3.20437875E-03
  1.07438100E-01 -2.31291907E-01 -2.80800193E-02 -2.88372321E-02 -3.03771563E-02
 -2.48109480E-01 -1.07550848E-02 -1.16707885E-02 -1.55961230E-02  9.05234216E-05
 -3.38758545E-04 -9.70865667E-04 -2.64566198E-03 -3.33791052E-03 -3.20437875E-03
  1.07438100E-01 -2.31291907E-01  2.80800193E-02 -2.88372321E-02  3.03771563E-02
 -2.48109480E-01  1.07550848E-02 -1.16707885E-02  1.55961230E-02  9.05234216E-05
 -3.38758545E-04 -9.70865667E-04  2.64566198E-03 -3.33791052E-03  3.20437875E-03
 -1.07438100E-01  2.31291907E-01 -2.80800193E-02 -2.88372321E-02  3.03771563E-02
  2.48109480E-01 -1.07550848E-02 -1.16707885E-02  1.55961230E-02 -9.05234216E-05
  3.38758545E-04  9.70865667E-04  2.64566198E-03 -3.33791052E-03 -3.20437875E-03
  0.00000000E+00  0.00000000E+00 -1.07412348E-01  1.32945977E-01  0.00000000E+00
  0.00000000E+00  1.17565747E-02 -2.49247673E-03  0.00000000E+00  0.00000000E+00
  0.00000000E+00  0.00000000E+00  0.00000000E+00 -1.67105258E-02  1.57714413E-02
  0.00000000E+00  0.00000000E+00  1.07412348E-01  1.32945977E-01  0.00000000E+00
  0.00000000E+00 -1.17565747E-02 -2.49247673E-03  0.00000000E+00  0.00000000E+00
  0.00000000E+00  0.00000000E+00  0.00000000E+00 -1.67105258E-02 -1.57714413E-02
 -1.07731993E-01  2.32681785E-01  2.51610601E-02 -3.13590215E-02 -2.97674705E-02
  2.47231497E-01  1.00505503E-02 -1.19784541E-02 -1.42895340E-02  8.44571187E-05
  7.72266827E-04  9.78332865E-04 -2.59970527E-03 -2.67679969E-03  3.65290312E-03
 -1.07731993E-01  2.32681785E-01  2.51610601E-02  3.13590215E-02  2.97674705E-02
  2.47231497E-01  1.00505503E-02  1.19784541E-02  1.42895340E-02  8.44571187E-05
  7.72266827E-04  9.78332865E-04  2.59970527E-03  2.67679969E-03  3.65290312E-03
  1.07731993E-01 -2.32681785E-01  2.51610601E-02 -3.13590215E-02  2.97674705E-02
 -2.47231497E-01  1.00505503E-02 -1.19784541E-02  1.42895340E-02 -8.44571187E-05
 -7.72266827E-04 -9.78332865E-04  2.59970527E-03 -2.67679969E-03  3.65290312E-03
  1.07731993E-01 -2.32681785E-01  2.51610601E-02  3.13590215E-02 -2.97674705E-02
 -2.47231497E-01  1.00505503E-02  1.19784541E-02 -1.42895340E-02 -8.44571187E-05
 -7.72266827E-04 -9.78332865E-04 -2.59970527E-03  2.67679969E-03  3.65290312E-03
  0.00000000E+00  0.00000000E+00 -1.18588325E-01  1.21807437E-01  0.00000000E+00
  0.00000000E+00  5.04100810E-04 -1.11688312E-02  0.00000000E+00  0.00000000E+00
  0.00000000E+00  0.00000000E+00  0.00000000E+00 -1.39912306E-02  1.89026005E-02
  0.00000000E+00  0.00000000E+00 -1.18588325E-01 -1.21807437E-01  0.00000000E+00
  0.00000000E+00  5.04100810E-04  1.11688312E-02  0.00000000E+00  0.00000000E+00