
    -----------------------------------------------------------------------
          Psi4: An Open-Source Ab Initio Electronic Structure Package
                               Psi4 1.4a3.dev225 

                         Git: Rev {master} 7105e37 


    D. G. A. Smith, L. A. Burns, A. C. Simmonett, R. M. Parrish,
    M. C. Schieber, R. Galvelis, P. Kraus, H. Kruse, R. Di Remigio,
    A. Alenaizan, A. M. James, S. Lehtola, J. P. Misiewicz, M. Scheurer,
    R. A. Shaw, J. B. Schriber, Y. Xie, Z. L. Glick, D. A. Sirianni,
    J. S. O'Brien, J. M. Waldrop, A. Kumar, E. G. Hohenstein,
    B. P. Pritchard, B. R. Brooks, H. F. Schaefer III, A. Yu. Sokolov,
    K. Patkowski, A. E. DePrince III, U. Bozkaya, R. A. King,
    F. A. Evangelista, J. M. Turney, T. D. Crawford, C. D. Sherrill,
    J. Chem. Phys. 152(18) 184108 (2020). https://doi.org/10.1063/5.0006002

                            Additional Code Authors
    E. T. Seidl, C. L. Janssen, E. F. Valeev, M. L. Leininger,
    J. F. Gonthier, R. M. Richard, H. R. McAlexander, M. Saitow, X. Wang,
    P. Verma, and M. H. Lechner

             Previous Authors, Complete List of Code Contributors,
                       and Citations for Specific Modules
    https://github.com/psi4/psi4/blob/master/codemeta.json
    https://github.com/psi4/psi4/graphs/contributors
    http://psicode.org/psi4manual/master/introduction.html#citing-psifour

    -----------------------------------------------------------------------


    Psi4 started on: Saturday, 27 February 2021 09:03PM

    Process ID: 54637
    Host:       c404-052.stampede2.tacc.utexas.edu
    PSIDATADIR: /home1/07844/xy3866/miniconda3/envs/p4env/share/psi4
    Memory:     500.0 MiB
    Threads:    32
    
  ==> Input File <==

--------------------------------------------------------------------------
#psi4
#
memory 32 gb

molecule  {
0 1
  O       -0.4983720     2.1660820    -0.3008080
  O        1.7439460     0.8852250     1.1595980
  N        2.0846670    -0.6693810    -0.4855240
  C       -0.1747200    -0.1425440     0.1301780
  C       -1.0501490     0.9240530    -0.1297870
  C       -0.6950920    -1.4344860     0.2644570
  C        1.2926210     0.1057900     0.3196980
  C       -2.4223480     0.6871570    -0.2466200
  C       -2.0666220    -1.6719060     0.1573390
  C       -2.9283400    -0.6051620    -0.0964900
  C        3.5272930    -0.5029810    -0.4769650
  H       -0.0118380    -2.2529100     0.4809780
  H       -3.0973410     1.5164000    -0.4561860
  H       -2.4584240    -2.6782030     0.2778980
  H       -3.9991860    -0.7724420    -0.1829770
  H        1.6477640    -1.1074140    -1.2860730
  H        3.8263504     0.3756983    -1.0589080
  H        3.9959260    -1.4118430    -0.8588240
  H        3.8425270    -0.3337350     0.5522170
  H       -1.2204240     2.8028430    -0.4486720
units angstrom
no_reorient  #important for SAPT in psi4, default
symmetry c1  #important for SAPT in psi4, default
}

set PROPERTIES_ORIGIN ["COM"]
properties('MP2/aug-cc-pvtz', properties = ['dipole'])
--------------------------------------------------------------------------

  Memory set to  29.802 GiB by Python driver.
    SCF Algorithm Type (re)set to DF.

*** tstart() called on c404-052.stampede2.tacc.utexas.edu
*** at Sat Feb 27 21:03:07 2021

   => Loading Basis Set <=

    Name: AUG-CC-PVTZ
    Role: ORBITAL
    Keyword: BASIS
    atoms 1-2   entry O          line   331 file /home1/07844/xy3866/miniconda3/envs/p4env/share/psi4/basis/aug-cc-pvtz.gbs 
    atoms 3     entry N          line   285 file /home1/07844/xy3866/miniconda3/envs/p4env/share/psi4/basis/aug-cc-pvtz.gbs 
    atoms 4-11  entry C          line   239 file /home1/07844/xy3866/miniconda3/envs/p4env/share/psi4/basis/aug-cc-pvtz.gbs 
    atoms 12-20 entry H          line    40 file /home1/07844/xy3866/miniconda3/envs/p4env/share/psi4/basis/aug-cc-pvtz.gbs 


         ---------------------------------------------------------
                                   SCF
               by Justin Turney, Rob Parrish, Andy Simmonett
                          and Daniel G. A. Smith
                              RHF Reference
                       32 Threads,  30517 MiB Core
         ---------------------------------------------------------

  ==> Geometry <==

    Molecular point group: c1
    Full point group: C1

    Geometry (in Angstrom), charge = 0, multiplicity = 1:

       Center              X                  Y                   Z               Mass       
    ------------   -----------------  -----------------  -----------------  -----------------
         O           -0.481501111564     2.140534884023    -0.320636070624    15.994914619570
         O            1.760816888436     0.859677884023     1.139769929376    15.994914619570
         N            2.101537888436    -0.694928115977    -0.505352070624    14.003074004430
         C           -0.157849111564    -0.168091115977     0.110349929376    12.000000000000
         C           -1.033278111564     0.898505884023    -0.149615070624    12.000000000000
         C           -0.678221111564    -1.460033115977     0.244628929376    12.000000000000
         C            1.309491888436     0.080242884023     0.299869929376    12.000000000000
         C           -2.405477111564     0.661609884023    -0.266448070624    12.000000000000
         C           -2.049751111564    -1.697453115977     0.137510929376    12.000000000000
         C           -2.911469111564    -0.630709115977    -0.116318070624    12.000000000000
         C            3.544163888436    -0.528528115977    -0.496793070624    12.000000000000
         H            0.005032888436    -2.278457115977     0.461149929376     1.007825032230
         H           -3.080470111564     1.490852884023    -0.476014070624     1.007825032230
         H           -2.441553111564    -2.703750115977     0.258069929376     1.007825032230
         H           -3.982315111564    -0.797989115977    -0.202805070624     1.007825032230
         H            1.664634888436    -1.132961115977    -1.305901070624     1.007825032230
         H            3.843221288436     0.350151184023    -1.078736070624     1.007825032230
         H            4.012796888436    -1.437390115977    -0.878652070624     1.007825032230
         H            3.859397888436    -0.359282115977     0.532388929376     1.007825032230
         H           -1.203553111564     2.777295884023    -0.468500070624     1.007825032230

  Running in c1 symmetry.

  Rotational constants: A =      0.07042  B =      0.02610  C =      0.02078 [cm^-1]
  Rotational constants: A =   2111.08715  B =    782.55364  C =    623.11392 [MHz]
  Nuclear repulsion =  587.219032996065835

  Charge       = 0
  Multiplicity = 1
  Electrons    = 80
  Nalpha       = 40
  Nbeta        = 40

  ==> Algorithm <==

  SCF Algorithm Type is DF.
  DIIS enabled.
  MOM disabled.
  Fractional occupation disabled.
  Guess Type is SAD.
  Energy threshold   = 1.00e-10
  Density threshold  = 1.00e-10
  Integral threshold = 1.00e-12

  ==> Primary Basis <==

  Basis Set: AUG-CC-PVTZ
    Blend: AUG-CC-PVTZ
    Number of shells: 235
    Number of basis functions: 713
    Number of Cartesian functions: 830
    Spherical Harmonics?: true
    Max angular momentum: 3

   => Loading Basis Set <=

    Name: (AUG-CC-PVTZ AUX)
    Role: JKFIT
    Keyword: DF_BASIS_SCF
    atoms 1-2   entry O          line   286 file /home1/07844/xy3866/miniconda3/envs/p4env/share/psi4/basis/aug-cc-pvtz-jkfit.gbs 
    atoms 3     entry N          line   224 file /home1/07844/xy3866/miniconda3/envs/p4env/share/psi4/basis/aug-cc-pvtz-jkfit.gbs 
    atoms 4-11  entry C          line   162 file /home1/07844/xy3866/miniconda3/envs/p4env/share/psi4/basis/aug-cc-pvtz-jkfit.gbs 
    atoms 12-20 entry H          line    70 file /home1/07844/xy3866/miniconda3/envs/p4env/share/psi4/basis/aug-cc-pvtz-jkfit.gbs 

  ==> Integral Setup <==

  DFHelper Memory: AOs need 5.410 GiB; user supplied 22.352 GiB. Using in-core AOs.

  ==> MemDFJK: Density-Fitted J/K Matrices <==

    J tasked:                   Yes
    K tasked:                   Yes
    wK tasked:                   No
    OpenMP threads:              32
    Memory [MiB]:             22888
    Algorithm:                 Core
    Schwarz Cutoff:           1E-12
    Mask sparsity (%):      12.4240
    Fitting Condition:        1E-10

   => Auxiliary Basis Set <=

  Basis Set: (AUG-CC-PVTZ AUX)
    Blend: AUG-CC-PVTZ-JKFIT
    Number of shells: 456
    Number of basis functions: 1558
    Number of Cartesian functions: 1936
    Spherical Harmonics?: true
    Max angular momentum: 4

  Minimum eigenvalue in the overlap matrix is 5.8907823736E-07.
  Reciprocal condition number of the overlap matrix is 3.1705315532E-08.
    Using symmetric orthogonalization.

  ==> Pre-Iterations <==

  SCF Guess: Superposition of Atomic Densities via on-the-fly atomic UHF (no occupation information).

   -------------------------
    Irrep   Nso     Nmo    
   -------------------------
     A        713     713 
   -------------------------
    Total     713     713
   -------------------------

  ==> Iterations <==

                           Total Energy        Delta E     RMS |[F,P]|

   @DF-RHF iter SAD:  -511.65440934546132   -5.11654e+02   0.00000e+00 
   @DF-RHF iter   1:  -512.22570439472815   -5.71295e-01   1.10257e-03 DIIS
   @DF-RHF iter   2:  -512.47870835763240   -2.53004e-01   5.99671e-04 DIIS
   @DF-RHF iter   3:  -512.54638222282949   -6.76739e-02   1.29104e-04 DIIS
   @DF-RHF iter   4:  -512.55088801442264   -4.50579e-03   5.91831e-05 DIIS
   @DF-RHF iter   5:  -512.55183674373097   -9.48729e-04   1.04940e-05 DIIS
   @DF-RHF iter   6:  -512.55190575003917   -6.90063e-05   4.99985e-06 DIIS
   @DF-RHF iter   7:  -512.55192050610992   -1.47561e-05   2.09361e-06 DIIS
   @DF-RHF iter   8:  -512.55192376688535   -3.26078e-06   8.31791e-07 DIIS
   @DF-RHF iter   9:  -512.55192424605980   -4.79174e-07   3.06596e-07 DIIS
   @DF-RHF iter  10:  -512.55192431467469   -6.86149e-08   1.10088e-07 DIIS
   @DF-RHF iter  11:  -512.55192432349111   -8.81641e-09   3.62517e-08 DIIS
   @DF-RHF iter  12:  -512.55192432456727   -1.07616e-09   1.75632e-08 DIIS
   @DF-RHF iter  13:  -512.55192432479009   -2.22826e-10   6.83636e-09 DIIS
   @DF-RHF iter  14:  -512.55192432484387   -5.37739e-11   3.43496e-09 DIIS
   @DF-RHF iter  15:  -512.55192432485876   -1.48930e-11   1.65892e-09 DIIS
   @DF-RHF iter  16:  -512.55192432486263   -3.86535e-12   6.05480e-10 DIIS
   @DF-RHF iter  17:  -512.55192432486217    4.54747e-13   2.47929e-10 DIIS
   @DF-RHF iter  18:  -512.55192432486274   -5.68434e-13   7.06125e-11 DIIS
  Energy and wave function converged.


  ==> Post-Iterations <==

    Orbital Energies [Eh]
    ---------------------

    Doubly Occupied:                                                      

       1A    -20.597708     2A    -20.513089     3A    -15.583551  
       4A    -11.349907     5A    -11.320337     6A    -11.257280  
       7A    -11.256700     8A    -11.255944     9A    -11.249429  
      10A    -11.246508    11A    -11.240359    12A     -1.409919  
      13A     -1.367005    14A     -1.225290    15A     -1.159973  
      16A     -1.046681    17A     -1.017633    18A     -0.950149  
      19A     -0.865102    20A     -0.844133    21A     -0.783148  
      22A     -0.742161    23A     -0.723358    24A     -0.675134  
      25A     -0.647799    26A     -0.636161    27A     -0.619313  
      28A     -0.612942    29A     -0.595900    30A     -0.586496  
      31A     -0.575116    32A     -0.545602    33A     -0.535654  
      34A     -0.522619    35A     -0.510754    36A     -0.489742  
      37A     -0.421399    38A     -0.388634    39A     -0.354287  
      40A     -0.326094  

    Virtual:                                                              

      41A      0.023195    42A      0.027778    43A      0.032158  
      44A      0.042014    45A      0.043756    46A      0.047371  
      47A      0.058842    48A      0.062669    49A      0.068046  
      50A      0.082692    51A      0.088343    52A      0.094495  
      53A      0.097849    54A      0.105286    55A      0.108432  
      56A      0.112482    57A      0.112590    58A      0.114986  
      59A      0.117730    60A      0.125413    61A      0.126867  
      62A      0.129053    63A      0.134417    64A      0.135668  
      65A      0.139618    66A      0.141535    67A      0.147689  
      68A      0.156674    69A      0.158756    70A      0.162060  
      71A      0.163413    72A      0.168898    73A      0.170634  
      74A      0.176038    75A      0.195344    76A      0.199134  
      77A      0.202469    78A      0.209807    79A      0.216621  
      80A      0.220115    81A      0.226024    82A      0.238593  
      83A      0.240975    84A      0.244653    85A      0.249880  
      86A      0.253103    87A      0.256768    88A      0.258754  
      89A      0.267887    90A      0.269190    91A      0.278605  
      92A      0.284615    93A      0.288245    94A      0.290970  
      95A      0.297401    96A      0.299843    97A      0.304057  
      98A      0.311224    99A      0.316116   100A      0.322439  
     101A      0.323812   102A      0.327283   103A      0.330002  
     104A      0.331806   105A      0.343745   106A      0.344677  
     107A      0.347709   108A      0.353182   109A      0.355911  
     110A      0.362219   111A      0.367822   112A      0.370682  
     113A      0.377982   114A      0.385515   115A      0.390612  
     116A      0.398486   117A      0.400630   118A      0.405271  
     119A      0.414421   120A      0.417174   121A      0.425395  
     122A      0.427233   123A      0.430128   124A      0.432764  
     125A      0.435591   126A      0.443994   127A      0.449371  
     128A      0.452272   129A      0.458110   130A      0.458808  
     131A      0.462728   132A      0.466891   133A      0.472195  
     134A      0.475681   135A      0.478743   136A      0.483544  
     137A      0.486013   138A      0.490878   139A      0.494990  
     140A      0.496434   141A      0.504324   142A      0.509272  
     143A      0.513408   144A      0.515928   145A      0.517950  
     146A      0.523504   147A      0.527397   148A      0.528417  
     149A      0.535696   150A      0.536457   151A      0.541250  
     152A      0.548290   153A      0.553290   154A      0.555587  
     155A      0.568449   156A      0.573043   157A      0.575504  
     158A      0.585920   159A      0.595950   160A      0.602111  
     161A      0.604634   162A      0.620676   163A      0.627318  
     164A      0.629387   165A      0.640064   166A      0.643873  
     167A      0.649367   168A      0.655008   169A      0.663106  
     170A      0.673838   171A      0.677053   172A      0.683455  
     173A      0.694359   174A      0.697100   175A      0.705505  
     176A      0.714272   177A      0.721022   178A      0.727766  
     179A      0.733676   180A      0.737932   181A      0.745285  
     182A      0.748019   183A      0.766027   184A      0.767303  
     185A      0.778248   186A      0.786466   187A      0.790413  
     188A      0.798852   189A      0.802390   190A      0.811359  
     191A      0.816854   192A      0.824097   193A      0.830050  
     194A      0.832998   195A      0.841393   196A      0.846409  
     197A      0.853391   198A      0.858291   199A      0.865702  
     200A      0.868241   201A      0.870390   202A      0.879536  
     203A      0.880037   204A      0.890386   205A      0.893690  
     206A      0.896099   207A      0.911120   208A      0.915593  
     209A      0.918437   210A      0.923222   211A      0.925258  
     212A      0.932134   213A      0.934309   214A      0.939983  
     215A      0.947295   216A      0.950189   217A      0.955473  
     218A      0.961653   219A      0.972551   220A      0.973373  
     221A      0.973479   222A      0.984139   223A      0.989468  
     224A      0.997861   225A      1.000763   226A      1.006450  
     227A      1.010061   228A      1.012976   229A      1.025734  
     230A      1.028754   231A      1.034115   232A      1.039082  
     233A      1.050255   234A      1.052079   235A      1.055362  
     236A      1.060743   237A      1.064724   238A      1.074116  
     239A      1.082008   240A      1.085250   241A      1.087917  
     242A      1.096956   243A      1.101956   244A      1.104188  
     245A      1.106608   246A      1.110500   247A      1.118677  
     248A      1.132214   249A      1.136815   250A      1.142876  
     251A      1.149426   252A      1.150686   253A      1.153434  
     254A      1.168621   255A      1.170267   256A      1.177155  
     257A      1.178835   258A      1.181403   259A      1.186315  
     260A      1.194410   261A      1.198455   262A      1.212018  
     263A      1.217144   264A      1.219378   265A      1.224659  
     266A      1.228955   267A      1.230236   268A      1.237056  
     269A      1.243303   270A      1.253163   271A      1.262505  
     272A      1.263518   273A      1.266292   274A      1.278271  
     275A      1.288207   276A      1.298315   277A      1.311781  
     278A      1.317807   279A      1.320898   280A      1.326051  
     281A      1.335737   282A      1.346618   283A      1.361053  
     284A      1.367212   285A      1.371934   286A      1.383272  
     287A      1.388351   288A      1.394678   289A      1.404950  
     290A      1.414145   291A      1.421393   292A      1.425621  
     293A      1.429155   294A      1.442502   295A      1.451515  
     296A      1.458283   297A      1.463833   298A      1.477617  
     299A      1.485155   300A      1.493601   301A      1.508654  
     302A      1.517345   303A      1.518109   304A      1.528653  
     305A      1.532826   306A      1.538087   307A      1.546362  
     308A      1.557288   309A      1.565054   310A      1.573126  
     311A      1.578094   312A      1.581933   313A      1.602002  
     314A      1.606905   315A      1.614094   316A      1.629224  
     317A      1.639005   318A      1.650689   319A      1.652774  
     320A      1.658418   321A      1.666361   322A      1.689069  
     323A      1.694466   324A      1.697872   325A      1.704709  
     326A      1.709247   327A      1.717110   328A      1.723126  
     329A      1.728358   330A      1.736388   331A      1.749516  
     332A      1.756610   333A      1.760186   334A      1.769578  
     335A      1.782885   336A      1.793166   337A      1.795921  
     338A      1.813922   339A      1.819007   340A      1.824895  
     341A      1.835671   342A      1.838224   343A      1.854087  
     344A      1.859631   345A      1.862627   346A      1.874805  
     347A      1.878028   348A      1.881682   349A      1.899040  
     350A      1.900415   351A      1.913131   352A      1.917554  
     353A      1.934103   354A      1.949237   355A      1.956097  
     356A      1.969633   357A      1.983592   358A      1.988206  
     359A      1.991303   360A      2.007185   361A      2.019326  
     362A      2.023967   363A      2.034191   364A      2.041526  
     365A      2.046496   366A      2.058615   367A      2.063804  
     368A      2.076616   369A      2.087888   370A      2.096077  
     371A      2.102358   372A      2.110898   373A      2.117209  
     374A      2.126498   375A      2.135531   376A      2.145598  
     377A      2.161741   378A      2.173633   379A      2.183420  
     380A      2.186314   381A      2.192642   382A      2.202287  
     383A      2.206672   384A      2.220729   385A      2.229353  
     386A      2.241400   387A      2.259522   388A      2.265838  
     389A      2.276733   390A      2.292937   391A      2.308526  
     392A      2.322659   393A      2.345880   394A      2.354563  
     395A      2.358656   396A      2.376937   397A      2.383552  
     398A      2.402361   399A      2.417053   400A      2.420199  
     401A      2.437052   402A      2.445332   403A      2.462326  
     404A      2.473426   405A      2.478812   406A      2.498757  
     407A      2.516374   408A      2.540242   409A      2.557688  
     410A      2.563037   411A      2.574015   412A      2.584273  
     413A      2.594742   414A      2.605519   415A      2.628405  
     416A      2.634354   417A      2.641341   418A      2.659189  
     419A      2.680166   420A      2.680974   421A      2.695216  
     422A      2.707927   423A      2.723811   424A      2.740433  
     425A      2.745951   426A      2.762723   427A      2.776512  
     428A      2.783647   429A      2.802818   430A      2.822032  
     431A      2.840738   432A      2.858418   433A      2.879090  
     434A      2.892551   435A      2.905444   436A      2.915594  
     437A      2.931874   438A      2.963621   439A      2.973452  
     440A      2.998881   441A      3.031545   442A      3.034483  
     443A      3.060947   444A      3.069208   445A      3.091572  
     446A      3.110455   447A      3.122952   448A      3.133573  
     449A      3.153051   450A      3.172333   451A      3.195449  
     452A      3.226170   453A      3.239905   454A      3.269905  
     455A      3.284633   456A      3.297772   457A      3.303466  
     458A      3.328640   459A      3.337277   460A      3.367516  
     461A      3.382302   462A      3.393256   463A      3.403690  
     464A      3.410064   465A      3.424420   466A      3.434409  
     467A      3.447322   468A      3.461584   469A      3.472204  
     470A      3.482397   471A      3.491113   472A      3.498137  
     473A      3.515721   474A      3.524594   475A      3.529839  
     476A      3.551608   477A      3.557579   478A      3.564592  
     479A      3.579237   480A      3.594495   481A      3.596249  
     482A      3.619586   483A      3.645342   484A      3.647538  
     485A      3.661140   486A      3.675807   487A      3.676873  
     488A      3.690979   489A      3.703802   490A      3.717200  
     491A      3.727717   492A      3.739843   493A      3.753143  
     494A      3.772302   495A      3.780347   496A      3.783018  
     497A      3.790730   498A      3.814570   499A      3.815428  
     500A      3.830542   501A      3.844711   502A      3.849418  
     503A      3.862584   504A      3.873036   505A      3.883664  
     506A      3.890239   507A      3.893961   508A      3.903923  
     509A      3.915310   510A      3.926577   511A      3.937551  
     512A      3.951399   513A      3.959207   514A      3.965701  
     515A      3.974852   516A      3.978023   517A      3.997468  
     518A      4.010115   519A      4.016259   520A      4.023809  
     521A      4.046074   522A      4.070999   523A      4.076150  
     524A      4.080401   525A      4.096724   526A      4.104517  
     527A      4.116379   528A      4.117563   529A      4.124709  
     530A      4.140559   531A      4.146232   532A      4.161397  
     533A      4.172699   534A      4.177418   535A      4.200786  
     536A      4.216932   537A      4.223802   538A      4.238184  
     539A      4.249459   540A      4.264122   541A      4.276818  
     542A      4.292042   543A      4.297375   544A      4.310403  
     545A      4.317934   546A      4.332656   547A      4.339997  
     548A      4.350802   549A      4.355480   550A      4.365352  
     551A      4.375428   552A      4.388803   553A      4.399575  
     554A      4.402597   555A      4.415383   556A      4.441523  
     557A      4.446173   558A      4.450238   559A      4.468181  
     560A      4.480418   561A      4.493721   562A      4.506056  
     563A      4.526993   564A      4.539353   565A      4.543899  
     566A      4.558961   567A      4.572584   568A      4.584815  
     569A      4.588176   570A      4.609720   571A      4.616649  
     572A      4.641350   573A      4.652014   574A      4.667134  
     575A      4.692918   576A      4.698118   577A      4.705406  
     578A      4.715729   579A      4.751765   580A      4.755194  
     581A      4.765096   582A      4.780751   583A      4.788729  
     584A      4.809380   585A      4.823686   586A      4.835417  
     587A      4.850900   588A      4.859807   589A      4.868125  
     590A      4.896355   591A      4.903067   592A      4.932236  
     593A      4.936046   594A      4.960168   595A      4.967219  
     596A      4.975145   597A      4.986301   598A      4.998685  
     599A      5.014055   600A      5.050709   601A      5.054245  
     602A      5.070876   603A      5.077278   604A      5.088109  
     605A      5.106632   606A      5.125567   607A      5.139300  
     608A      5.149587   609A      5.152728   610A      5.166048  
     611A      5.173305   612A      5.193678   613A      5.210252  
     614A      5.237140   615A      5.244162   616A      5.261541  
     617A      5.291175   618A      5.303325   619A      5.316579  
     620A      5.321033   621A      5.347243   622A      5.370270  
     623A      5.377292   624A      5.383730   625A      5.402154  
     626A      5.428570   627A      5.434599   628A      5.439634  
     629A      5.466494   630A      5.471630   631A      5.533872  
     632A      5.545834   633A      5.604507   634A      5.618454  
     635A      5.639166   636A      5.651226   637A      5.675481  
     638A      5.706596   639A      5.723281   640A      5.733768  
     641A      5.797074   642A      5.802292   643A      5.814755  
     644A      5.857443   645A      5.860846   646A      5.907214  
     647A      5.956941   648A      6.016911   649A      6.057899  
     650A      6.101597   651A      6.120320   652A      6.146423  
     653A      6.168489   654A      6.190610   655A      6.206901  
     656A      6.212678   657A      6.232823   658A      6.274640  
     659A      6.296966   660A      6.333036   661A      6.345454  
     662A      6.388160   663A      6.445666   664A      6.473100  
     665A      6.510474   666A      6.648810   667A      6.687045  
     668A      6.714523   669A      6.756207   670A      6.768905  
     671A      6.782831   672A      6.804261   673A      6.826701  
     674A      6.842592   675A      6.887896   676A      6.910025  
     677A      6.917974   678A      6.961656   679A      7.007387  
     680A      7.056818   681A      7.069972   682A      7.102107  
     683A      7.198909   684A      7.245319   685A      7.281926  
     686A      7.296027   687A      7.445719   688A      7.469646  
     689A      7.478438   690A      7.531537   691A      7.611574  
     692A      7.643980   693A      7.692431   694A      7.721046  
     695A      7.749376   696A      7.773050   697A      7.810612  
     698A      7.976691   699A      8.018047   700A      8.074195  
     701A      8.406751   702A      8.659504   703A     15.521104  
     704A     15.993661   705A     16.228518   706A     16.361903  
     707A     17.403130   708A     18.328656   709A     18.908200  
     710A     19.322052   711A     19.685756   712A     20.095855  
     713A     21.186503  

    Final Occupation by Irrep:
              A 
    DOCC [    40 ]

  @DF-RHF Final Energy:  -512.55192432486274

   => Energetics <=

    Nuclear Repulsion Energy =            587.2190329960658346
    One-Electron Energy =               -1863.4438996724272783
    Two-Electron Energy =                 763.6729423514987047
    Total Energy =                       -512.5519243248627390

Computation Completed

*** tstop() called on c404-052.stampede2.tacc.utexas.edu at Sat Feb 27 21:03:50 2021
Module time:
	user time   =     795.43 seconds =      13.26 minutes
	system time =      54.91 seconds =       0.92 minutes
	total time  =         43 seconds =       0.72 minutes
Total time:
	user time   =     795.43 seconds =      13.26 minutes
	system time =      54.91 seconds =       0.92 minutes
	total time  =         43 seconds =       0.72 minutes
   => Loading Basis Set <=

    Name: (AUG-CC-PVTZ AUX)
    Role: RIFIT
    Keyword: DF_BASIS_MP2
    atoms 1-2   entry O          line   264 file /home1/07844/xy3866/miniconda3/envs/p4env/share/psi4/basis/aug-cc-pvtz-ri.gbs 
    atoms 3     entry N          line   206 file /home1/07844/xy3866/miniconda3/envs/p4env/share/psi4/basis/aug-cc-pvtz-ri.gbs 
    atoms 4-11  entry C          line   148 file /home1/07844/xy3866/miniconda3/envs/p4env/share/psi4/basis/aug-cc-pvtz-ri.gbs 
    atoms 12-20 entry H          line    30 file /home1/07844/xy3866/miniconda3/envs/p4env/share/psi4/basis/aug-cc-pvtz-ri.gbs 


*** tstart() called on c404-052.stampede2.tacc.utexas.edu
*** at Sat Feb 27 21:03:51 2021


  //>>>>>>>>>>>>>>>>>>>>>>>>>>>>>>>>>>>//
  //               DFMP2               //
  //<<<<<<<<<<<<<<<<<<<<<<<<<<<<<<<<<<<//

	 --------------------------------------------------------
	                          DF-MP2                         
	      2nd-Order Density-Fitted Moller-Plesset Theory     
	              RMP2 Wavefunction,  32 Threads             
	                                                         
	        Rob Parrish, Justin Turney, Andy Simmonett,      
	           Ed Hohenstein, and C. David Sherrill          
	 --------------------------------------------------------

   => Auxiliary Basis Set <=

  Basis Set: (AUG-CC-PVTZ AUX)
    Blend: AUG-CC-PVTZ-RI
    Number of shells: 434
    Number of basis functions: 1580
    Number of Cartesian functions: 1991
    Spherical Harmonics?: true
    Max angular momentum: 4

	 --------------------------------------------------------
	                 NBF =   713, NAUX =  1580
	 --------------------------------------------------------
	   CLASS    FOCC     OCC    AOCC    AVIR     VIR    FVIR
	   PAIRS       0      40      40     673     673       0
	 --------------------------------------------------------

  DFHelper Memory: AOs need 5.677 GiB; user supplied 22.352 GiB. Using in-core AOs.


         ------------------------------------------------------------
                                     CPHF                           
                                  Rob Parrish                       
         ------------------------------------------------------------

  ==> Geometry <==

    Molecular point group: c1
    Full point group: C1

    Geometry (in Angstrom), charge = 0, multiplicity = 1:

       Center              X                  Y                   Z               Mass       
    ------------   -----------------  -----------------  -----------------  -----------------
         O           -0.481501111564     2.140534884023    -0.320636070624    15.994914619570
         O            1.760816888436     0.859677884023     1.139769929376    15.994914619570
         N            2.101537888436    -0.694928115977    -0.505352070624    14.003074004430
         C           -0.157849111564    -0.168091115977     0.110349929376    12.000000000000
         C           -1.033278111564     0.898505884023    -0.149615070624    12.000000000000
         C           -0.678221111564    -1.460033115977     0.244628929376    12.000000000000
         C            1.309491888436     0.080242884023     0.299869929376    12.000000000000
         C           -2.405477111564     0.661609884023    -0.266448070624    12.000000000000
         C           -2.049751111564    -1.697453115977     0.137510929376    12.000000000000
         C           -2.911469111564    -0.630709115977    -0.116318070624    12.000000000000
         C            3.544163888436    -0.528528115977    -0.496793070624    12.000000000000
         H            0.005032888436    -2.278457115977     0.461149929376     1.007825032230
         H           -3.080470111564     1.490852884023    -0.476014070624     1.007825032230
         H           -2.441553111564    -2.703750115977     0.258069929376     1.007825032230
         H           -3.982315111564    -0.797989115977    -0.202805070624     1.007825032230
         H            1.664634888436    -1.132961115977    -1.305901070624     1.007825032230
         H            3.843221288436     0.350151184023    -1.078736070624     1.007825032230
         H            4.012796888436    -1.437390115977    -0.878652070624     1.007825032230
         H            3.859397888436    -0.359282115977     0.532388929376     1.007825032230
         H           -1.203553111564     2.777295884023    -0.468500070624     1.007825032230

  Nuclear repulsion =  587.219032996065835
  Reference energy  = -512.551924324862739

  ==> Basis Set <==

  Basis Set: AUG-CC-PVTZ
    Blend: AUG-CC-PVTZ
    Number of shells: 235
    Number of basis functions: 713
    Number of Cartesian functions: 830
    Spherical Harmonics?: true
    Max angular momentum: 3

  ==> CGRSolver (by Rob Parrish) <==

   Number of roots    =         1
   Preconditioning    =    JACOBI
   Convergence cutoff =     1E-06
   Maximum iterations =       100

  ==> CPHFRHamiltonian (by Rob Parrish) <== 

  ==> MemDFJK: Density-Fitted J/K Matrices <==

    J tasked:                   Yes
    K tasked:                   Yes
    wK tasked:                   No
    OpenMP threads:              32
    Memory [MiB]:             22888
    Algorithm:                 Core
    Schwarz Cutoff:           1E-12
    Mask sparsity (%):       7.8876
    Fitting Condition:        1E-10

   => Auxiliary Basis Set <=

  Basis Set: (AUG-CC-PVTZ AUX)
    Blend: AUG-CC-PVTZ-JKFIT
    Number of shells: 456
    Number of basis functions: 1558
    Number of Cartesian functions: 1936
    Spherical Harmonics?: true
    Max angular momentum: 4

  ==> CPHF Iterations <==

  => Iterations <=

             Iter  Converged  Remaining    Residual
  CGR           1          0          1   1.157E-01
  CGR           2          0          1   3.807E-02
  CGR           3          0          1   1.884E-02
  CGR           4          0          1   8.281E-03
  CGR           5          0          1   4.122E-03
  CGR           6          0          1   1.745E-03
  CGR           7          0          1   5.112E-04
  CGR           8          0          1   1.637E-04
  CGR           9          0          1   5.564E-05
  CGR          10          0          1   1.860E-05
  CGR          11          0          1   8.366E-06
  CGR          12          0          1   3.450E-06
  CGR          13          0          1   1.596E-06
  CGR          14          1          0   5.479E-07

    CGRSolver converged.

	-----------------------------------------------------------
	 ==================> DF-MP2 Energies <==================== 
	-----------------------------------------------------------
	 Reference Energy          =    -512.5519243248627390 [Eh]
	 Singles Energy            =      -0.0000000000000000 [Eh]
	 Same-Spin Energy          =      -0.5370789302565826 [Eh]
	 Opposite-Spin Energy      =      -1.6461058964030424 [Eh]
	 Correlation Energy        =      -2.1831848266596250 [Eh]
	 Total Energy              =    -514.7351091515223516 [Eh]
	-----------------------------------------------------------
	 ================> DF-SCS-MP2 Energies <================== 
	-----------------------------------------------------------
	 SCS Same-Spin Scale       =       0.3333333333333333 [-]
	 SCS Opposite-Spin Scale   =       1.2000000000000000 [-]
	 SCS Same-Spin Energy      =      -0.1790263100855275 [Eh]
	 SCS Opposite-Spin Energy  =      -1.9753270756836507 [Eh]
	 SCS Correlation Energy    =      -2.1543533857691783 [Eh]
	 SCS Total Energy          =    -514.7062777106318663 [Eh]
	-----------------------------------------------------------



Properties will be evaluated at   0.000000,   0.000000,  -0.000000 [a0]

Properties computed using the MP2 density matrix

  Nuclear Dipole Moment: [e a0]
     X:     2.5098      Y:    -3.8192      Z:    -2.9561

  Electronic Dipole Moment: [e a0]
     X:    -3.1806      Y:     3.1976      Z:     1.7887

  Dipole Moment: [e a0]
     X:    -0.6707      Y:    -0.6216      Z:    -1.1674     Total:     1.4829

  Dipole Moment: [D]
     X:    -1.7048      Y:    -1.5801      Z:    -2.9672     Total:     3.7692


*** tstop() called on c404-052.stampede2.tacc.utexas.edu at Sat Feb 27 21:08:11 2021
Module time:
	user time   =    2383.45 seconds =      39.72 minutes
	system time =      76.07 seconds =       1.27 minutes
	total time  =        260 seconds =       4.33 minutes
Total time:
	user time   =    3179.88 seconds =      53.00 minutes
	system time =     131.00 seconds =       2.18 minutes
	total time  =        304 seconds =       5.07 minutes

    Psi4 stopped on: Saturday, 27 February 2021 09:08PM
    Psi4 wall time for execution: 0:05:05.00

*** Psi4 exiting successfully. Buy a developer a beer!
