
    -----------------------------------------------------------------------
          Psi4: An Open-Source Ab Initio Electronic Structure Package
                               Psi4 1.4a3.dev225 

                         Git: Rev {master} 7105e37 


    D. G. A. Smith, L. A. Burns, A. C. Simmonett, R. M. Parrish,
    M. C. Schieber, R. Galvelis, P. Kraus, H. Kruse, R. Di Remigio,
    A. Alenaizan, A. M. James, S. Lehtola, J. P. Misiewicz, M. Scheurer,
    R. A. Shaw, J. B. Schriber, Y. Xie, Z. L. Glick, D. A. Sirianni,
    J. S. O'Brien, J. M. Waldrop, A. Kumar, E. G. Hohenstein,
    B. P. Pritchard, B. R. Brooks, H. F. Schaefer III, A. Yu. Sokolov,
    K. Patkowski, A. E. DePrince III, U. Bozkaya, R. A. King,
    F. A. Evangelista, J. M. Turney, T. D. Crawford, C. D. Sherrill,
    J. Chem. Phys. 152(18) 184108 (2020). https://doi.org/10.1063/5.0006002

                            Additional Code Authors
    E. T. Seidl, C. L. Janssen, E. F. Valeev, M. L. Leininger,
    J. F. Gonthier, R. M. Richard, H. R. McAlexander, M. Saitow, X. Wang,
    P. Verma, and M. H. Lechner

             Previous Authors, Complete List of Code Contributors,
                       and Citations for Specific Modules
    https://github.com/psi4/psi4/blob/master/codemeta.json
    https://github.com/psi4/psi4/graphs/contributors
    http://psicode.org/psi4manual/master/introduction.html#citing-psifour

    -----------------------------------------------------------------------


    Psi4 started on: Saturday, 27 February 2021 10:17PM

    Process ID: 66539
    Host:       c404-052.stampede2.tacc.utexas.edu
    PSIDATADIR: /home1/07844/xy3866/miniconda3/envs/p4env/share/psi4
    Memory:     500.0 MiB
    Threads:    32
    
  ==> Input File <==

--------------------------------------------------------------------------
#psi4
#
memory 32 gb

molecule  {
0 1
  O       -0.4983720     2.1660820    -0.3008080
  O        1.7439460     0.8852250     1.1595980
  N        2.0846670    -0.6693810    -0.4855240
  C       -0.1747200    -0.1425440     0.1301780
  C       -1.0501490     0.9240530    -0.1297870
  C       -0.6950920    -1.4344860     0.2644570
  C        1.2193255    -0.0207908     0.1832976
  C       -2.4223480     0.6871570    -0.2466200
  C       -2.0666220    -1.6719060     0.1573390
  C       -2.9283400    -0.6051620    -0.0964900
  C        3.5272930    -0.5029810    -0.4769650
  H       -0.0118380    -2.2529100     0.4809780
  H       -3.0973410     1.5164000    -0.4561860
  H       -2.4584240    -2.6782030     0.2778980
  H       -3.9991860    -0.7724420    -0.1829770
  H        1.6477640    -1.1074140    -1.2860730
  H        3.8478870     0.3529870    -1.0808760
  H        3.9959260    -1.4118430    -0.8588240
  H        3.8425270    -0.3337350     0.5522170
  H       -1.2204240     2.8028430    -0.4486720
units angstrom
no_reorient  #important for SAPT in psi4, default
symmetry c1  #important for SAPT in psi4, default
}

set PROPERTIES_ORIGIN ["COM"]
properties('MP2/aug-cc-pvtz', properties = ['dipole'])
--------------------------------------------------------------------------

  Memory set to  29.802 GiB by Python driver.
    SCF Algorithm Type (re)set to DF.

*** tstart() called on c404-052.stampede2.tacc.utexas.edu
*** at Sat Feb 27 22:17:04 2021

   => Loading Basis Set <=

    Name: AUG-CC-PVTZ
    Role: ORBITAL
    Keyword: BASIS
    atoms 1-2   entry O          line   331 file /home1/07844/xy3866/miniconda3/envs/p4env/share/psi4/basis/aug-cc-pvtz.gbs 
    atoms 3     entry N          line   285 file /home1/07844/xy3866/miniconda3/envs/p4env/share/psi4/basis/aug-cc-pvtz.gbs 
    atoms 4-11  entry C          line   239 file /home1/07844/xy3866/miniconda3/envs/p4env/share/psi4/basis/aug-cc-pvtz.gbs 
    atoms 12-20 entry H          line    40 file /home1/07844/xy3866/miniconda3/envs/p4env/share/psi4/basis/aug-cc-pvtz.gbs 


         ---------------------------------------------------------
                                   SCF
               by Justin Turney, Rob Parrish, Andy Simmonett
                          and Daniel G. A. Smith
                              RHF Reference
                       32 Threads,  30517 MiB Core
         ---------------------------------------------------------

  ==> Geometry <==

    Molecular point group: c1
    Full point group: C1

    Geometry (in Angstrom), charge = 0, multiplicity = 1:

       Center              X                  Y                   Z               Mass       
    ------------   -----------------  -----------------  -----------------  -----------------
         O           -0.475822427771     2.150741587607    -0.309654287577    15.994914619570
         O            1.766495572229     0.869884587607     1.150751712423    15.994914619570
         N            2.107216572229    -0.684721412393    -0.494370287577    14.003074004430
         C           -0.152170427771    -0.157884412393     0.121331712423    12.000000000000
         C           -1.027599427771     0.908712587607    -0.138633287577    12.000000000000
         C           -0.672542427771    -1.449826412393     0.255610712423    12.000000000000
         C            1.241875072229    -0.036131212393     0.174451312423    12.000000000000
         C           -2.399798427771     0.671816587607    -0.255466287577    12.000000000000
         C           -2.044072427771    -1.687246412393     0.148492712423    12.000000000000
         C           -2.905790427771    -0.620502412393    -0.105336287577    12.000000000000
         C            3.549842572229    -0.518321412393    -0.485811287577    12.000000000000
         H            0.010711572229    -2.268250412393     0.472131712423     1.007825032230
         H           -3.074791427771     1.501059587607    -0.465032287577     1.007825032230
         H           -2.435874427771    -2.693543412393     0.269051712423     1.007825032230
         H           -3.976636427771    -0.787782412393    -0.191823287577     1.007825032230
         H            1.670313572229    -1.122754412393    -1.294919287577     1.007825032230
         H            3.870436572229     0.337646587607    -1.089722287577     1.007825032230
         H            4.018475572229    -1.427183412393    -0.867670287577     1.007825032230
         H            3.865076572229    -0.349075412393     0.543370712423     1.007825032230
         H           -1.197874427771     2.787502587607    -0.457518287577     1.007825032230

  Running in c1 symmetry.

  Rotational constants: A =      0.07063  B =      0.02622  C =      0.02084 [cm^-1]
  Rotational constants: A =   2117.49414  B =    786.02112  C =    624.81041 [MHz]
  Nuclear repulsion =  587.509115522050706

  Charge       = 0
  Multiplicity = 1
  Electrons    = 80
  Nalpha       = 40
  Nbeta        = 40

  ==> Algorithm <==

  SCF Algorithm Type is DF.
  DIIS enabled.
  MOM disabled.
  Fractional occupation disabled.
  Guess Type is SAD.
  Energy threshold   = 1.00e-10
  Density threshold  = 1.00e-10
  Integral threshold = 1.00e-12

  ==> Primary Basis <==

  Basis Set: AUG-CC-PVTZ
    Blend: AUG-CC-PVTZ
    Number of shells: 235
    Number of basis functions: 713
    Number of Cartesian functions: 830
    Spherical Harmonics?: true
    Max angular momentum: 3

   => Loading Basis Set <=

    Name: (AUG-CC-PVTZ AUX)
    Role: JKFIT
    Keyword: DF_BASIS_SCF
    atoms 1-2   entry O          line   286 file /home1/07844/xy3866/miniconda3/envs/p4env/share/psi4/basis/aug-cc-pvtz-jkfit.gbs 
    atoms 3     entry N          line   224 file /home1/07844/xy3866/miniconda3/envs/p4env/share/psi4/basis/aug-cc-pvtz-jkfit.gbs 
    atoms 4-11  entry C          line   162 file /home1/07844/xy3866/miniconda3/envs/p4env/share/psi4/basis/aug-cc-pvtz-jkfit.gbs 
    atoms 12-20 entry H          line    70 file /home1/07844/xy3866/miniconda3/envs/p4env/share/psi4/basis/aug-cc-pvtz-jkfit.gbs 

  ==> Integral Setup <==

  DFHelper Memory: AOs need 5.410 GiB; user supplied 22.352 GiB. Using in-core AOs.

  ==> MemDFJK: Density-Fitted J/K Matrices <==

    J tasked:                   Yes
    K tasked:                   Yes
    wK tasked:                   No
    OpenMP threads:              32
    Memory [MiB]:             22888
    Algorithm:                 Core
    Schwarz Cutoff:           1E-12
    Mask sparsity (%):      12.4087
    Fitting Condition:        1E-10

   => Auxiliary Basis Set <=

  Basis Set: (AUG-CC-PVTZ AUX)
    Blend: AUG-CC-PVTZ-JKFIT
    Number of shells: 456
    Number of basis functions: 1558
    Number of Cartesian functions: 1936
    Spherical Harmonics?: true
    Max angular momentum: 4

  Minimum eigenvalue in the overlap matrix is 5.7718386969E-07.
  Reciprocal condition number of the overlap matrix is 3.0970531048E-08.
    Using symmetric orthogonalization.

  ==> Pre-Iterations <==

  SCF Guess: Superposition of Atomic Densities via on-the-fly atomic UHF (no occupation information).

   -------------------------
    Irrep   Nso     Nmo    
   -------------------------
     A        713     713 
   -------------------------
    Total     713     713
   -------------------------

  ==> Iterations <==

                           Total Energy        Delta E     RMS |[F,P]|

   @DF-RHF iter SAD:  -511.62653847405255   -5.11627e+02   0.00000e+00 
   @DF-RHF iter   1:  -512.13368931147625   -5.07151e-01   1.14189e-03 DIIS
   @DF-RHF iter   2:  -512.37257767772314   -2.38888e-01   7.51923e-04 DIIS
   @DF-RHF iter   3:  -512.47695801292730   -1.04380e-01   1.89390e-04 DIIS
   @DF-RHF iter   4:  -512.48513432226025   -8.17631e-03   6.55103e-05 DIIS
   @DF-RHF iter   5:  -512.48652044701191   -1.38612e-03   1.29946e-05 DIIS
   @DF-RHF iter   6:  -512.48660835735325   -8.79103e-05   5.65524e-06 DIIS
   @DF-RHF iter   7:  -512.48662622368397   -1.78663e-05   2.33880e-06 DIIS
   @DF-RHF iter   8:  -512.48662985630801   -3.63262e-06   7.38102e-07 DIIS
   @DF-RHF iter   9:  -512.48663029404156   -4.37734e-07   3.11259e-07 DIIS
   @DF-RHF iter  10:  -512.48663037851156   -8.44700e-08   1.48736e-07 DIIS
   @DF-RHF iter  11:  -512.48663040240410   -2.38925e-08   5.50611e-08 DIIS
   @DF-RHF iter  12:  -512.48663040601912   -3.61501e-09   2.52045e-08 DIIS
   @DF-RHF iter  13:  -512.48663040644590   -4.26780e-10   6.36508e-09 DIIS
   @DF-RHF iter  14:  -512.48663040647853   -3.26281e-11   2.36548e-09 DIIS
   @DF-RHF iter  15:  -512.48663040647989   -1.36424e-12   9.12676e-10 DIIS
   @DF-RHF iter  16:  -512.48663040648023   -3.41061e-13   3.72160e-10 DIIS
   @DF-RHF iter  17:  -512.48663040648137   -1.13687e-12   1.79658e-10 DIIS
   @DF-RHF iter  18:  -512.48663040648034    1.02318e-12   7.95071e-11 DIIS
  Energy and wave function converged.


  ==> Post-Iterations <==

    Orbital Energies [Eh]
    ---------------------

    Doubly Occupied:                                                      

       1A    -20.597588     2A    -20.472288     3A    -15.612689  
       4A    -11.345922     5A    -11.327832     6A    -11.270289  
       7A    -11.263029     8A    -11.261943     9A    -11.252778  
      10A    -11.250580    11A    -11.244139    12A     -1.409408  
      13A     -1.325710    14A     -1.189195    15A     -1.165969  
      16A     -1.063307    17A     -1.022381    18A     -0.979386  
      19A     -0.877148    20A     -0.856754    21A     -0.794570  
      22A     -0.751658    23A     -0.735709    24A     -0.678297  
      25A     -0.667562    26A     -0.641777    27A     -0.622918  
      28A     -0.617076    29A     -0.597978    30A     -0.587752  
      31A     -0.565829    32A     -0.538702    33A     -0.524197  
      34A     -0.511154    35A     -0.491661    36A     -0.482999  
      37A     -0.391444    38A     -0.367217    39A     -0.350431  
      40A     -0.327118  

    Virtual:                                                              

      41A      0.021321    42A      0.025755    43A      0.030916  
      44A      0.041034    45A      0.041799    46A      0.046650  
      47A      0.058494    48A      0.062631    49A      0.068138  
      50A      0.079509    51A      0.084461    52A      0.092915  
      53A      0.095852    54A      0.103156    55A      0.108165  
      56A      0.110799    57A      0.112135    58A      0.115456  
      59A      0.117121    60A      0.123768    61A      0.124582  
      62A      0.128443    63A      0.132460    64A      0.135340  
      65A      0.136879    66A      0.140597    67A      0.145098  
      68A      0.155742    69A      0.159519    70A      0.161547  
      71A      0.163267    72A      0.170196    73A      0.171281  
      74A      0.175356    75A      0.185475    76A      0.197683  
      77A      0.201994    78A      0.210265    79A      0.216982  
      80A      0.220751    81A      0.223501    82A      0.238785  
      83A      0.240404    84A      0.243649    85A      0.248644  
      86A      0.256301    87A      0.256848    88A      0.259340  
      89A      0.263483    90A      0.268734    91A      0.279846  
      92A      0.283986    93A      0.287116    94A      0.289623  
      95A      0.297421    96A      0.302072    97A      0.306186  
      98A      0.308670    99A      0.313771   100A      0.320428  
     101A      0.322416   102A      0.324055   103A      0.327037  
     104A      0.332947   105A      0.341517   106A      0.343679  
     107A      0.345902   108A      0.352497   109A      0.354616  
     110A      0.363010   111A      0.366582   112A      0.371686  
     113A      0.378735   114A      0.384197   115A      0.391843  
     116A      0.397084   117A      0.400293   118A      0.403829  
     119A      0.410853   120A      0.417266   121A      0.419856  
     122A      0.425755   123A      0.428544   124A      0.431510  
     125A      0.434074   126A      0.438838   127A      0.447352  
     128A      0.448468   129A      0.454243   130A      0.457665  
     131A      0.462028   132A      0.464804   133A      0.466159  
     134A      0.471286   135A      0.476231   136A      0.478950  
     137A      0.485054   138A      0.489810   139A      0.492782  
     140A      0.495708   141A      0.502387   142A      0.507026  
     143A      0.510062   144A      0.513969   145A      0.519421  
     146A      0.522888   147A      0.526477   148A      0.528713  
     149A      0.531925   150A      0.537570   151A      0.540379  
     152A      0.548311   153A      0.552542   154A      0.556128  
     155A      0.567468   156A      0.573349   157A      0.578412  
     158A      0.586196   159A      0.593430   160A      0.601692  
     161A      0.604064   162A      0.615398   163A      0.625674  
     164A      0.630471   165A      0.633964   166A      0.637907  
     167A      0.656160   168A      0.663212   169A      0.666649  
     170A      0.672235   171A      0.681549   172A      0.689203  
     173A      0.694202   174A      0.697145   175A      0.711912  
     176A      0.712381   177A      0.719126   178A      0.724193  
     179A      0.736967   180A      0.740422   181A      0.745651  
     182A      0.747861   183A      0.755357   184A      0.768877  
     185A      0.771912   186A      0.785639   187A      0.790517  
     188A      0.799560   189A      0.810181   190A      0.813190  
     191A      0.817536   192A      0.822329   193A      0.829058  
     194A      0.833694   195A      0.839421   196A      0.845332  
     197A      0.851277   198A      0.857733   199A      0.863717  
     200A      0.866804   201A      0.871149   202A      0.876022  
     203A      0.885287   204A      0.889401   205A      0.892869  
     206A      0.897318   207A      0.908069   208A      0.911425  
     209A      0.916919   210A      0.917405   211A      0.923051  
     212A      0.931477   213A      0.935749   214A      0.937525  
     215A      0.946895   216A      0.956719   217A      0.957707  
     218A      0.960492   219A      0.963420   220A      0.975298  
     221A      0.980732   222A      0.981201   223A      0.992963  
     224A      1.001897   225A      1.004194   226A      1.006538  
     227A      1.006848   228A      1.008444   229A      1.022279  
     230A      1.027408   231A      1.032282   232A      1.040808  
     233A      1.047832   234A      1.050919   235A      1.056257  
     236A      1.061822   237A      1.066253   238A      1.072469  
     239A      1.082607   240A      1.084534   241A      1.086579  
     242A      1.098405   243A      1.101953   244A      1.104995  
     245A      1.107813   246A      1.110275   247A      1.115012  
     248A      1.131007   249A      1.135199   250A      1.140384  
     251A      1.141894   252A      1.152331   253A      1.157257  
     254A      1.166633   255A      1.169226   256A      1.173424  
     257A      1.176874   258A      1.184359   259A      1.185468  
     260A      1.191742   261A      1.200993   262A      1.210978  
     263A      1.216311   264A      1.219578   265A      1.223607  
     266A      1.224777   267A      1.236294   268A      1.239440  
     269A      1.241561   270A      1.253562   271A      1.255542  
     272A      1.260303   273A      1.265751   274A      1.267319  
     275A      1.288306   276A      1.294376   277A      1.305964  
     278A      1.322750   279A      1.326526   280A      1.329370  
     281A      1.338562   282A      1.348021   283A      1.356058  
     284A      1.362392   285A      1.368517   286A      1.382724  
     287A      1.386322   288A      1.397504   289A      1.402628  
     290A      1.412622   291A      1.419176   292A      1.422481  
     293A      1.428647   294A      1.443253   295A      1.446011  
     296A      1.457308   297A      1.460553   298A      1.474136  
     299A      1.481162   300A      1.491844   301A      1.506939  
     302A      1.510486   303A      1.518793   304A      1.530818  
     305A      1.538069   306A      1.542071   307A      1.544519  
     308A      1.560417   309A      1.565765   310A      1.578680  
     311A      1.579833   312A      1.591394   313A      1.599821  
     314A      1.610691   315A      1.620049   316A      1.628258  
     317A      1.634960   318A      1.650303   319A      1.655588  
     320A      1.660795   321A      1.678661   322A      1.687730  
     323A      1.696248   324A      1.699211   325A      1.708626  
     326A      1.709318   327A      1.714266   328A      1.721988  
     329A      1.734483   330A      1.744790   331A      1.751140  
     332A      1.755668   333A      1.760898   334A      1.777212  
     335A      1.779498   336A      1.791341   337A      1.803871  
     338A      1.812013   339A      1.817408   340A      1.823843  
     341A      1.831533   342A      1.842383   343A      1.855274  
     344A      1.861536   345A      1.867719   346A      1.872675  
     347A      1.876794   348A      1.881769   349A      1.890655  
     350A      1.896410   351A      1.908568   352A      1.922191  
     353A      1.936987   354A      1.943724   355A      1.950358  
     356A      1.975164   357A      1.979657   358A      1.985705  
     359A      2.001184   360A      2.006864   361A      2.016167  
     362A      2.025721   363A      2.027215   364A      2.038957  
     365A      2.050225   366A      2.057471   367A      2.075898  
     368A      2.077866   369A      2.089472   370A      2.092440  
     371A      2.104698   372A      2.109351   373A      2.132887  
     374A      2.138580   375A      2.143759   376A      2.154001  
     377A      2.158851   378A      2.182581   379A      2.188507  
     380A      2.193297   381A      2.199976   382A      2.204957  
     383A      2.211428   384A      2.226093   385A      2.232639  
     386A      2.241615   387A      2.258017   388A      2.272546  
     389A      2.274786   390A      2.286334   391A      2.324179  
     392A      2.335007   393A      2.349650   394A      2.366518  
     395A      2.371087   396A      2.381059   397A      2.395776  
     398A      2.406464   399A      2.418419   400A      2.423086  
     401A      2.444335   402A      2.447554   403A      2.457276  
     404A      2.476489   405A      2.482138   406A      2.497708  
     407A      2.519317   408A      2.531983   409A      2.547949  
     410A      2.566069   411A      2.572109   412A      2.581022  
     413A      2.592221   414A      2.599137   415A      2.601911  
     416A      2.628331   417A      2.643791   418A      2.648485  
     419A      2.675421   420A      2.689025   421A      2.691465  
     422A      2.701867   423A      2.712637   424A      2.737481  
     425A      2.747555   426A      2.767743   427A      2.773726  
     428A      2.783115   429A      2.810533   430A      2.820873  
     431A      2.845529   432A      2.851358   433A      2.863552  
     434A      2.886922   435A      2.914190   436A      2.936427  
     437A      2.961707   438A      2.968701   439A      2.983421  
     440A      2.994245   441A      3.023758   442A      3.045449  
     443A      3.053828   444A      3.080295   445A      3.091454  
     446A      3.129596   447A      3.131358   448A      3.146214  
     449A      3.155645   450A      3.163366   451A      3.206899  
     452A      3.230588   453A      3.241708   454A      3.276780  
     455A      3.290193   456A      3.293898   457A      3.305841  
     458A      3.327052   459A      3.338295   460A      3.364370  
     461A      3.376052   462A      3.389431   463A      3.394765  
     464A      3.406161   465A      3.415334   466A      3.436863  
     467A      3.459054   468A      3.464478   469A      3.468250  
     470A      3.478152   471A      3.488809   472A      3.511145  
     473A      3.515763   474A      3.523523   475A      3.534150  
     476A      3.550097   477A      3.563360   478A      3.566015  
     479A      3.572649   480A      3.585584   481A      3.608313  
     482A      3.627903   483A      3.638105   484A      3.638502  
     485A      3.655826   486A      3.674210   487A      3.679458  
     488A      3.689162   489A      3.699962   490A      3.705817  
     491A      3.732836   492A      3.741096   493A      3.749041  
     494A      3.753790   495A      3.767944   496A      3.782906  
     497A      3.797930   498A      3.805790   499A      3.819524  
     500A      3.823984   501A      3.839064   502A      3.846936  
     503A      3.864571   504A      3.865479   505A      3.888014  
     506A      3.895616   507A      3.902724   508A      3.916043  
     509A      3.917887   510A      3.925830   511A      3.934827  
     512A      3.947470   513A      3.957348   514A      3.970056  
     515A      3.972305   516A      3.991489   517A      3.993510  
     518A      4.012678   519A      4.014379   520A      4.034297  
     521A      4.035585   522A      4.058214   523A      4.067721  
     524A      4.079728   525A      4.085295   526A      4.097598  
     527A      4.109351   528A      4.117838   529A      4.122170  
     530A      4.144389   531A      4.151805   532A      4.153860  
     533A      4.159229   534A      4.171424   535A      4.189685  
     536A      4.198105   537A      4.214282   538A      4.231930  
     539A      4.244466   540A      4.254000   541A      4.267416  
     542A      4.282912   543A      4.285812   544A      4.309802  
     545A      4.323977   546A      4.332443   547A      4.341504  
     548A      4.349030   549A      4.359457   550A      4.369754  
     551A      4.374808   552A      4.384877   553A      4.392193  
     554A      4.400982   555A      4.403733   556A      4.431974  
     557A      4.441026   558A      4.457880   559A      4.473310  
     560A      4.486959   561A      4.492573   562A      4.500550  
     563A      4.518382   564A      4.525159   565A      4.553804  
     566A      4.554944   567A      4.566018   568A      4.577690  
     569A      4.600818   570A      4.603163   571A      4.642450  
     572A      4.646178   573A      4.662500   574A      4.672459  
     575A      4.689485   576A      4.696759   577A      4.700775  
     578A      4.725061   579A      4.739646   580A      4.758887  
     581A      4.776907   582A      4.781523   583A      4.793890  
     584A      4.822365   585A      4.828582   586A      4.837045  
     587A      4.838542   588A      4.855926   589A      4.885568  
     590A      4.911483   591A      4.915623   592A      4.935881  
     593A      4.945191   594A      4.950761   595A      4.975731  
     596A      4.979877   597A      4.986991   598A      5.012636  
     599A      5.021083   600A      5.039442   601A      5.056135  
     602A      5.061362   603A      5.071805   604A      5.088001  
     605A      5.100907   606A      5.116420   607A      5.130889  
     608A      5.137969   609A      5.142838   610A      5.162781  
     611A      5.173235   612A      5.179870   613A      5.210878  
     614A      5.222280   615A      5.248716   616A      5.265405  
     617A      5.272271   618A      5.291379   619A      5.307911  
     620A      5.318807   621A      5.344411   622A      5.362704  
     623A      5.369363   624A      5.388219   625A      5.401377  
     626A      5.429432   627A      5.438847   628A      5.442682  
     629A      5.468695   630A      5.491176   631A      5.515238  
     632A      5.546935   633A      5.595154   634A      5.620470  
     635A      5.624829   636A      5.644684   637A      5.672332  
     638A      5.713866   639A      5.725370   640A      5.772114  
     641A      5.780483   642A      5.818504   643A      5.830735  
     644A      5.870530   645A      5.893616   646A      5.975741  
     647A      6.008992   648A      6.057151   649A      6.103182  
     650A      6.111972   651A      6.143188   652A      6.160801  
     653A      6.180481   654A      6.191827   655A      6.195731  
     656A      6.236739   657A      6.267788   658A      6.291495  
     659A      6.296841   660A      6.339252   661A      6.366093  
     662A      6.405112   663A      6.434817   664A      6.473522  
     665A      6.555566   666A      6.680679   667A      6.696897  
     668A      6.730731   669A      6.761540   670A      6.768740  
     671A      6.814080   672A      6.848233   673A      6.863811  
     674A      6.887641   675A      6.910317   676A      6.915757  
     677A      6.954104   678A      7.009410   679A      7.036129  
     680A      7.057286   681A      7.067597   682A      7.073007  
     683A      7.133847   684A      7.149247   685A      7.231259  
     686A      7.284267   687A      7.426788   688A      7.456621  
     689A      7.477148   690A      7.507162   691A      7.524564  
     692A      7.576188   693A      7.658263   694A      7.691590  
     695A      7.712399   696A      7.765935   697A      7.787742  
     698A      7.986812   699A      8.035829   700A      8.092573  
     701A      8.413753   702A      8.664354   703A     13.950680  
     704A     16.072903   705A     16.372789   706A     16.482811  
     707A     18.195241   708A     18.342711   709A     19.083973  
     710A     19.583722   711A     19.771321   712A     20.190063  
     713A     21.856069  

    Final Occupation by Irrep:
              A 
    DOCC [    40 ]

  @DF-RHF Final Energy:  -512.48663040648034

   => Energetics <=

    Nuclear Repulsion Energy =            587.5091155220507062
    One-Electron Energy =               -1863.9227245869619765
    Two-Electron Energy =                 763.9269786584309259
    Total Energy =                       -512.4866304064803444

Computation Completed

*** tstop() called on c404-052.stampede2.tacc.utexas.edu at Sat Feb 27 22:17:47 2021
Module time:
	user time   =     785.94 seconds =      13.10 minutes
	system time =      53.30 seconds =       0.89 minutes
	total time  =         43 seconds =       0.72 minutes
Total time:
	user time   =     785.94 seconds =      13.10 minutes
	system time =      53.30 seconds =       0.89 minutes
	total time  =         43 seconds =       0.72 minutes
   => Loading Basis Set <=

    Name: (AUG-CC-PVTZ AUX)
    Role: RIFIT
    Keyword: DF_BASIS_MP2
    atoms 1-2   entry O          line   264 file /home1/07844/xy3866/miniconda3/envs/p4env/share/psi4/basis/aug-cc-pvtz-ri.gbs 
    atoms 3     entry N          line   206 file /home1/07844/xy3866/miniconda3/envs/p4env/share/psi4/basis/aug-cc-pvtz-ri.gbs 
    atoms 4-11  entry C          line   148 file /home1/07844/xy3866/miniconda3/envs/p4env/share/psi4/basis/aug-cc-pvtz-ri.gbs 
    atoms 12-20 entry H          line    30 file /home1/07844/xy3866/miniconda3/envs/p4env/share/psi4/basis/aug-cc-pvtz-ri.gbs 


*** tstart() called on c404-052.stampede2.tacc.utexas.edu
*** at Sat Feb 27 22:17:48 2021


  //>>>>>>>>>>>>>>>>>>>>>>>>>>>>>>>>>>>//
  //               DFMP2               //
  //<<<<<<<<<<<<<<<<<<<<<<<<<<<<<<<<<<<//

	 --------------------------------------------------------
	                          DF-MP2                         
	      2nd-Order Density-Fitted Moller-Plesset Theory     
	              RMP2 Wavefunction,  32 Threads             
	                                                         
	        Rob Parrish, Justin Turney, Andy Simmonett,      
	           Ed Hohenstein, and C. David Sherrill          
	 --------------------------------------------------------

   => Auxiliary Basis Set <=

  Basis Set: (AUG-CC-PVTZ AUX)
    Blend: AUG-CC-PVTZ-RI
    Number of shells: 434
    Number of basis functions: 1580
    Number of Cartesian functions: 1991
    Spherical Harmonics?: true
    Max angular momentum: 4

	 --------------------------------------------------------
	                 NBF =   713, NAUX =  1580
	 --------------------------------------------------------
	   CLASS    FOCC     OCC    AOCC    AVIR     VIR    FVIR
	   PAIRS       0      40      40     673     673       0
	 --------------------------------------------------------

  DFHelper Memory: AOs need 5.678 GiB; user supplied 22.352 GiB. Using in-core AOs.


         ------------------------------------------------------------
                                     CPHF                           
                                  Rob Parrish                       
         ------------------------------------------------------------

  ==> Geometry <==

    Molecular point group: c1
    Full point group: C1

    Geometry (in Angstrom), charge = 0, multiplicity = 1:

       Center              X                  Y                   Z               Mass       
    ------------   -----------------  -----------------  -----------------  -----------------
         O           -0.475822427771     2.150741587607    -0.309654287577    15.994914619570
         O            1.766495572229     0.869884587607     1.150751712423    15.994914619570
         N            2.107216572229    -0.684721412393    -0.494370287577    14.003074004430
         C           -0.152170427771    -0.157884412393     0.121331712423    12.000000000000
         C           -1.027599427771     0.908712587607    -0.138633287577    12.000000000000
         C           -0.672542427771    -1.449826412393     0.255610712423    12.000000000000
         C            1.241875072229    -0.036131212393     0.174451312423    12.000000000000
         C           -2.399798427771     0.671816587607    -0.255466287577    12.000000000000
         C           -2.044072427771    -1.687246412393     0.148492712423    12.000000000000
         C           -2.905790427771    -0.620502412393    -0.105336287577    12.000000000000
         C            3.549842572229    -0.518321412393    -0.485811287577    12.000000000000
         H            0.010711572229    -2.268250412393     0.472131712423     1.007825032230
         H           -3.074791427771     1.501059587607    -0.465032287577     1.007825032230
         H           -2.435874427771    -2.693543412393     0.269051712423     1.007825032230
         H           -3.976636427771    -0.787782412393    -0.191823287577     1.007825032230
         H            1.670313572229    -1.122754412393    -1.294919287577     1.007825032230
         H            3.870436572229     0.337646587607    -1.089722287577     1.007825032230
         H            4.018475572229    -1.427183412393    -0.867670287577     1.007825032230
         H            3.865076572229    -0.349075412393     0.543370712423     1.007825032230
         H           -1.197874427771     2.787502587607    -0.457518287577     1.007825032230

  Nuclear repulsion =  587.509115522050706
  Reference energy  = -512.486630406480344

  ==> Basis Set <==

  Basis Set: AUG-CC-PVTZ
    Blend: AUG-CC-PVTZ
    Number of shells: 235
    Number of basis functions: 713
    Number of Cartesian functions: 830
    Spherical Harmonics?: true
    Max angular momentum: 3

  ==> CGRSolver (by Rob Parrish) <==

   Number of roots    =         1
   Preconditioning    =    JACOBI
   Convergence cutoff =     1E-06
   Maximum iterations =       100

  ==> CPHFRHamiltonian (by Rob Parrish) <== 

  ==> MemDFJK: Density-Fitted J/K Matrices <==

    J tasked:                   Yes
    K tasked:                   Yes
    wK tasked:                   No
    OpenMP threads:              32
    Memory [MiB]:             22888
    Algorithm:                 Core
    Schwarz Cutoff:           1E-12
    Mask sparsity (%):       7.8711
    Fitting Condition:        1E-10

   => Auxiliary Basis Set <=

  Basis Set: (AUG-CC-PVTZ AUX)
    Blend: AUG-CC-PVTZ-JKFIT
    Number of shells: 456
    Number of basis functions: 1558
    Number of Cartesian functions: 1936
    Spherical Harmonics?: true
    Max angular momentum: 4

  ==> CPHF Iterations <==

  => Iterations <=

             Iter  Converged  Remaining    Residual
  CGR           1          0          1   1.538E-01
  CGR           2          0          1   6.563E-02
  CGR           3          0          1   3.288E-02
  CGR           4          0          1   1.246E-02
  CGR           5          0          1   5.344E-03
  CGR           6          0          1   2.057E-03
  CGR           7          0          1   6.307E-04
  CGR           8          0          1   2.391E-04
  CGR           9          0          1   1.057E-04
  CGR          10          0          1   5.385E-05
  CGR          11          0          1   2.411E-05
  CGR          12          0          1   7.823E-06
  CGR          13          0          1   3.001E-06
  CGR          14          1          0   9.540E-07

    CGRSolver converged.

	-----------------------------------------------------------
	 ==================> DF-MP2 Energies <==================== 
	-----------------------------------------------------------
	 Reference Energy          =    -512.4866304064803444 [Eh]
	 Singles Energy            =      -0.0000000000000000 [Eh]
	 Same-Spin Energy          =      -0.5419653576262027 [Eh]
	 Opposite-Spin Energy      =      -1.6555027271432676 [Eh]
	 Correlation Energy        =      -2.1974680847694703 [Eh]
	 Total Energy              =    -514.6840984912498698 [Eh]
	-----------------------------------------------------------
	 ================> DF-SCS-MP2 Energies <================== 
	-----------------------------------------------------------
	 SCS Same-Spin Scale       =       0.3333333333333333 [-]
	 SCS Opposite-Spin Scale   =       1.2000000000000000 [-]
	 SCS Same-Spin Energy      =      -0.1806551192087342 [Eh]
	 SCS Opposite-Spin Energy  =      -1.9866032725719212 [Eh]
	 SCS Correlation Energy    =      -2.1672583917806554 [Eh]
	 SCS Total Energy          =    -514.6538887982610504 [Eh]
	-----------------------------------------------------------



Properties will be evaluated at  -0.000000,  -0.000000,  -0.000000 [a0]

Properties computed using the MP2 density matrix

  Nuclear Dipole Moment: [e a0]
     X:     2.5780      Y:    -3.7544      Z:    -2.8839

  Electronic Dipole Moment: [e a0]
     X:    -3.2755      Y:     2.8339      Z:     1.3471

  Dipole Moment: [e a0]
     X:    -0.6976      Y:    -0.9204      Z:    -1.5368     Total:     1.9224

  Dipole Moment: [D]
     X:    -1.7731      Y:    -2.3395      Z:    -3.9062     Total:     4.8862


*** tstop() called on c404-052.stampede2.tacc.utexas.edu at Sat Feb 27 22:22:08 2021
Module time:
	user time   =    2356.15 seconds =      39.27 minutes
	system time =      70.85 seconds =       1.18 minutes
	total time  =        260 seconds =       4.33 minutes
Total time:
	user time   =    3143.06 seconds =      52.38 minutes
	system time =     124.18 seconds =       2.07 minutes
	total time  =        304 seconds =       5.07 minutes

    Psi4 stopped on: Saturday, 27 February 2021 10:22PM
    Psi4 wall time for execution: 0:05:05.38

*** Psi4 exiting successfully. Buy a developer a beer!
