
    -----------------------------------------------------------------------
          Psi4: An Open-Source Ab Initio Electronic Structure Package
                               Psi4 1.4a3.dev225 

                         Git: Rev {master} 7105e37 


    D. G. A. Smith, L. A. Burns, A. C. Simmonett, R. M. Parrish,
    M. C. Schieber, R. Galvelis, P. Kraus, H. Kruse, R. Di Remigio,
    A. Alenaizan, A. M. James, S. Lehtola, J. P. Misiewicz, M. Scheurer,
    R. A. Shaw, J. B. Schriber, Y. Xie, Z. L. Glick, D. A. Sirianni,
    J. S. O'Brien, J. M. Waldrop, A. Kumar, E. G. Hohenstein,
    B. P. Pritchard, B. R. Brooks, H. F. Schaefer III, A. Yu. Sokolov,
    K. Patkowski, A. E. DePrince III, U. Bozkaya, R. A. King,
    F. A. Evangelista, J. M. Turney, T. D. Crawford, C. D. Sherrill,
    J. Chem. Phys. 152(18) 184108 (2020). https://doi.org/10.1063/5.0006002

                            Additional Code Authors
    E. T. Seidl, C. L. Janssen, E. F. Valeev, M. L. Leininger,
    J. F. Gonthier, R. M. Richard, H. R. McAlexander, M. Saitow, X. Wang,
    P. Verma, and M. H. Lechner

             Previous Authors, Complete List of Code Contributors,
                       and Citations for Specific Modules
    https://github.com/psi4/psi4/blob/master/codemeta.json
    https://github.com/psi4/psi4/graphs/contributors
    http://psicode.org/psi4manual/master/introduction.html#citing-psifour

    -----------------------------------------------------------------------


    Psi4 started on: Wednesday, 31 March 2021 11:22PM

    Process ID: 104755
    Host:       c474-013.stampede2.tacc.utexas.edu
    PSIDATADIR: /home1/07844/xy3866/miniconda3/envs/p4env/share/psi4
    Memory:     500.0 MiB
    Threads:    8
    
  ==> Input File <==

--------------------------------------------------------------------------
#psi4
#
memory 32 gb

molecule  {
0 1
  O       -0.4983720     2.1660820    -0.3008080
  O        1.7439460     0.8852250     1.1595980
  N        2.0846670    -0.6693810    -0.4855240
  C       -0.1747200    -0.1425440     0.1301780
  C       -1.0501490     0.9240530    -0.1297870
  C       -0.6950920    -1.4344860     0.2644570
  C        1.2999506     0.1184481     0.3333380
  C       -2.4223480     0.6871570    -0.2466200
  C       -2.0666220    -1.6719060     0.1573390
  C       -2.9283400    -0.6051620    -0.0964900
  C        3.5272930    -0.5029810    -0.4769650
  H       -0.0118380    -2.2529100     0.4809780
  H       -3.0973410     1.5164000    -0.4561860
  H       -2.4584240    -2.6782030     0.2778980
  H       -3.9991860    -0.7724420    -0.1829770
  H        1.6477640    -1.1074140    -1.2860730
  H        3.8478870     0.3529870    -1.0808760
  H        3.9959260    -1.4118430    -0.8588240
  H        3.8425270    -0.3337350     0.5522170
  H       -1.2204240     2.8028430    -0.4486720
units angstrom
no_reorient  #important for SAPT in psi4, default
symmetry c1  #important for SAPT in psi4, default
}

set PROPERTIES_ORIGIN ["COM"]
properties('MP2/aug-cc-pvtz', properties = ['dipole'])
--------------------------------------------------------------------------

  Memory set to  29.802 GiB by Python driver.
    SCF Algorithm Type (re)set to DF.

*** tstart() called on c474-013.stampede2.tacc.utexas.edu
*** at Wed Mar 31 23:22:41 2021

   => Loading Basis Set <=

    Name: AUG-CC-PVTZ
    Role: ORBITAL
    Keyword: BASIS
    atoms 1-2   entry O          line   331 file /home1/07844/xy3866/miniconda3/envs/p4env/share/psi4/basis/aug-cc-pvtz.gbs 
    atoms 3     entry N          line   285 file /home1/07844/xy3866/miniconda3/envs/p4env/share/psi4/basis/aug-cc-pvtz.gbs 
    atoms 4-11  entry C          line   239 file /home1/07844/xy3866/miniconda3/envs/p4env/share/psi4/basis/aug-cc-pvtz.gbs 
    atoms 12-20 entry H          line    40 file /home1/07844/xy3866/miniconda3/envs/p4env/share/psi4/basis/aug-cc-pvtz.gbs 


         ---------------------------------------------------------
                                   SCF
               by Justin Turney, Rob Parrish, Andy Simmonett
                          and Daniel G. A. Smith
                              RHF Reference
                        8 Threads,  30517 MiB Core
         ---------------------------------------------------------

  ==> Geometry <==

    Molecular point group: c1
    Full point group: C1

    Geometry (in Angstrom), charge = 0, multiplicity = 1:

       Center              X                  Y                   Z               Mass       
    ------------   -----------------  -----------------  -----------------  -----------------
         O           -0.482227034431     2.139680883356    -0.321573029323    15.994914619570
         O            1.760090965569     0.858823883356     1.138832970677    15.994914619570
         N            2.100811965569    -0.695782116644    -0.506289029323    14.003074004430
         C           -0.158575034431    -0.168945116644     0.109412970677    12.000000000000
         C           -1.034004034431     0.897651883356    -0.150552029323    12.000000000000
         C           -0.678947034431    -1.460887116644     0.243691970677    12.000000000000
         C            1.316095565569     0.092046983356     0.312572970677    12.000000000000
         C           -2.406203034431     0.660755883356    -0.267385029323    12.000000000000
         C           -2.050477034431    -1.698307116644     0.136573970677    12.000000000000
         C           -2.912195034431    -0.631563116644    -0.117255029323    12.000000000000
         C            3.543437965569    -0.529382116644    -0.497730029323    12.000000000000
         H            0.004306965569    -2.279311116644     0.460212970677     1.007825032230
         H           -3.081196034431     1.489998883356    -0.476951029323     1.007825032230
         H           -2.442279034431    -2.704604116644     0.257132970677     1.007825032230
         H           -3.983041034431    -0.798843116644    -0.203742029323     1.007825032230
         H            1.663908965569    -1.133815116644    -1.306838029323     1.007825032230
         H            3.864031965569     0.326585883356    -1.101641029323     1.007825032230
         H            4.012070965569    -1.438244116644    -0.879589029323     1.007825032230
         H            3.858671965569    -0.360136116644     0.531451970677     1.007825032230
         H           -1.204279034431     2.776441883356    -0.469437029323     1.007825032230

  Running in c1 symmetry.

  Rotational constants: A =      0.07037  B =      0.02608  C =      0.02077 [cm^-1]
  Rotational constants: A =   2109.73972  B =    781.88887  C =    622.79688 [MHz]
  Nuclear repulsion =  587.166937831061546

  Charge       = 0
  Multiplicity = 1
  Electrons    = 80
  Nalpha       = 40
  Nbeta        = 40

  ==> Algorithm <==

  SCF Algorithm Type is DF.
  DIIS enabled.
  MOM disabled.
  Fractional occupation disabled.
  Guess Type is SAD.
  Energy threshold   = 1.00e-10
  Density threshold  = 1.00e-10
  Integral threshold = 1.00e-12

  ==> Primary Basis <==

  Basis Set: AUG-CC-PVTZ
    Blend: AUG-CC-PVTZ
    Number of shells: 235
    Number of basis functions: 713
    Number of Cartesian functions: 830
    Spherical Harmonics?: true
    Max angular momentum: 3

   => Loading Basis Set <=

    Name: (AUG-CC-PVTZ AUX)
    Role: JKFIT
    Keyword: DF_BASIS_SCF
    atoms 1-2   entry O          line   286 file /home1/07844/xy3866/miniconda3/envs/p4env/share/psi4/basis/aug-cc-pvtz-jkfit.gbs 
    atoms 3     entry N          line   224 file /home1/07844/xy3866/miniconda3/envs/p4env/share/psi4/basis/aug-cc-pvtz-jkfit.gbs 
    atoms 4-11  entry C          line   162 file /home1/07844/xy3866/miniconda3/envs/p4env/share/psi4/basis/aug-cc-pvtz-jkfit.gbs 
    atoms 12-20 entry H          line    70 file /home1/07844/xy3866/miniconda3/envs/p4env/share/psi4/basis/aug-cc-pvtz-jkfit.gbs 

  ==> Integral Setup <==

  DFHelper Memory: AOs need 5.318 GiB; user supplied 22.352 GiB. Using in-core AOs.

  ==> MemDFJK: Density-Fitted J/K Matrices <==

    J tasked:                   Yes
    K tasked:                   Yes
    wK tasked:                   No
    OpenMP threads:               8
    Memory [MiB]:             22888
    Algorithm:                 Core
    Schwarz Cutoff:           1E-12
    Mask sparsity (%):      12.4390
    Fitting Condition:        1E-10

   => Auxiliary Basis Set <=

  Basis Set: (AUG-CC-PVTZ AUX)
    Blend: AUG-CC-PVTZ-JKFIT
    Number of shells: 456
    Number of basis functions: 1558
    Number of Cartesian functions: 1936
    Spherical Harmonics?: true
    Max angular momentum: 4

  Minimum eigenvalue in the overlap matrix is 5.9028678173E-07.
  Reciprocal condition number of the overlap matrix is 3.1790381520E-08.
    Using symmetric orthogonalization.

  ==> Pre-Iterations <==

  SCF Guess: Superposition of Atomic Densities via on-the-fly atomic UHF (no occupation information).

   -------------------------
    Irrep   Nso     Nmo    
   -------------------------
     A        713     713 
   -------------------------
    Total     713     713
   -------------------------

  ==> Iterations <==

                           Total Energy        Delta E     RMS |[F,P]|

   @DF-RHF iter SAD:  -511.66042914185277   -5.11660e+02   0.00000e+00 
   @DF-RHF iter   1:  -512.22829798989414   -5.67869e-01   1.10061e-03 DIIS
   @DF-RHF iter   2:  -512.48188080020520   -2.53583e-01   5.89963e-04 DIIS
   @DF-RHF iter   3:  -512.54775367605191   -6.58729e-02   1.24315e-04 DIIS
   @DF-RHF iter   4:  -512.55207088720874   -4.31721e-03   5.78199e-05 DIIS
   @DF-RHF iter   5:  -512.55297106305795   -9.00176e-04   1.04376e-05 DIIS
   @DF-RHF iter   6:  -512.55304016181412   -6.90988e-05   4.99940e-06 DIIS
   @DF-RHF iter   7:  -512.55305499995109   -1.48381e-05   2.07341e-06 DIIS
   @DF-RHF iter   8:  -512.55305819996761   -3.20002e-06   8.11865e-07 DIIS
   @DF-RHF iter   9:  -512.55305864490981   -4.44942e-07   2.92782e-07 DIIS
   @DF-RHF iter  10:  -512.55305870468294   -5.97731e-08   1.03712e-07 DIIS
   @DF-RHF iter  11:  -512.55305871237374   -7.69080e-09   3.47335e-08 DIIS
   @DF-RHF iter  12:  -512.55305871339476   -1.02102e-09   1.72817e-08 DIIS
   @DF-RHF iter  13:  -512.55305871362634   -2.31580e-10   6.97760e-09 DIIS
   @DF-RHF iter  14:  -512.55305871368819   -6.18456e-11   3.41706e-09 DIIS
   @DF-RHF iter  15:  -512.55305871370194   -1.37561e-11   1.60758e-09 DIIS
   @DF-RHF iter  16:  -512.55305871370649   -4.54747e-12   5.65493e-10 DIIS
   @DF-RHF iter  17:  -512.55305871370581    6.82121e-13   2.35467e-10 DIIS
   @DF-RHF iter  18:  -512.55305871370490    9.09495e-13   6.48732e-11 DIIS
  Energy and wave function converged.


  ==> Post-Iterations <==

    Orbital Energies [Eh]
    ---------------------

    Doubly Occupied:                                                      

       1A    -20.597700     2A    -20.517277     3A    -15.580991  
       4A    -11.349975     5A    -11.319537     6A    -11.256624  
       7A    -11.256099     8A    -11.254570     9A    -11.248968  
      10A    -11.246068    11A    -11.239939    12A     -1.410163  
      13A     -1.379716    14A     -1.223421    15A     -1.159135  
      16A     -1.044985    17A     -1.017084    18A     -0.947189  
      19A     -0.864198    20A     -0.842834    21A     -0.781844  
      22A     -0.741658    23A     -0.722432    24A     -0.675169  
      25A     -0.646886    26A     -0.638862    27A     -0.619846  
      28A     -0.611967    29A     -0.596298    30A     -0.585491  
      31A     -0.576978    32A     -0.544985    33A     -0.537377  
      34A     -0.525006    35A     -0.512395    36A     -0.490000  
      37A     -0.422768    38A     -0.389290    39A     -0.353895  
      40A     -0.325725  

    Virtual:                                                              

      41A      0.023346    42A      0.028011    43A      0.032271  
      44A      0.042071    45A      0.043924    46A      0.047430  
      47A      0.058924    48A      0.062597    49A      0.067939  
      50A      0.082596    51A      0.089002    52A      0.094650  
      53A      0.097960    54A      0.105396    55A      0.108410  
      56A      0.112358    57A      0.112885    58A      0.115066  
      59A      0.117922    60A      0.125468    61A      0.127100  
      62A      0.129212    63A      0.134631    64A      0.135455  
      65A      0.139774    66A      0.141924    67A      0.147916  
      68A      0.156775    69A      0.158549    70A      0.162196  
      71A      0.163559    72A      0.168790    73A      0.170725  
      74A      0.176090    75A      0.196479    76A      0.199239  
      77A      0.202812    78A      0.209679    79A      0.216659  
      80A      0.220152    81A      0.226314    82A      0.238367  
      83A      0.240956    84A      0.244731    85A      0.249956  
      86A      0.252726    87A      0.256889    88A      0.258774  
      89A      0.268082    90A      0.269585    91A      0.278982  
      92A      0.284673    93A      0.288245    94A      0.291142  
      95A      0.296994    96A      0.299752    97A      0.303959  
      98A      0.311399    99A      0.316476   100A      0.322466  
     101A      0.323943   102A      0.327368   103A      0.330347  
     104A      0.331875   105A      0.343548   106A      0.344616  
     107A      0.347693   108A      0.353025   109A      0.355603  
     110A      0.362287   111A      0.367974   112A      0.370495  
     113A      0.377805   114A      0.385651   115A      0.390491  
     116A      0.398747   117A      0.400814   118A      0.405272  
     119A      0.414387   120A      0.417108   121A      0.425465  
     122A      0.427415   123A      0.430242   124A      0.432969  
     125A      0.435791   126A      0.444577   127A      0.449373  
     128A      0.452076   129A      0.458174   130A      0.459142  
     131A      0.462923   132A      0.467529   133A      0.472517  
     134A      0.475902   135A      0.479055   136A      0.483683  
     137A      0.486572   138A      0.490886   139A      0.494949  
     140A      0.496665   141A      0.504171   142A      0.509073  
     143A      0.514273   144A      0.516310   145A      0.517735  
     146A      0.523749   147A      0.526972   148A      0.528849  
     149A      0.535905   150A      0.536720   151A      0.542046  
     152A      0.548779   153A      0.552973   154A      0.555879  
     155A      0.568293   156A      0.573053   157A      0.575163  
     158A      0.585292   159A      0.595102   160A      0.601044  
     161A      0.604965   162A      0.620523   163A      0.626280  
     164A      0.629697   165A      0.639890   166A      0.641881  
     167A      0.648809   168A      0.654660   169A      0.662628  
     170A      0.673538   171A      0.676776   172A      0.683380  
     173A      0.694233   174A      0.696876   175A      0.705438  
     176A      0.714157   177A      0.721721   178A      0.728408  
     179A      0.732352   180A      0.737806   181A      0.744487  
     182A      0.747844   183A      0.765323   184A      0.767102  
     185A      0.778553   186A      0.788605   187A      0.789906  
     188A      0.800236   189A      0.802406   190A      0.811281  
     191A      0.817578   192A      0.824152   193A      0.830078  
     194A      0.833484   195A      0.842180   196A      0.847481  
     197A      0.853260   198A      0.858341   199A      0.866381  
     200A      0.867839   201A      0.870750   202A      0.879169  
     203A      0.879848   204A      0.890222   205A      0.894313  
     206A      0.895714   207A      0.911549   208A      0.916514  
     209A      0.918131   210A      0.924101   211A      0.925631  
     212A      0.932211   213A      0.934778   214A      0.940506  
     215A      0.946894   216A      0.950469   217A      0.954983  
     218A      0.962458   219A      0.972485   220A      0.973814  
     221A      0.975090   222A      0.984191   223A      0.989410  
     224A      0.997052   225A      1.000513   226A      1.006923  
     227A      1.010809   228A      1.013866   229A      1.025784  
     230A      1.029584   231A      1.033910   232A      1.038976  
     233A      1.050013   234A      1.051939   235A      1.055664  
     236A      1.060409   237A      1.064947   238A      1.073995  
     239A      1.081683   240A      1.085975   241A      1.087774  
     242A      1.097128   243A      1.102407   244A      1.104769  
     245A      1.106267   246A      1.110883   247A      1.119466  
     248A      1.132693   249A      1.136731   250A      1.143099  
     251A      1.150379   252A      1.151940   253A      1.153698  
     254A      1.168592   255A      1.171524   256A      1.177522  
     257A      1.179309   258A      1.181208   259A      1.186137  
     260A      1.194642   261A      1.197946   262A      1.212888  
     263A      1.216243   264A      1.219299   265A      1.223756  
     266A      1.229596   267A      1.230082   268A      1.237657  
     269A      1.242400   270A      1.253054   271A      1.261695  
     272A      1.263649   273A      1.266753   274A      1.279833  
     275A      1.288089   276A      1.299133   277A      1.311593  
     278A      1.317281   279A      1.322240   280A      1.325007  
     281A      1.335509   282A      1.346228   283A      1.360933  
     284A      1.366934   285A      1.372426   286A      1.383132  
     287A      1.388065   288A      1.393884   289A      1.405342  
     290A      1.414689   291A      1.419272   292A      1.426343  
     293A      1.428276   294A      1.441526   295A      1.451725  
     296A      1.458633   297A      1.462565   298A      1.477396  
     299A      1.484275   300A      1.493585   301A      1.507541  
     302A      1.518171   303A      1.518611   304A      1.528380  
     305A      1.531252   306A      1.537857   307A      1.544483  
     308A      1.556304   309A      1.565099   310A      1.573321  
     311A      1.576849   312A      1.582903   313A      1.604180  
     314A      1.607351   315A      1.613942   316A      1.629052  
     317A      1.638687   318A      1.649740   319A      1.652114  
     320A      1.658909   321A      1.667045   322A      1.689474  
     323A      1.693483   324A      1.697808   325A      1.705768  
     326A      1.708932   327A      1.717323   328A      1.721904  
     329A      1.728734   330A      1.736059   331A      1.751371  
     332A      1.756442   333A      1.759779   334A      1.770500  
     335A      1.782099   336A      1.793694   337A      1.795474  
     338A      1.813283   339A      1.818962   340A      1.825308  
     341A      1.835242   342A      1.837120   343A      1.854533  
     344A      1.858241   345A      1.863170   346A      1.873914  
     347A      1.877585   348A      1.881992   349A      1.898780  
     350A      1.900621   351A      1.913144   352A      1.919279  
     353A      1.933070   354A      1.948048   355A      1.956683  
     356A      1.969265   357A      1.983126   358A      1.990357  
     359A      1.990888   360A      2.006326   361A      2.017184  
     362A      2.023812   363A      2.034358   364A      2.041340  
     365A      2.046889   366A      2.057158   367A      2.065013  
     368A      2.076687   369A      2.086472   370A      2.097098  
     371A      2.103480   372A      2.109092   373A      2.118060  
     374A      2.125341   375A      2.135155   376A      2.144998  
     377A      2.162976   378A      2.173670   379A      2.182385  
     380A      2.185560   381A      2.192782   382A      2.204038  
     383A      2.210410   384A      2.218419   385A      2.229544  
     386A      2.236905   387A      2.258277   388A      2.265280  
     389A      2.277515   390A      2.293818   391A      2.304474  
     392A      2.322296   393A      2.343404   394A      2.354216  
     395A      2.357346   396A      2.376923   397A      2.383852  
     398A      2.399889   399A      2.418053   400A      2.420516  
     401A      2.436843   402A      2.446256   403A      2.461205  
     404A      2.471917   405A      2.479185   406A      2.499708  
     407A      2.517369   408A      2.538773   409A      2.557698  
     410A      2.563436   411A      2.573064   412A      2.584026  
     413A      2.594147   414A      2.607665   415A      2.626906  
     416A      2.634085   417A      2.641842   418A      2.660298  
     419A      2.679565   420A      2.680376   421A      2.696520  
     422A      2.708508   423A      2.722773   424A      2.741322  
     425A      2.745363   426A      2.763106   427A      2.777781  
     428A      2.783610   429A      2.801916   430A      2.819516  
     431A      2.840191   432A      2.859014   433A      2.876748  
     434A      2.894947   435A      2.900580   436A      2.916010  
     437A      2.929985   438A      2.962518   439A      2.974093  
     440A      2.998085   441A      3.029554   442A      3.034165  
     443A      3.056442   444A      3.070767   445A      3.091223  
     446A      3.110067   447A      3.122127   448A      3.130838  
     449A      3.152303   450A      3.168399   451A      3.191567  
     452A      3.222594   453A      3.238903   454A      3.266590  
     455A      3.282776   456A      3.296435   457A      3.301773  
     458A      3.328059   459A      3.337908   460A      3.367051  
     461A      3.382672   462A      3.392899   463A      3.403288  
     464A      3.407473   465A      3.425228   466A      3.432221  
     467A      3.444762   468A      3.463560   469A      3.472800  
     470A      3.481841   471A      3.495162   472A      3.496797  
     473A      3.516757   474A      3.525926   475A      3.530166  
     476A      3.551590   477A      3.557205   478A      3.565160  
     479A      3.583023   480A      3.594135   481A      3.596696  
     482A      3.619973   483A      3.645975   484A      3.648341  
     485A      3.659632   486A      3.674180   487A      3.677533  
     488A      3.693870   489A      3.704393   490A      3.717367  
     491A      3.727512   492A      3.741408   493A      3.754136  
     494A      3.771469   495A      3.777070   496A      3.785165  
     497A      3.794228   498A      3.813576   499A      3.816389  
     500A      3.830820   501A      3.843660   502A      3.849601  
     503A      3.862683   504A      3.869843   505A      3.882965  
     506A      3.891516   507A      3.895026   508A      3.904047  
     509A      3.916752   510A      3.926709   511A      3.937607  
     512A      3.951806   513A      3.959623   514A      3.964368  
     515A      3.973887   516A      3.978262   517A      3.999381  
     518A      4.009993   519A      4.015464   520A      4.023279  
     521A      4.047162   522A      4.071612   523A      4.075955  
     524A      4.079675   525A      4.097648   526A      4.105529  
     527A      4.110594   528A      4.117498   529A      4.123730  
     530A      4.140826   531A      4.146232   532A      4.165136  
     533A      4.174349   534A      4.178813   535A      4.201156  
     536A      4.214872   537A      4.226023   538A      4.238648  
     539A      4.249921   540A      4.266942   541A      4.277658  
     542A      4.291073   543A      4.300072   544A      4.311794  
     545A      4.318213   546A      4.330798   547A      4.342050  
     548A      4.350146   549A      4.352353   550A      4.366883  
     551A      4.376005   552A      4.389667   553A      4.402921  
     554A      4.404746   555A      4.415973   556A      4.443019  
     557A      4.447583   558A      4.450725   559A      4.469206  
     560A      4.480814   561A      4.493094   562A      4.507203  
     563A      4.527912   564A      4.541761   565A      4.546640  
     566A      4.559988   567A      4.577404   568A      4.586134  
     569A      4.588874   570A      4.608334   571A      4.616400  
     572A      4.640486   573A      4.651159   574A      4.668117  
     575A      4.694653   576A      4.696598   577A      4.705637  
     578A      4.714793   579A      4.752083   580A      4.754755  
     581A      4.761579   582A      4.779056   583A      4.795584  
     584A      4.807520   585A      4.825038   586A      4.837631  
     587A      4.853614   588A      4.858172   589A      4.869146  
     590A      4.897613   591A      4.902015   592A      4.929956  
     593A      4.934858   594A      4.957674   595A      4.968960  
     596A      4.974801   597A      4.986656   598A      4.999936  
     599A      5.013837   600A      5.051260   601A      5.056780  
     602A      5.071579   603A      5.075773   604A      5.088378  
     605A      5.107092   606A      5.127555   607A      5.140394  
     608A      5.150666   609A      5.152902   610A      5.165436  
     611A      5.174343   612A      5.196746   613A      5.212205  
     614A      5.237876   615A      5.246245   616A      5.263545  
     617A      5.291297   618A      5.304538   619A      5.319356  
     620A      5.336324   621A      5.348685   622A      5.371428  
     623A      5.377992   624A      5.388609   625A      5.403217  
     626A      5.432039   627A      5.435941   628A      5.439548  
     629A      5.462913   630A      5.471943   631A      5.534753  
     632A      5.545368   633A      5.605640   634A      5.618147  
     635A      5.642995   636A      5.650455   637A      5.669956  
     638A      5.697564   639A      5.720897   640A      5.733080  
     641A      5.786754   642A      5.803864   643A      5.810771  
     644A      5.853295   645A      5.862904   646A      5.904884  
     647A      5.953337   648A      6.017051   649A      6.055425  
     650A      6.099839   651A      6.114039   652A      6.144913  
     653A      6.169034   654A      6.193051   655A      6.204596  
     656A      6.211842   657A      6.230811   658A      6.274271  
     659A      6.296545   660A      6.326393   661A      6.337343  
     662A      6.384287   663A      6.437611   664A      6.471434  
     665A      6.505754   666A      6.646805   667A      6.686044  
     668A      6.714097   669A      6.757159   670A      6.770077  
     671A      6.777895   672A      6.804421   673A      6.825108  
     674A      6.838675   675A      6.886392   676A      6.908441  
     677A      6.913604   678A      6.958104   679A      7.007389  
     680A      7.056596   681A      7.069776   682A      7.106573  
     683A      7.204118   684A      7.253439   685A      7.282757  
     686A      7.320301   687A      7.444918   688A      7.469393  
     689A      7.478167   690A      7.532935   691A      7.605464  
     692A      7.644556   693A      7.692186   694A      7.727885  
     695A      7.768204   696A      7.773018   697A      7.809500  
     698A      7.997059   699A      8.017336   700A      8.068656  
     701A      8.406018   702A      8.659032   703A     15.714051  
     704A     15.988013   705A     16.215965   706A     16.414068  
     707A     17.406194   708A     18.345763   709A     18.904667  
     710A     19.315720   711A     19.685180   712A     20.090933  
     713A     21.129077  

    Final Occupation by Irrep:
              A 
    DOCC [    40 ]

  @DF-RHF Final Energy:  -512.55305871370490

   => Energetics <=

    Nuclear Repulsion Energy =            587.1669378310615457
    One-Electron Energy =               -1863.3293070127731426
    Two-Electron Energy =                 763.6093104680068109
    Total Energy =                       -512.5530587137048997

Computation Completed

*** tstop() called on c474-013.stampede2.tacc.utexas.edu at Wed Mar 31 23:23:58 2021
Module time:
	user time   =     478.95 seconds =       7.98 minutes
	system time =      12.09 seconds =       0.20 minutes
	total time  =         77 seconds =       1.28 minutes
Total time:
	user time   =     478.95 seconds =       7.98 minutes
	system time =      12.09 seconds =       0.20 minutes
	total time  =         77 seconds =       1.28 minutes
   => Loading Basis Set <=

    Name: (AUG-CC-PVTZ AUX)
    Role: RIFIT
    Keyword: DF_BASIS_MP2
    atoms 1-2   entry O          line   264 file /home1/07844/xy3866/miniconda3/envs/p4env/share/psi4/basis/aug-cc-pvtz-ri.gbs 
    atoms 3     entry N          line   206 file /home1/07844/xy3866/miniconda3/envs/p4env/share/psi4/basis/aug-cc-pvtz-ri.gbs 
    atoms 4-11  entry C          line   148 file /home1/07844/xy3866/miniconda3/envs/p4env/share/psi4/basis/aug-cc-pvtz-ri.gbs 
    atoms 12-20 entry H          line    30 file /home1/07844/xy3866/miniconda3/envs/p4env/share/psi4/basis/aug-cc-pvtz-ri.gbs 


*** tstart() called on c474-013.stampede2.tacc.utexas.edu
*** at Wed Mar 31 23:23:59 2021


  //>>>>>>>>>>>>>>>>>>>>>>>>>>>>>>>>>>>//
  //               DFMP2               //
  //<<<<<<<<<<<<<<<<<<<<<<<<<<<<<<<<<<<//

	 --------------------------------------------------------
	                          DF-MP2                         
	      2nd-Order Density-Fitted Moller-Plesset Theory     
	              RMP2 Wavefunction,   8 Threads             
	                                                         
	        Rob Parrish, Justin Turney, Andy Simmonett,      
	           Ed Hohenstein, and C. David Sherrill          
	 --------------------------------------------------------

   => Auxiliary Basis Set <=

  Basis Set: (AUG-CC-PVTZ AUX)
    Blend: AUG-CC-PVTZ-RI
    Number of shells: 434
    Number of basis functions: 1580
    Number of Cartesian functions: 1991
    Spherical Harmonics?: true
    Max angular momentum: 4

	 --------------------------------------------------------
	                 NBF =   713, NAUX =  1580
	 --------------------------------------------------------
	   CLASS    FOCC     OCC    AOCC    AVIR     VIR    FVIR
	   PAIRS       0      40      40     673     673       0
	 --------------------------------------------------------

  DFHelper Memory: AOs need 5.586 GiB; user supplied 22.352 GiB. Using in-core AOs.


         ------------------------------------------------------------
                                     CPHF                           
                                  Rob Parrish                       
         ------------------------------------------------------------

  ==> Geometry <==

    Molecular point group: c1
    Full point group: C1

    Geometry (in Angstrom), charge = 0, multiplicity = 1:

       Center              X                  Y                   Z               Mass       
    ------------   -----------------  -----------------  -----------------  -----------------
         O           -0.482227034431     2.139680883356    -0.321573029323    15.994914619570
         O            1.760090965569     0.858823883356     1.138832970677    15.994914619570
         N            2.100811965569    -0.695782116644    -0.506289029323    14.003074004430
         C           -0.158575034431    -0.168945116644     0.109412970677    12.000000000000
         C           -1.034004034431     0.897651883356    -0.150552029323    12.000000000000
         C           -0.678947034431    -1.460887116644     0.243691970677    12.000000000000
         C            1.316095565569     0.092046983356     0.312572970677    12.000000000000
         C           -2.406203034431     0.660755883356    -0.267385029323    12.000000000000
         C           -2.050477034431    -1.698307116644     0.136573970677    12.000000000000
         C           -2.912195034431    -0.631563116644    -0.117255029323    12.000000000000
         C            3.543437965569    -0.529382116644    -0.497730029323    12.000000000000
         H            0.004306965569    -2.279311116644     0.460212970677     1.007825032230
         H           -3.081196034431     1.489998883356    -0.476951029323     1.007825032230
         H           -2.442279034431    -2.704604116644     0.257132970677     1.007825032230
         H           -3.983041034431    -0.798843116644    -0.203742029323     1.007825032230
         H            1.663908965569    -1.133815116644    -1.306838029323     1.007825032230
         H            3.864031965569     0.326585883356    -1.101641029323     1.007825032230
         H            4.012070965569    -1.438244116644    -0.879589029323     1.007825032230
         H            3.858671965569    -0.360136116644     0.531451970677     1.007825032230
         H           -1.204279034431     2.776441883356    -0.469437029323     1.007825032230

  Nuclear repulsion =  587.166937831061546
  Reference energy  = -512.553058713704900

  ==> Basis Set <==

  Basis Set: AUG-CC-PVTZ
    Blend: AUG-CC-PVTZ
    Number of shells: 235
    Number of basis functions: 713
    Number of Cartesian functions: 830
    Spherical Harmonics?: true
    Max angular momentum: 3

  ==> CGRSolver (by Rob Parrish) <==

   Number of roots    =         1
   Preconditioning    =    JACOBI
   Convergence cutoff =     1E-06
   Maximum iterations =       100

  ==> CPHFRHamiltonian (by Rob Parrish) <== 

  ==> MemDFJK: Density-Fitted J/K Matrices <==

    J tasked:                   Yes
    K tasked:                   Yes
    wK tasked:                   No
    OpenMP threads:               8
    Memory [MiB]:             22888
    Algorithm:                 Core
    Schwarz Cutoff:           1E-12
    Mask sparsity (%):       7.8974
    Fitting Condition:        1E-10

   => Auxiliary Basis Set <=

  Basis Set: (AUG-CC-PVTZ AUX)
    Blend: AUG-CC-PVTZ-JKFIT
    Number of shells: 456
    Number of basis functions: 1558
    Number of Cartesian functions: 1936
    Spherical Harmonics?: true
    Max angular momentum: 4

  ==> CPHF Iterations <==

  => Iterations <=

             Iter  Converged  Remaining    Residual
  CGR           1          0          1   1.137E-01
  CGR           2          0          1   3.692E-02
  CGR           3          0          1   1.857E-02
  CGR           4          0          1   8.124E-03
  CGR           5          0          1   4.024E-03
  CGR           6          0          1   1.699E-03
  CGR           7          0          1   5.018E-04
  CGR           8          0          1   1.632E-04
  CGR           9          0          1   5.733E-05
  CGR          10          0          1   1.990E-05
  CGR          11          0          1   9.104E-06
  CGR          12          0          1   3.440E-06
  CGR          13          0          1   1.490E-06
  CGR          14          1          0   5.267E-07

    CGRSolver converged.

	-----------------------------------------------------------
	 ==================> DF-MP2 Energies <==================== 
	-----------------------------------------------------------
	 Reference Energy          =    -512.5530587137048997 [Eh]
	 Singles Energy            =      -0.0000000000000000 [Eh]
	 Same-Spin Energy          =      -0.5365790077940326 [Eh]
	 Opposite-Spin Energy      =      -1.6451547029770335 [Eh]
	 Correlation Energy        =      -2.1817337107710659 [Eh]
	 Total Energy              =    -514.7347924244759270 [Eh]
	-----------------------------------------------------------
	 ================> DF-SCS-MP2 Energies <================== 
	-----------------------------------------------------------
	 SCS Same-Spin Scale       =       0.3333333333333333 [-]
	 SCS Opposite-Spin Scale   =       1.2000000000000000 [-]
	 SCS Same-Spin Energy      =      -0.1788596692646775 [Eh]
	 SCS Opposite-Spin Energy  =      -1.9741856435724401 [Eh]
	 SCS Correlation Energy    =      -2.1530453128371176 [Eh]
	 SCS Total Energy          =    -514.7061040265419933 [Eh]
	-----------------------------------------------------------



Properties will be evaluated at  -0.000000,  -0.000000,   0.000000 [a0]

Properties computed using the MP2 density matrix

  Nuclear Dipole Moment: [e a0]
     X:     2.5239      Y:    -3.8478      Z:    -2.9846

  Electronic Dipole Moment: [e a0]
     X:    -3.1908      Y:     3.2611      Z:     1.8565

  Dipole Moment: [e a0]
     X:    -0.6669      Y:    -0.5867      Z:    -1.1281     Total:     1.4358

  Dipole Moment: [D]
     X:    -1.6951      Y:    -1.4912      Z:    -2.8673     Total:     3.6495


*** tstop() called on c474-013.stampede2.tacc.utexas.edu at Wed Mar 31 23:29:08 2021
Module time:
	user time   =    1912.62 seconds =      31.88 minutes
	system time =      29.78 seconds =       0.50 minutes
	total time  =        309 seconds =       5.15 minutes
Total time:
	user time   =    2392.55 seconds =      39.88 minutes
	system time =      41.90 seconds =       0.70 minutes
	total time  =        387 seconds =       6.45 minutes

    Psi4 stopped on: Wednesday, 31 March 2021 11:29PM
    Psi4 wall time for execution: 0:06:27.44

*** Psi4 exiting successfully. Buy a developer a beer!
