opt=(Tight,CalcAll)                                                     
Freq      RMP2-FC                                                     6-31G(d)            
Number of atoms                            I               12
Info1-9                                    I   N=           9
          21          21        1002           0           0         100
           6           2           1
Charge                                     I                0
Multiplicity                               I                1
Number of electrons                        I               40
Number of alpha electrons                  I               20
Number of beta electrons                   I               20
Number of basis functions                  I               89
Number of independent functions            I               89
Number of point charges in /Mol/           I                0
Number of translation vectors              I                0
Atomic numbers                             I   N=          12
           8           7           6           6           6           1
           1           1           1           1           1           1
Nuclear charges                            R   N=          12
  8.00000000E+00  7.00000000E+00  6.00000000E+00  6.00000000E+00  6.00000000E+00
  1.00000000E+00  1.00000000E+00  1.00000000E+00  1.00000000E+00  1.00000000E+00
  1.00000000E+00  1.00000000E+00
Current cartesian coordinates              R   N=          36
  2.91595159E+00 -1.74611028E+00  3.89934459E-01  4.03273252E-01  1.74167467E+00
 -1.51297435E-01 -1.80290747E+00  6.35680830E-01  1.06756282E+00 -3.31096602E+00
 -1.07128071E+00 -6.95818275E-01  2.56920325E+00  3.89601458E-01 -4.55902143E-01
 -1.11541401E+00 -4.43657688E-01  2.68702764E+00 -2.96769270E+00  2.18500103E+00
  1.78551656E+00 -3.98789256E+00 -1.89509925E-02 -2.34050279E+00 -2.11724748E+00
 -2.62404023E+00 -1.34424444E+00 -4.94791398E+00 -1.86590121E+00  2.86460122E-01
  2.22303411E-01  3.38752007E+00 -1.10759911E+00  4.03135327E+00  1.43317915E+00
 -1.52210602E+00
Force Field                                I                0
Int Atom Types                             I   N=          12
           0           0           0           0           0           0
           0           0           0           0           0           0
MM charges                                 R   N=          12
  0.00000000E+00  0.00000000E+00  0.00000000E+00  0.00000000E+00  0.00000000E+00
  0.00000000E+00  0.00000000E+00  0.00000000E+00  0.00000000E+00  0.00000000E+00
  0.00000000E+00  0.00000000E+00
Integer atomic weights                     I   N=          12
          16          14          12          12          12           1
           1           1           1           1           1           1
Real atomic weights                        R   N=          12
  1.59949146E+01  1.40030740E+01  1.20000000E+01  1.20000000E+01  1.20000000E+01
  1.00782504E+00  1.00782504E+00  1.00782504E+00  1.00782504E+00  1.00782504E+00
  1.00782504E+00  1.00782504E+00
Atom fragment info                         I   N=          12
           0           0           0           0           0           0
           0           0           0           0           0           0
Atom residue num                           I   N=          12
           0           0           0           0           0           0
           0           0           0           0           0           0
Nuclear spins                              I   N=          12
           0           2           0           0           0           1
           1           1           1           1           1           1
Nuclear ZEff                               R   N=          12
 -5.60000000E+00 -4.55000000E+00 -3.60000000E+00 -3.60000000E+00 -3.60000000E+00
 -1.00000000E+00 -1.00000000E+00 -1.00000000E+00 -1.00000000E+00 -1.00000000E+00
 -1.00000000E+00 -1.00000000E+00
Nuclear QMom                               R   N=          12
  0.00000000E+00  2.04400000E+00  0.00000000E+00  0.00000000E+00  0.00000000E+00
  0.00000000E+00  0.00000000E+00  0.00000000E+00  0.00000000E+00  0.00000000E+00
  0.00000000E+00  0.00000000E+00
Nuclear GFac                               R   N=          12
  0.00000000E+00  4.03761000E-01  0.00000000E+00  0.00000000E+00  0.00000000E+00
  2.79284600E+00  2.79284600E+00  2.79284600E+00  2.79284600E+00  2.79284600E+00
  2.79284600E+00  2.79284600E+00
MicOpt                                     I   N=          12
          -1          -1          -1          -1          -1          -1
          -1          -1          -1          -1          -1          -1
Number of contracted shells                I               34
Number of primitive shells                 I               83
Pure/Cartesian d shells                    I                1
Pure/Cartesian f shells                    I                0
Highest angular momentum                   I                2
Largest degree of contraction              I                6
Shell types                                I   N=          34
           0          -1          -1           2           0          -1
          -1           2           0          -1          -1           2
           0          -1          -1           2           0          -1
          -1           2           0           0           0           0
           0           0           0           0           0           0
           0           0           0           0
Number of primitives per shell             I   N=          34
           6           3           1           1           6           3
           1           1           6           3           1           1
           6           3           1           1           6           3
           1           1           3           1           3           1
           3           1           3           1           3           1
           3           1           3           1
Shell to atom map                          I   N=          34
           1           1           1           1           2           2
           2           2           3           3           3           3
           4           4           4           4           5           5
           5           5           6           6           7           7
           8           8           9           9          10          10
          11          11          12          12
Primitive exponents                        R   N=          83
  5.48467166E+03  8.25234946E+02  1.88046958E+02  5.29645000E+01  1.68975704E+01
  5.79963534E+00  1.55396162E+01  3.59993359E+00  1.01376175E+00  2.70005823E-01
  8.00000000E-01  4.17351146E+03  6.27457911E+02  1.42902093E+02  4.02343293E+01
  1.28202129E+01  4.39043701E+00  1.16263619E+01  2.71627981E+00  7.72218397E-01
  2.12031498E-01  8.00000000E-01  3.04752488E+03  4.57369518E+02  1.03948685E+02
  2.92101553E+01  9.28666296E+00  3.16392696E+00  7.86827235E+00  1.88128854E+00
  5.44249258E-01  1.68714478E-01  8.00000000E-01  3.04752488E+03  4.57369518E+02
  1.03948685E+02  2.92101553E+01  9.28666296E+00  3.16392696E+00  7.86827235E+00
  1.88128854E+00  5.44249258E-01  1.68714478E-01  8.00000000E-01  3.04752488E+03
  4.57369518E+02  1.03948685E+02  2.92101553E+01  9.28666296E+00  3.16392696E+00
  7.86827235E+00  1.88128854E+00  5.44249258E-01  1.68714478E-01  8.00000000E-01
  1.87311370E+01  2.82539436E+00  6.40121692E-01  1.61277759E-01  1.87311370E+01
  2.82539436E+00  6.40121692E-01  1.61277759E-01  1.87311370E+01  2.82539436E+00
  6.40121692E-01  1.61277759E-01  1.87311370E+01  2.82539436E+00  6.40121692E-01
  1.61277759E-01  1.87311370E+01  2.82539436E+00  6.40121692E-01  1.61277759E-01
  1.87311370E+01  2.82539436E+00  6.40121692E-01  1.61277759E-01  1.87311370E+01
  2.82539436E+00  6.40121692E-01  1.61277759E-01
Contraction coefficients                   R   N=          83
  1.83107443E-03  1.39501722E-02  6.84450781E-02  2.32714336E-01  4.70192898E-01
  3.58520853E-01 -1.10777550E-01 -1.48026263E-01  1.13076702E+00  1.00000000E+00
  1.00000000E+00  1.83477216E-03  1.39946270E-02  6.85865518E-02  2.32240873E-01
  4.69069948E-01  3.60455199E-01 -1.14961182E-01 -1.69117479E-01  1.14585195E+00
  1.00000000E+00  1.00000000E+00  1.83473713E-03  1.40373228E-02  6.88426223E-02
  2.32184443E-01  4.67941348E-01  3.62311985E-01 -1.19332420E-01 -1.60854152E-01
  1.14345644E+00  1.00000000E+00  1.00000000E+00  1.83473713E-03  1.40373228E-02
  6.88426223E-02  2.32184443E-01  4.67941348E-01  3.62311985E-01 -1.19332420E-01
 -1.60854152E-01  1.14345644E+00  1.00000000E+00  1.00000000E+00  1.83473713E-03
  1.40373228E-02  6.88426223E-02  2.32184443E-01  4.67941348E-01  3.62311985E-01
 -1.19332420E-01 -1.60854152E-01  1.14345644E+00  1.00000000E+00  1.00000000E+00
  3.34946043E-02  2.34726953E-01  8.13757326E-01  1.00000000E+00  3.34946043E-02
  2.34726953E-01  8.13757326E-01  1.00000000E+00  3.34946043E-02  2.34726953E-01
  8.13757326E-01  1.00000000E+00  3.34946043E-02  2.34726953E-01  8.13757326E-01
  1.00000000E+00  3.34946043E-02  2.34726953E-01  8.13757326E-01  1.00000000E+00
  3.34946043E-02  2.34726953E-01  8.13757326E-01  1.00000000E+00  3.34946043E-02
  2.34726953E-01  8.13757326E-01  1.00000000E+00
P(S=P) Contraction coefficients            R   N=          83
  0.00000000E+00  0.00000000E+00  0.00000000E+00  0.00000000E+00  0.00000000E+00
  0.00000000E+00  7.08742682E-02  3.39752839E-01  7.27158577E-01  1.00000000E+00
  0.00000000E+00  0.00000000E+00  0.00000000E+00  0.00000000E+00  0.00000000E+00
  0.00000000E+00  0.00000000E+00  6.75797439E-02  3.23907296E-01  7.40895140E-01
  1.00000000E+00  0.00000000E+00  0.00000000E+00  0.00000000E+00  0.00000000E+00
  0.00000000E+00  0.00000000E+00  0.00000000E+00  6.89990666E-02  3.16423961E-01
  7.44308291E-01  1.00000000E+00  0.00000000E+00  0.00000000E+00  0.00000000E+00
  0.00000000E+00  0.00000000E+00  0.00000000E+00  0.00000000E+00  6.89990666E-02
  3.16423961E-01  7.44308291E-01  1.00000000E+00  0.00000000E+00  0.00000000E+00
  0.00000000E+00  0.00000000E+00  0.00000000E+00  0.00000000E+00  0.00000000E+00
  6.89990666E-02  3.16423961E-01  7.44308291E-01  1.00000000E+00  0.00000000E+00
  0.00000000E+00  0.00000000E+00  0.00000000E+00  0.00000000E+00  0.00000000E+00
  0.00000000E+00  0.00000000E+00  0.00000000E+00  0.00000000E+00  0.00000000E+00
  0.00000000E+00  0.00000000E+00  0.00000000E+00  0.00000000E+00  0.00000000E+00
  0.00000000E+00  0.00000000E+00  0.00000000E+00  0.00000000E+00  0.00000000E+00
  0.00000000E+00  0.00000000E+00  0.00000000E+00  0.00000000E+00  0.00000000E+00
  0.00000000E+00  0.00000000E+00  0.00000000E+00
Coordinates of each shell                  R   N=         102
  2.91595159E+00 -1.74611028E+00  3.89934459E-01  2.91595159E+00 -1.74611028E+00
  3.89934459E-01  2.91595159E+00 -1.74611028E+00  3.89934459E-01  2.91595159E+00
 -1.74611028E+00  3.89934459E-01  4.03273252E-01  1.74167467E+00 -1.51297435E-01
  4.03273252E-01  1.74167467E+00 -1.51297435E-01  4.03273252E-01  1.74167467E+00
 -1.51297435E-01  4.03273252E-01  1.74167467E+00 -1.51297435E-01 -1.80290747E+00
  6.35680830E-01  1.06756282E+00 -1.80290747E+00  6.35680830E-01  1.06756282E+00
 -1.80290747E+00  6.35680830E-01  1.06756282E+00 -1.80290747E+00  6.35680830E-01
  1.06756282E+00 -3.31096602E+00 -1.07128071E+00 -6.95818275E-01 -3.31096602E+00
 -1.07128071E+00 -6.95818275E-01 -3.31096602E+00 -1.07128071E+00 -6.95818275E-01
 -3.31096602E+00 -1.07128071E+00 -6.95818275E-01  2.56920325E+00  3.89601458E-01
 -4.55902143E-01  2.56920325E+00  3.89601458E-01 -4.55902143E-01  2.56920325E+00
  3.89601458E-01 -4.55902143E-01  2.56920325E+00  3.89601458E-01 -4.55902143E-01
 -1.11541401E+00 -4.43657688E-01  2.68702764E+00 -1.11541401E+00 -4.43657688E-01
  2.68702764E+00 -2.96769270E+00  2.18500103E+00  1.78551656E+00 -2.96769270E+00
  2.18500103E+00  1.78551656E+00 -3.98789256E+00 -1.89509925E-02 -2.34050279E+00
 -3.98789256E+00 -1.89509925E-02 -2.34050279E+00 -2.11724748E+00 -2.62404023E+00
 -1.34424444E+00 -2.11724748E+00 -2.62404023E+00 -1.34424444E+00 -4.94791398E+00
 -1.86590121E+00  2.86460122E-01 -4.94791398E+00 -1.86590121E+00  2.86460122E-01
  2.22303411E-01  3.38752007E+00 -1.10759911E+00  2.22303411E-01  3.38752007E+00
 -1.10759911E+00  4.03135327E+00  1.43317915E+00 -1.52210602E+00  4.03135327E+00
  1.43317915E+00 -1.52210602E+00
Constraint Structure                       R   N=          36
  2.91595159E+00 -1.74611028E+00  3.89934459E-01  4.03273252E-01  1.74167467E+00
 -1.51297435E-01 -1.80290747E+00  6.35680830E-01  1.06756282E+00 -3.31096602E+00
 -1.07128071E+00 -6.95818275E-01  2.56920325E+00  3.89601458E-01 -4.55902143E-01
 -1.11541401E+00 -4.43657688E-01  2.68702764E+00 -2.96769270E+00  2.18500103E+00
  1.78551656E+00 -3.98789256E+00 -1.89509925E-02 -2.34050279E+00 -2.11724748E+00
 -2.62404023E+00 -1.34424444E+00 -4.94791398E+00 -1.86590121E+00  2.86460122E-01
  2.22303411E-01  3.38752007E+00 -1.10759911E+00  4.03135327E+00  1.43317915E+00
 -1.52210602E+00
Num ILSW                                   I              100
ILSW                                       I   N=         100
           0           1           0           0           2           0
           0           0           0           0           0          -1
           0           0           0           0           0           0
           0           0           0           0           1           0
           1           0           0           0           0           0
           0           0      100000           0          -1           0
           0           0           0           0           0           0
           0           0           0           1           1           0
           0           0           1           0           0           0
           0           0           4          40           0           0
           0           0           0           0           0           0
           0           0           0           0           0           0
           0           0           0           0           0           0
           0           0           0           0           0           0
           0           0           0           0           0           0
           0           0           0           0           0           0
           0           0           0           0
Num RLSW                                   I               40
RLSW                                       R   N=          40
  1.00000000E+00  1.00000000E+00  1.00000000E+00  1.00000000E+00  1.00000000E+00
  0.00000000E+00  0.00000000E+00  1.00000000E+00  0.00000000E+00  0.00000000E+00
  0.00000000E+00  0.00000000E+00  1.00000000E+00  0.00000000E+00  0.00000000E+00
  0.00000000E+00  0.00000000E+00  1.00000000E+00  0.00000000E+00  0.00000000E+00
  0.00000000E+00  0.00000000E+00  1.00000000E+00  0.00000000E+00  0.00000000E+00
  0.00000000E+00  0.00000000E+00  1.00000000E+00  0.00000000E+00  0.00000000E+00
  0.00000000E+00  0.00000000E+00  0.00000000E+00  0.00000000E+00  0.00000000E+00
  0.00000000E+00  0.00000000E+00  0.00000000E+00  1.00000000E+00  1.00000000E+00
MxBond                                     I                4
NBond                                      I   N=          12
           1           3           4           4           3           1
           1           1           1           1           1           1
IBond                                      I   N=          48
           5           0           0           0           3           5
          11           0           2           4           6           7
           3           8           9          10           1           2
          12           0           3           0           0           0
           3           0           0           0           4           0
           0           0           4           0           0           0
           4           0           0           0           2           0
           0           0           5           0           0           0
RBond                                      R   N=          48
  2.00000000E+00  0.00000000E+00  0.00000000E+00  0.00000000E+00  1.00000000E+00
  1.41000000E+00  1.00000000E+00  0.00000000E+00  1.00000000E+00  1.00000000E+00
  1.00000000E+00  1.00000000E+00  1.00000000E+00  1.00000000E+00  1.00000000E+00
  1.00000000E+00  2.00000000E+00  1.41000000E+00  1.00000000E+00  0.00000000E+00
  1.00000000E+00  0.00000000E+00  0.00000000E+00  0.00000000E+00  1.00000000E+00
  0.00000000E+00  0.00000000E+00  0.00000000E+00  1.00000000E+00  0.00000000E+00
  0.00000000E+00  0.00000000E+00  1.00000000E+00  0.00000000E+00  0.00000000E+00
  0.00000000E+00  1.00000000E+00  0.00000000E+00  0.00000000E+00  0.00000000E+00
  1.00000000E+00  0.00000000E+00  0.00000000E+00  0.00000000E+00  1.00000000E+00
  0.00000000E+00  0.00000000E+00  0.00000000E+00
Virial Ratio                               R      2.002720809073819E+00
SCF Energy                                 R     -2.469961144033004E+02
MP2 Energy                                 R     -2.477244133523560E+02
Total Energy                               R     -2.477244133523560E+02
Post-SCF wavefunction norm                 R      1.568142638318150E+00
RMS Force                                  R      2.761993402542809E-08
RMS Density                                R      8.335094331530827E-10
External E-field                           R   N=          35
  0.00000000E+00  0.00000000E+00  0.00000000E+00  0.00000000E+00  0.00000000E+00
  0.00000000E+00  0.00000000E+00  0.00000000E+00  0.00000000E+00  0.00000000E+00
  0.00000000E+00  0.00000000E+00  0.00000000E+00  0.00000000E+00  0.00000000E+00
  0.00000000E+00  0.00000000E+00  0.00000000E+00  0.00000000E+00  0.00000000E+00
  0.00000000E+00  0.00000000E+00  0.00000000E+00  0.00000000E+00  0.00000000E+00
  0.00000000E+00  0.00000000E+00  0.00000000E+00  0.00000000E+00  0.00000000E+00
  0.00000000E+00  0.00000000E+00  0.00000000E+00  0.00000000E+00  0.00000000E+00
IOpCl                                      I                0
IROHF                                      I                0
Alpha Orbital Energies                     R   N=          89
 -2.05284151E+01 -1.55941914E+01 -1.13526677E+01 -1.12676135E+01 -1.12185780E+01
 -1.36917159E+00 -1.23140036E+00 -1.02221880E+00 -8.81528058E-01 -7.94919521E-01
 -7.38014208E-01 -6.44315014E-01 -6.08551131E-01 -5.94644336E-01 -5.81834362E-01
 -5.28257279E-01 -5.16053875E-01 -4.97059563E-01 -4.23221940E-01 -3.87681827E-01
  1.95960784E-01  2.16622575E-01  2.56464560E-01  2.90298932E-01  3.00145445E-01
  3.08928387E-01  3.18982038E-01  3.38748706E-01  3.99435117E-01  4.14584351E-01
  4.56473112E-01  5.54467937E-01  7.11065457E-01  7.23681175E-01  7.42066749E-01
  7.69581337E-01  8.07435126E-01  8.42404856E-01  8.78793188E-01  9.23765801E-01
  9.50661495E-01  1.04987036E+00  1.06575563E+00  1.08589841E+00  1.10470165E+00
  1.11821812E+00  1.15873325E+00  1.16749130E+00  1.17904364E+00  1.19548398E+00
  1.22644795E+00  1.27505618E+00  1.28538960E+00  1.35605608E+00  1.41127965E+00
  1.53115684E+00  1.61820866E+00  1.63181876E+00  1.66258467E+00  1.72806038E+00
  1.81442704E+00  1.86731732E+00  2.02662252E+00  2.06195116E+00  2.13024966E+00
  2.14699720E+00  2.19478585E+00  2.25833662E+00  2.30219187E+00  2.31413440E+00
  2.39975784E+00  2.50079130E+00  2.54800526E+00  2.60695243E+00  2.66793187E+00
  2.69957980E+00  2.71554561E+00  2.80990683E+00  2.90637630E+00  2.94587608E+00
  3.04075696E+00  3.12070460E+00  3.29330154E+00  3.43949244E+00  4.25333525E+00
  4.39096199E+00  4.58033134E+00  4.65536732E+00  4.86188984E+00
Alpha MO coefficients                      R   N=        7921
  9.94698412E-01  2.09747630E-02 -2.62601374E-04  1.43141205E-03 -5.49953263E-04
  4.38162229E-03  2.13050403E-05 -8.60164751E-05  2.36751120E-05 -3.90986984E-03
 -3.70353824E-03 -4.00833962E-03 -6.54335686E-05 -5.52997792E-05 -1.88002279E-04
 -4.58936255E-06 -2.56793587E-05  5.62881474E-07  2.82104589E-05 -1.20519213E-05
  2.80317434E-05 -5.14083972E-05 -5.19828964E-05  3.03239072E-05  7.06707270E-05
 -7.34478272E-05 -2.16637876E-05  3.25793406E-05 -6.65116735E-05  6.88796746E-06
 -1.34361447E-06  1.45128627E-05 -1.04012871E-05 -2.51543470E-05  3.70751486E-06
 -1.80531331E-06 -8.41211172E-05  4.49938541E-05  6.61138238E-05 -2.47143374E-05
 -1.29442483E-05 -1.31208504E-05 -1.91527360E-05  1.43984248E-05  1.38005545E-05
 -2.67295882E-06 -1.41698210E-05  5.15857628E-06  9.78353092E-06  4.39998127E-06
  1.09205708E-04  3.48572460E-05 -5.65608733E-05 -1.40279927E-05  3.21149613E-06
 -6.51933179E-06 -3.79067734E-06 -1.71553584E-07  2.11860124E-06 -4.42873047E-06
 -1.86303880E-06  5.14827515E-04  5.55669589E-06  2.78010278E-05 -1.24248063E-05
 -2.80064721E-04 -9.34868583E-05  4.19898151E-04 -1.54332585E-04 -7.54372201E-05
 -6.56118703E-04 -1.35323336E-04  1.28489365E-04 -4.51841537E-05  2.74420835E-04
  2.82416528E-05 -7.70303469E-05 -1.49424262E-05 -4.32391404E-05 -4.51663910E-06
  8.59984323E-06  1.91980779E-05 -1.16976193E-04 -5.75302641E-06 -9.55653383E-06
  3.15247104E-05 -3.77977100E-05 -1.26941854E-05 -9.95515855E-05  2.15942342E-05
  6.10324000E-05  2.79572153E-06 -6.25229346E-06  6.31960475E-07 -4.70342694E-04
  2.21828590E-04 -1.20213091E-04 -1.62038851E-05  3.86118838E-05  4.55632869E-05
  3.40207174E-05  4.40158032E-05 -3.49491777E-05 -3.35008834E-05  9.94943485E-01
  2.52138094E-02  2.00248654E-06 -1.34925119E-04 -2.60772297E-04 -2.56386218E-03
 -2.43605259E-05  6.44222805E-04 -3.31141075E-05 -3.46946191E-03 -3.48027889E-03
 -3.40680035E-03 -2.64203382E-05  5.44473571E-05  6.58838073E-05 -3.46742214E-06
  1.57728705E-04  2.25989848E-04  1.01329738E-04 -1.27412023E-04  1.05718289E-03
  3.96690598E-04  1.41806559E-04 -9.76073650E-05 -5.68619126E-05 -9.73170838E-05
 -5.92354060E-05 -1.66447714E-06 -2.04072400E-06  1.24756687E-05 -1.84774726E-05
 -5.92434718E-05 -6.56324445E-05 -4.90019624E-05  4.95337242E-06  2.10058234E-04
  1.23957697E-04  7.54596193E-05 -1.03833327E-04 -5.62124345E-05 -4.81743371E-05
 -3.49702503E-05 -6.64475651E-07 -5.69797020E-06  1.44071696E-06  2.71505620E-05
  2.24633689E-04 -1.91880011E-04  9.05810291E-05  3.06307955E-05  1.36962833E-03
 -7.56133169E-04  6.44844608E-05  2.28993148E-04 -9.40106770E-05 -1.05654128E-04
 -5.16131711E-05  7.14545369E-05 -3.47554551E-06 -3.11353822E-06 -7.83856810E-05
 -1.55231822E-04 -5.74014394E-05 -1.14503479E-04 -3.10412203E-05 -8.71037524E-05
 -1.08136239E-05 -1.32668606E-04 -1.22342457E-06  1.28563007E-04  2.19290712E-04
  2.60818393E-04 -4.01411544E-05  7.61217990E-05 -2.89984812E-04  4.53916755E-04
 -8.71691805E-05  2.62339457E-04 -9.74637586E-05 -1.98383311E-03  4.43341462E-04
 -1.23200315E-03  4.17479815E-04  9.66761303E-05  3.78554104E-05  2.29322446E-04
  6.38278508E-05  5.32286403E-05  1.09895273E-04 -2.64233523E-04  3.49404718E-04
 -1.11968752E-04 -5.23468230E-05  6.41283615E-05 -4.07916541E-05  3.79616018E-05
  1.48686970E-03 -6.84329979E-04 -5.23701856E-04 -2.02700074E-04  8.24738976E-05
  2.64567833E-04  1.94928301E-04  3.88212260E-05 -9.73112287E-05 -2.19029784E-04
  5.53061898E-05  1.26198853E-04 -6.81843902E-05  8.43539220E-04  1.05225184E-03
 -5.78160429E-04  5.57586741E-05  2.15880333E-04 -3.81778635E-05  3.10241422E-05
  4.45594852E-05 -8.91926744E-05 -4.76019980E-05 -2.45404231E-05 -2.71874261E-05
 -6.52559937E-05 -7.92107808E-05  2.99617791E-05 -1.45513871E-05 -4.66959279E-05
  5.46983231E-04 -2.06067066E-04 -7.40633590E-05  1.41661952E-05 -2.51531772E-05
  2.61142465E-06 -5.40760405E-06  2.00828896E-05  9.95759816E-01  2.60933740E-02
 -5.86161011E-04 -6.95325617E-05  2.82125731E-04 -5.63340139E-03 -6.46403017E-04
 -1.91874945E-03  1.16346625E-03 -1.58566732E-03 -1.15634449E-03 -2.20585671E-03
 -4.46391629E-04 -2.42722254E-04 -5.35512388E-04 -1.93086750E-04 -2.82499190E-04
  9.70768655E-05  2.79089465E-04 -4.25293843E-05 -2.66308123E-04 -5.69561353E-05
  3.26964456E-04  1.88742604E-05  2.31036975E-04 -2.22403209E-04 -3.19680382E-04
 -1.16141530E-04  2.46916128E-03  3.29689714E-06  3.07662674E-05  6.54276698E-05
 -4.42167848E-05  2.40897698E-05 -7.84476009E-04  3.93439379E-05 -1.72210523E-04
 -4.16996255E-05  3.72364529E-05 -3.36448598E-05 -6.90904691E-05 -1.14308060E-05
 -2.60241804E-05 -3.16527040E-05 -2.04034867E-04  1.85689788E-04 -5.47654446E-05
 -6.69111482E-05  4.38350094E-05  2.40114388E-03 -9.63331169E-04  4.24881896E-04
 -8.58982886E-05 -5.15562781E-04 -1.42736122E-04 -1.77919844E-04 -1.85481750E-04
  3.13526932E-04  9.59662555E-05  9.95871737E-01  2.80950352E-02  6.38327861E-04
  2.77259324E-04 -4.56179927E-04 -1.59335567E-02 -1.55546946E-04  6.15161061E-04
  1.13247965E-03 -1.45576798E-03 -1.49758005E-03 -1.56427091E-03 -3.29146904E-05
 -1.92856963E-05 -3.84619506E-05  5.97247074E-03  9.19120768E-05  5.17119018E-05
  5.84205020E-05  3.50284062E-05  4.64696140E-03  1.32548221E-03  1.16997124E-03
  1.16960440E-03 -2.10077389E-04 -2.60467455E-04 -3.01323828E-04 -1.05593748E-04
 -9.79594009E-05 -1.48648909E-04  6.31762722E-05 -2.71265115E-04  7.92242356E-05
  1.02377268E-04 -7.24062152E-05  9.33123717E-04 -1.12648917E-03 -8.60275213E-04
  8.97026867E-04  1.19723887E-04  8.22070037E-05 -7.08355706E-05 -8.00934609E-05
 -6.10743156E-05 -6.89172732E-05  2.97828960E-04  2.48766700E-03  1.56353240E-04
  2.40776607E-03 -2.02316104E-04  8.86000933E-05 -1.57865480E-04 -2.09653124E-04
 -1.43250641E-04 -2.10424489E-05 -2.69323300E-04 -1.58579179E-04  1.08262525E-04
  7.67910797E-04  2.06600070E-05  8.04785715E-05 -3.18339144E-05  4.47782136E-06
 -4.99297657E-06 -2.93082921E-04  1.35701729E-04 -2.43244437E-05  2.24494410E-05
  4.36629532E-05  6.90281432E-05  7.80091199E-05  1.16889759E-05 -2.48653393E-06
  5.58305133E-06 -5.48019572E-05 -2.35573452E-04  5.71025207E-05  7.09512221E-05
  1.28435232E-05  7.87842486E-04 -1.62932403E-04 -1.81711726E-04  3.83665914E-05
 -1.14093037E-04 -1.46551182E-04 -1.35942859E-04  8.03483890E-05 -1.00228574E-05
  4.41112271E-05 -6.29362193E-03 -5.45687828E-05 -6.86621448E-05 -2.19161540E-05
  1.99216608E-05  3.41925501E-03 -1.03506939E-03 -1.12210114E-03 -1.03501062E-03
 -2.46210587E-04 -2.41266056E-04 -2.72184813E-04 -1.49820560E-04 -1.10257003E-04
 -1.57921504E-04  9.95717585E-01  2.84866534E-02  2.13042395E-05  9.96271235E-05
  5.08978219E-05 -1.50877878E-02 -4.58902393E-04 -4.44299058E-04 -3.83980100E-04
 -1.83719687E-03 -1.84217306E-03 -1.85152529E-03 -1.59713462E-05 -2.38080106E-05
 -1.84773985E-05  1.14183181E-05  1.54664607E-05  4.26342520E-05 -2.93100694E-06
  1.36142367E-05 -5.25244771E-05 -1.92680567E-05  4.45286104E-06  1.90687365E-06
 -2.13552993E-05 -3.85707868E-06 -2.33344324E-05 -2.26792802E-05 -1.32537991E-05
  1.93007140E-05 -1.45508012E-04  8.21044254E-05 -1.32554099E-04  8.28570610E-05
  1.30735886E-04  2.59598636E-03  1.43080324E-04  2.63131947E-03  1.19907607E-04
  2.48245241E-03  1.40142827E-05 -1.16347205E-04  6.49662055E-06  2.98025528E-05
 -1.79187866E-01  3.93757023E-01 -2.37179873E-02  1.16117554E-01 -4.41420146E-02
  3.66414712E-01 -1.42764720E-02  4.78954158E-02 -1.64214418E-02 -1.80791412E-03
  1.43525811E-02  7.07642931E-05 -4.25531921E-03  1.83674775E-03 -7.05054122E-03
 -6.21725504E-02  1.28639139E-01  2.94400298E-02 -3.14890750E-02 -2.28665972E-03
  1.23156792E-01  9.13803623E-03 -2.13598303E-02  3.83465803E-03  6.01053085E-03
  5.12606817E-03 -1.88825429E-03 -6.14442139E-03 -1.68875606E-03 -2.13912563E-03
 -1.95300668E-02  3.58568389E-02  2.11924368E-02  5.07685488E-03 -9.72587078E-03
  8.64173883E-03 -1.69514413E-03  1.14231290E-04 -2.30150831E-03  3.81131894E-03
 -1.09492596E-04  1.22470419E-04  1.46317728E-03 -2.75405861E-03 -1.29005952E-03
 -4.53934584E-03  8.92435066E-03  4.71131129E-03  3.27596903E-03  2.23027520E-03
  1.85051167E-03  1.85485120E-04 -2.71693795E-04  1.96569625E-03  6.55041043E-04
  3.66053505E-04  3.91747290E-04  4.29999814E-04  6.46835799E-04  6.03845660E-04
 -1.22742338E-01  2.39305905E-01 -8.13423774E-03 -1.26359268E-01  6.18662108E-02
  6.28784184E-02  1.56659688E-02  2.03008655E-02 -1.62212591E-02 -1.02102012E-02
  2.14829173E-02 -1.16892038E-02 -9.35168882E-03  4.09902031E-04 -1.76217663E-02
  9.82392733E-03  5.08086082E-03  6.10665989E-03  1.54017813E-03  2.07846533E-03
  1.29259509E-03  2.67964617E-03  3.44491970E-03  1.28311472E-03 -1.11491209E-03
  2.65768103E-02 -1.50520116E-04  3.18851131E-02 -1.32790540E-02  8.53196848E-02
 -1.90820325E-01 -8.57986959E-03 -3.25063073E-02  1.86039579E-02 -1.74008692E-01
 -5.96678848E-03 -8.85341416E-03  6.70644239E-03 -3.18861308E-04 -4.63384102E-03
 -1.17917818E-03 -9.99775567E-04  6.71407748E-04  3.01031005E-03 -1.74340853E-01
  3.60596651E-01  1.40724084E-03 -1.53348587E-02 -1.04381213E-02  3.79225879E-01
 -1.42027468E-03 -1.10236964E-02 -4.66365161E-03  9.04011056E-03  8.66918230E-03
 -2.30445807E-03 -1.93094894E-03 -6.92416376E-03 -1.07707266E-02 -7.62391514E-02
  1.43223894E-01  5.96101762E-02  2.87604740E-02 -3.77668280E-02  7.39439079E-02
 -5.05999542E-03 -4.78496619E-04 -1.48028963E-03  9.48693747E-03  8.01581450E-04
  1.54863447E-03  6.78902746E-03 -8.12349136E-03 -4.28072753E-03 -2.33363624E-02
  4.52398332E-02  1.77287330E-02  1.70412334E-02  1.11114300E-02  2.28232219E-02
 -1.10108166E-03 -1.51955110E-03  1.58798035E-03  1.98482871E-03  2.30665128E-03
  1.72134760E-03  2.11113721E-03  2.08283135E-03  2.07924511E-03 -2.56515244E-02
  5.44032606E-02 -1.12926339E-01  1.45918876E-01 -2.15735173E-02  2.86140867E-03
  9.74407008E-03  1.08948212E-02 -8.62368399E-03  1.89907816E-02 -1.12418471E-02
 -3.85203601E-03 -1.03710971E-02 -4.95759544E-03  9.17123610E-03  3.22740669E-02
  2.52414239E-03  3.29614158E-02  3.38219318E-03  1.17030086E-02  3.07506592E-03
  1.12311033E-02  1.17340504E-03  8.30955787E-03 -2.72421255E-03  1.03804884E-01
  2.39653625E-03  1.43454441E-02 -2.12952107E-03 -2.40760492E-02  5.44640588E-02
  9.40999550E-04 -1.07239968E-02  2.46528926E-03  5.84416409E-02  2.22766073E-03