
    -----------------------------------------------------------------------
          Psi4: An Open-Source Ab Initio Electronic Structure Package
                               Psi4 1.4a2.dev612 

                         Git: Rev {master} 58d3bc0 


    D. G. A. Smith, L. A. Burns, A. C. Simmonett, R. M. Parrish,
    M. C. Schieber, R. Galvelis, P. Kraus, H. Kruse, R. Di Remigio,
    A. Alenaizan, A. M. James, S. Lehtola, J. P. Misiewicz, M. Scheurer,
    R. A. Shaw, J. B. Schriber, Y. Xie, Z. L. Glick, D. A. Sirianni,
    J. S. O'Brien, J. M. Waldrop, A. Kumar, E. G. Hohenstein,
    B. P. Pritchard, B. R. Brooks, H. F. Schaefer III, A. Yu. Sokolov,
    K. Patkowski, A. E. DePrince III, U. Bozkaya, R. A. King,
    F. A. Evangelista, J. M. Turney, T. D. Crawford, C. D. Sherrill,
    J. Chem. Phys. 152(18) 184108 (2020). https://doi.org/10.1063/5.0006002

                            Additional Code Authors
    E. T. Seidl, C. L. Janssen, E. F. Valeev, M. L. Leininger,
    J. F. Gonthier, R. M. Richard, H. R. McAlexander, M. Saitow, X. Wang,
    P. Verma, and M. H. Lechner

             Previous Authors, Complete List of Code Contributors,
                       and Citations for Specific Modules
    https://github.com/psi4/psi4/blob/master/codemeta.json
    https://github.com/psi4/psi4/graphs/contributors
    http://psicode.org/psi4manual/master/introduction.html#citing-psifour

    -----------------------------------------------------------------------


    Psi4 started on: Sunday, 08 November 2020 09:35PM

    Process ID: 68450
    Host:       node142.bme.utexas.edu
    PSIDATADIR: /home/xy3866/.conda/envs/test-rdkit/share/psi4
    Memory:     500.0 MiB
    Threads:    8
    
  ==> Input File <==

--------------------------------------------------------------------------
#psi4
#
memory 32 gb

molecule  {
0 1
  O        3.1501630     0.3869830     0.0122970
  O        1.7226580    -1.3643080    -0.2059640
  C       -2.9163610     0.3476720    -0.5022120
  C       -1.4960630     0.8252950    -0.4074400
  C        0.8458704     0.8458845     0.3169796
  C       -0.5245990     0.2621860     0.3264500
  C       -3.2476580    -0.8824200     0.3361610
  C        1.9107340    -0.1856640     0.0271730
  H       -3.5825680     1.1749950    -0.2170990
  H       -3.1475630     0.1432210    -1.5599470
  H       -1.2553160     1.7190160    -0.9933200
  H        0.9787830     1.7133270    -0.2211670
  H        1.0972480     1.1531100     1.4329360
  H       -0.7130820    -0.6444280     0.9033180
  H       -4.2956480    -1.1625270     0.2123440
  H       -2.6314050    -1.7369230     0.0388270
  H       -3.0739380    -0.6897760     1.4001060
  H        3.7686820    -0.3352680    -0.2293440
units angstrom
no_reorient  #important for SAPT in psi4, default
symmetry c1  #important for SAPT in psi4, default
}

set PROPERTIES_ORIGIN ["COM"]
properties('MP2/aug-cc-pvtz', properties = ['dipole'])
--------------------------------------------------------------------------

  Memory set to  29.802 GiB by Python driver.
    SCF Algorithm Type (re)set to DF.

*** tstart() called on node142.bme.utexas.edu
*** at Sun Nov  8 21:35:58 2020

   => Loading Basis Set <=

    Name: AUG-CC-PVTZ
    Role: ORBITAL
    Keyword: BASIS
    atoms 1-2  entry O          line   331 file /home/xy3866/.conda/envs/test-rdkit/share/psi4/basis/aug-cc-pvtz.gbs 
    atoms 3-8  entry C          line   239 file /home/xy3866/.conda/envs/test-rdkit/share/psi4/basis/aug-cc-pvtz.gbs 
    atoms 9-18 entry H          line    40 file /home/xy3866/.conda/envs/test-rdkit/share/psi4/basis/aug-cc-pvtz.gbs 


         ---------------------------------------------------------
                                   SCF
               by Justin Turney, Rob Parrish, Andy Simmonett
                          and Daniel G. A. Smith
                              RHF Reference
                        8 Threads,  30517 MiB Core
         ---------------------------------------------------------

  ==> Geometry <==

    Molecular point group: c1
    Full point group: C1

    Geometry (in Angstrom), charge = 0, multiplicity = 1:

       Center              X                  Y                   Z               Mass       
    ------------   -----------------  -----------------  -----------------  -----------------
         O            3.151495183624     0.384629988459     0.022463690294    15.994914619570
         O            1.723990183624    -1.366661011541    -0.195797309706    15.994914619570
         C           -2.915028816376     0.345318988459    -0.492045309706    12.000000000000
         C           -1.494730816376     0.822941988459    -0.397273309706    12.000000000000
         C            0.847202583624     0.843531488459     0.327146290294    12.000000000000
         C           -0.523266816376     0.259832988459     0.336616690294    12.000000000000
         C           -3.246325816376    -0.884773011541     0.346327690294    12.000000000000
         C            1.912066183624    -0.188017011541     0.037339690294    12.000000000000
         H           -3.581235816376     1.172641988459    -0.206932309706     1.007825032230
         H           -3.146230816376     0.140867988459    -1.549780309706     1.007825032230
         H           -1.253983816376     1.716662988459    -0.983153309706     1.007825032230
         H            0.980115183624     1.710973988459    -0.211000309706     1.007825032230
         H            1.098580183624     1.150756988459     1.443102690294     1.007825032230
         H           -0.711749816376    -0.646781011541     0.913484690294     1.007825032230
         H           -4.294315816376    -1.164880011541     0.222510690294     1.007825032230
         H           -2.630072816376    -1.739276011541     0.048993690294     1.007825032230
         H           -3.072605816376    -0.692129011541     1.410272690294     1.007825032230
         H            3.770014183624    -0.337621011541    -0.219177309706     1.007825032230

  Running in c1 symmetry.

  Rotational constants: A =      0.18139  B =      0.02755  C =      0.02518 [cm^-1]
  Rotational constants: A =   5437.98897  B =    826.03813  C =    754.91016 [MHz]
  Nuclear repulsion =  355.262108559097044

  Charge       = 0
  Multiplicity = 1
  Electrons    = 62
  Nalpha       = 31
  Nbeta        = 31

  ==> Algorithm <==

  SCF Algorithm Type is DF.
  DIIS enabled.
  MOM disabled.
  Fractional occupation disabled.
  Guess Type is SAD.
  Energy threshold   = 1.00e-10
  Density threshold  = 1.00e-10
  Integral threshold = 0.00e+00

  ==> Primary Basis <==

  Basis Set: AUG-CC-PVTZ
    Blend: AUG-CC-PVTZ
    Number of shells: 202
    Number of basis function: 598
    Number of Cartesian functions: 690
    Spherical Harmonics?: true
    Max angular momentum: 3

   => Loading Basis Set <=

    Name: (AUG-CC-PVTZ AUX)
    Role: JKFIT
    Keyword: DF_BASIS_SCF
    atoms 1-2  entry O          line   286 file /home/xy3866/.conda/envs/test-rdkit/share/psi4/basis/aug-cc-pvtz-jkfit.gbs 
    atoms 3-8  entry C          line   162 file /home/xy3866/.conda/envs/test-rdkit/share/psi4/basis/aug-cc-pvtz-jkfit.gbs 
    atoms 9-18 entry H          line    70 file /home/xy3866/.conda/envs/test-rdkit/share/psi4/basis/aug-cc-pvtz-jkfit.gbs 

  ==> Integral Setup <==

  DFHelper Memory: AOs need 3.273 GiB; user supplied 22.352 GiB. Using in-core AOs.

  ==> MemDFJK: Density-Fitted J/K Matrices <==

    J tasked:                   Yes
    K tasked:                   Yes
    wK tasked:                   No
    OpenMP threads:               8
    Memory [MiB]:             22888
    Algorithm:                 Core
    Schwarz Cutoff:           1E-12
    Mask sparsity (%):       7.9910
    Fitting Condition:        1E-10

   => Auxiliary Basis Set <=

  Basis Set: (AUG-CC-PVTZ AUX)
    Blend: AUG-CC-PVTZ-JKFIT
    Number of shells: 380
    Number of basis function: 1292
    Number of Cartesian functions: 1598
    Spherical Harmonics?: true
    Max angular momentum: 4

  Minimum eigenvalue in the overlap matrix is 2.5373980465E-06.
  Reciprocal condition number of the overlap matrix is 1.3638765616E-07.
    Using symmetric orthogonalization.

  ==> Pre-Iterations <==

  SCF Guess: Superposition of Atomic Densities via on-the-fly atomic UHF (no occupation information).

   -------------------------
    Irrep   Nso     Nmo    
   -------------------------
     A        598     598 
   -------------------------
    Total     598     598
   -------------------------

  ==> Iterations <==

                           Total Energy        Delta E     RMS |[F,P]|

   @DF-RHF iter SAD:  -381.78849445508422   -3.81788e+02   0.00000e+00 
   @DF-RHF iter   1:  -382.56461971292219   -7.76125e-01   1.31055e-03 DIIS
   @DF-RHF iter   2:  -382.81357247302333   -2.48953e-01   7.41984e-04 DIIS
   @DF-RHF iter   3:  -382.88838921125432   -7.48167e-02   1.42622e-04 DIIS
   @DF-RHF iter   4:  -382.89292089318599   -4.53168e-03   6.80202e-05 DIIS
   @DF-RHF iter   5:  -382.89384999975158   -9.29107e-04   1.26206e-05 DIIS
   @DF-RHF iter   6:  -382.89390578185754   -5.57821e-05   5.98143e-06 DIIS
   @DF-RHF iter   7:  -382.89391673514376   -1.09533e-05   2.06490e-06 DIIS
   @DF-RHF iter   8:  -382.89391890651370   -2.17137e-06   8.62307e-07 DIIS
   @DF-RHF iter   9:  -382.89391928438363   -3.77870e-07   2.69767e-07 DIIS
   @DF-RHF iter  10:  -382.89391931989911   -3.55155e-08   8.19636e-08 DIIS
   @DF-RHF iter  11:  -382.89391932242427   -2.52516e-09   2.62620e-08 DIIS
   @DF-RHF iter  12:  -382.89391932263612   -2.11855e-10   8.72169e-09 DIIS
   @DF-RHF iter  13:  -382.89391932265988   -2.37605e-11   1.98187e-09 DIIS
   @DF-RHF iter  14:  -382.89391932266227   -2.38742e-12   7.33151e-10 DIIS
   @DF-RHF iter  15:  -382.89391932266329   -1.02318e-12   1.92673e-10 DIIS
   @DF-RHF iter  16:  -382.89391932266392   -6.25278e-13   6.94897e-11 DIIS
  Energy and wave function converged.


  ==> Post-Iterations <==

    Orbital Energies [Eh]
    ---------------------

    Doubly Occupied:                                                      

       1A    -20.615438     2A    -20.552560     3A    -11.391076  
       4A    -11.256320     5A    -11.234517     6A    -11.232644  
       7A    -11.229480     8A    -11.215006     9A     -1.458435  
      10A     -1.358008    11A     -1.104965    12A     -1.045420  
      13A     -0.959873    14A     -0.870373    15A     -0.805083  
      16A     -0.745551    17A     -0.702997    18A     -0.683497  
      19A     -0.647175    20A     -0.630670    21A     -0.612050  
      22A     -0.601953    23A     -0.576426    24A     -0.543086  
      25A     -0.540529    26A     -0.498204    27A     -0.489851  
      28A     -0.486871    29A     -0.478570    30A     -0.455866  
      31A     -0.351280  

    Virtual:                                                              

      32A      0.028183    33A      0.032123    34A      0.036245  
      35A      0.039407    36A      0.048311    37A      0.053128  
      38A      0.055489    39A      0.066243    40A      0.070504  
      41A      0.075781    42A      0.089823    43A      0.102855  
      44A      0.106580    45A      0.112058    46A      0.115046  
      47A      0.119257    48A      0.124904    49A      0.128876  
      50A      0.130055    51A      0.135675    52A      0.142190  
      53A      0.147632    54A      0.150462    55A      0.153853  
      56A      0.156692    57A      0.163437    58A      0.166732  
      59A      0.172053    60A      0.178033    61A      0.180490  
      62A      0.185244    63A      0.199654    64A      0.205421  
      65A      0.214485    66A      0.221880    67A      0.228021  
      68A      0.233520    69A      0.239428    70A      0.246416  
      71A      0.252986    72A      0.261295    73A      0.265613  
      74A      0.266193    75A      0.276834    76A      0.279519  
      77A      0.289472    78A      0.293404    79A      0.300419  
      80A      0.305362    81A      0.316442    82A      0.321516  
      83A      0.328835    84A      0.332639    85A      0.339925  
      86A      0.344932    87A      0.346825    88A      0.349617  
      89A      0.356896    90A      0.361246    91A      0.368878  
      92A      0.375630    93A      0.376382    94A      0.378451  
      95A      0.383876    96A      0.387975    97A      0.390508  
      98A      0.397714    99A      0.401408   100A      0.407959  
     101A      0.414860   102A      0.420736   103A      0.424215  
     104A      0.435543   105A      0.439523   106A      0.443930  
     107A      0.448820   108A      0.450269   109A      0.457461  
     110A      0.458728   111A      0.465720   112A      0.472867  
     113A      0.480652   114A      0.483536   115A      0.490609  
     116A      0.492498   117A      0.500365   118A      0.503555  
     119A      0.513184   120A      0.516748   121A      0.521745  
     122A      0.526592   123A      0.529845   124A      0.537398  
     125A      0.544338   126A      0.549962   127A      0.554208  
     128A      0.556609   129A      0.564588   130A      0.573472  
     131A      0.578516   132A      0.583880   133A      0.586562  
     134A      0.600927   135A      0.605226   136A      0.613614  
     137A      0.621156   138A      0.633383   139A      0.637534  
     140A      0.645228   141A      0.647863   142A      0.664728  
     143A      0.671544   144A      0.677821   145A      0.686712  
     146A      0.687659   147A      0.706968   148A      0.708824  
     149A      0.726345   150A      0.736362   151A      0.740027  
     152A      0.751446   153A      0.765468   154A      0.771170  
     155A      0.778965   156A      0.788298   157A      0.798051  
     158A      0.808977   159A      0.815163   160A      0.819117  
     161A      0.827727   162A      0.835400   163A      0.837462  
     164A      0.843530   165A      0.854798   166A      0.857586  
     167A      0.871211   168A      0.873439   169A      0.878422  
     170A      0.888305   171A      0.891818   172A      0.896515  
     173A      0.903251   174A      0.903763   175A      0.911936  
     176A      0.913883   177A      0.922327   178A      0.934694  
     179A      0.935848   180A      0.944760   181A      0.953163  
     182A      0.963028   183A      0.970251   184A      0.975441  
     185A      0.981043   186A      0.989077   187A      0.993030  
     188A      0.995174   189A      1.003013   190A      1.013178  
     191A      1.022122   192A      1.026735   193A      1.027324  
     194A      1.037166   195A      1.042693   196A      1.045708  
     197A      1.054985   198A      1.059234   199A      1.063071  
     200A      1.075816   201A      1.079796   202A      1.087230  
     203A      1.091342   204A      1.096703   205A      1.103753  
     206A      1.109538   207A      1.116012   208A      1.126695  
     209A      1.130269   210A      1.141767   211A      1.146284  
     212A      1.155189   213A      1.160078   214A      1.169249  
     215A      1.175176   216A      1.183343   217A      1.188360  
     218A      1.202373   219A      1.209586   220A      1.220128  
     221A      1.222719   222A      1.229497   223A      1.231918  
     224A      1.243127   225A      1.250222   226A      1.256559  
     227A      1.260015   228A      1.264982   229A      1.272598  
     230A      1.279125   231A      1.293405   232A      1.309369  
     233A      1.314470   234A      1.322333   235A      1.324215  
     236A      1.336372   237A      1.357316   238A      1.364677  
     239A      1.377745   240A      1.380019   241A      1.395014  
     242A      1.409014   243A      1.413450   244A      1.423078  
     245A      1.432600   246A      1.433806   247A      1.442029  
     248A      1.458770   249A      1.464593   250A      1.468945  
     251A      1.490544   252A      1.493702   253A      1.500451  
     254A      1.517417   255A      1.524384   256A      1.533765  
     257A      1.543790   258A      1.548608   259A      1.556364  
     260A      1.576972   261A      1.586737   262A      1.599961  
     263A      1.605739   264A      1.612636   265A      1.621538  
     266A      1.626967   267A      1.635908   268A      1.647119  
     269A      1.675868   270A      1.682959   271A      1.686147  
     272A      1.688874   273A      1.694946   274A      1.711050  
     275A      1.718094   276A      1.726321   277A      1.738292  
     278A      1.739683   279A      1.743218   280A      1.753251  
     281A      1.763454   282A      1.768889   283A      1.782858  
     284A      1.787231   285A      1.799296   286A      1.800961  
     287A      1.812733   288A      1.819452   289A      1.822525  
     290A      1.844832   291A      1.857669   292A      1.862902  
     293A      1.868838   294A      1.879207   295A      1.895481  
     296A      1.897316   297A      1.906010   298A      1.916837  
     299A      1.933018   300A      1.942411   301A      1.945625  
     302A      1.950601   303A      1.961622   304A      1.976430  
     305A      1.993646   306A      2.000500   307A      2.012913  
     308A      2.023335   309A      2.026215   310A      2.038508  
     311A      2.055769   312A      2.063205   313A      2.068305  
     314A      2.088912   315A      2.093271   316A      2.111180  
     317A      2.117391   318A      2.149280   319A      2.160449  
     320A      2.185209   321A      2.194527   322A      2.203128  
     323A      2.217852   324A      2.234868   325A      2.241632  
     326A      2.253915   327A      2.260149   328A      2.268745  
     329A      2.282897   330A      2.289451   331A      2.298740  
     332A      2.312696   333A      2.326003   334A      2.338398  
     335A      2.355203   336A      2.376713   337A      2.384482  
     338A      2.394537   339A      2.400964   340A      2.412268  
     341A      2.435859   342A      2.442738   343A      2.451961  
     344A      2.463697   345A      2.482753   346A      2.494125  
     347A      2.507095   348A      2.524221   349A      2.535601  
     350A      2.550630   351A      2.560694   352A      2.579809  
     353A      2.592765   354A      2.623422   355A      2.631144  
     356A      2.632401   357A      2.650276   358A      2.681398  
     359A      2.712700   360A      2.748224   361A      2.765666  
     362A      2.774321   363A      2.828546   364A      2.843667  
     365A      2.850100   366A      2.891579   367A      2.913276  
     368A      2.930230   369A      2.964310   370A      2.990087  
     371A      3.009760   372A      3.038212   373A      3.068522  
     374A      3.100851   375A      3.111743   376A      3.127599  
     377A      3.172419   378A      3.193659   379A      3.243063  
     380A      3.304232   381A      3.318304   382A      3.347226  
     383A      3.362304   384A      3.376521   385A      3.396730  
     386A      3.411357   387A      3.424875   388A      3.426578  
     389A      3.441132   390A      3.468133   391A      3.480879  
     392A      3.490468   393A      3.505294   394A      3.532634  
     395A      3.542398   396A      3.549877   397A      3.594516  
     398A      3.598008   399A      3.606200   400A      3.632411  
     401A      3.633334   402A      3.640033   403A      3.654683  
     404A      3.663141   405A      3.673517   406A      3.693886  
     407A      3.698778   408A      3.722163   409A      3.729047  
     410A      3.740230   411A      3.746945   412A      3.753373  
     413A      3.762604   414A      3.778494   415A      3.789357  
     416A      3.794546   417A      3.812832   418A      3.816824  
     419A      3.825149   420A      3.835735   421A      3.845344  
     422A      3.866646   423A      3.885434   424A      3.898767  
     425A      3.914279   426A      3.926863   427A      3.931987  
     428A      3.958325   429A      3.971275   430A      3.984925  
     431A      3.990814   432A      4.001176   433A      4.019565  
     434A      4.024649   435A      4.043331   436A      4.047372  
     437A      4.059242   438A      4.073364   439A      4.089450  
     440A      4.095908   441A      4.112923   442A      4.117257  
     443A      4.137840   444A      4.163803   445A      4.189953  
     446A      4.193645   447A      4.203852   448A      4.210815  
     449A      4.226778   450A      4.248015   451A      4.253648  
     452A      4.268026   453A      4.272322   454A      4.292410  
     455A      4.308727   456A      4.312764   457A      4.319875  
     458A      4.332353   459A      4.351016   460A      4.365349  
     461A      4.373291   462A      4.386965   463A      4.425167  
     464A      4.433825   465A      4.465796   466A      4.478907  
     467A      4.489725   468A      4.510976   469A      4.520693  
     470A      4.531449   471A      4.542549   472A      4.556511  
     473A      4.565010   474A      4.583228   475A      4.605039  
     476A      4.619584   477A      4.633986   478A      4.656074  
     479A      4.666067   480A      4.682876   481A      4.719503  
     482A      4.734728   483A      4.757662   484A      4.782155  
     485A      4.797975   486A      4.808483   487A      4.812509  
     488A      4.824579   489A      4.852924   490A      4.862924  
     491A      4.877803   492A      4.887780   493A      4.901406  
     494A      4.917355   495A      4.934438   496A      4.948926  
     497A      4.963489   498A      4.973609   499A      4.997914  
     500A      5.022947   501A      5.030500   502A      5.044843  
     503A      5.076256   504A      5.117122   505A      5.129854  
     506A      5.139801   507A      5.162538   508A      5.171762  
     509A      5.181662   510A      5.195284   511A      5.211162  
     512A      5.224880   513A      5.232897   514A      5.247967  
     515A      5.261335   516A      5.294782   517A      5.315487  
     518A      5.340408   519A      5.351502   520A      5.359771  
     521A      5.378216   522A      5.390608   523A      5.405037  
     524A      5.425380   525A      5.465647   526A      5.472939  
     527A      5.483500   528A      5.501665   529A      5.506488  
     530A      5.532869   531A      5.545805   532A      5.571055  
     533A      5.603560   534A      5.638532   535A      5.661472  
     536A      5.671408   537A      5.707958   538A      5.731950  
     539A      5.748825   540A      5.810728   541A      5.837579  
     542A      5.870550   543A      5.906673   544A      5.951924  
     545A      6.016111   546A      6.061148   547A      6.094131  
     548A      6.121585   549A      6.161655   550A      6.178763  
     551A      6.194949   552A      6.220510   553A      6.235679  
     554A      6.316996   555A      6.397479   556A      6.428020  
     557A      6.506345   558A      6.522280   559A      6.622955  
     560A      6.662133   561A      6.693116   562A      6.735827  
     563A      6.741273   564A      6.792039   565A      6.796045  
     566A      6.853318   567A      6.862793   568A      6.886625  
     569A      6.892154   570A      6.900094   571A      6.930229  
     572A      7.024737   573A      7.079626   574A      7.213140  
     575A      7.250905   576A      7.284775   577A      7.357429  
     578A      7.376589   579A      7.392572   580A      7.417641  
     581A      7.560855   582A      7.569268   583A      7.625999  
     584A      7.704050   585A      7.713885   586A      7.870338  
     587A      7.986792   588A      8.052898   589A      8.233271  
     590A      8.520605   591A     15.229641   592A     15.775783  
     593A     17.045947   594A     17.362500   595A     17.707186  
     596A     18.983452   597A     19.374243   598A     19.982852  

    Final Occupation by Irrep:
              A 
    DOCC [    31 ]

  @DF-RHF Final Energy:  -382.89391932266392

   => Energetics <=

    Nuclear Repulsion Energy =            355.2621085590970438
    One-Electron Energy =               -1225.5645042580283643
    Two-Electron Energy =                 487.4084763762674584
    Total Energy =                       -382.8939193226639190

Computation Completed

*** tstop() called on node142.bme.utexas.edu at Sun Nov  8 21:36:20 2020
Module time:
	user time   =     154.22 seconds =       2.57 minutes
	system time =       3.60 seconds =       0.06 minutes
	total time  =         22 seconds =       0.37 minutes
Total time:
	user time   =     154.22 seconds =       2.57 minutes
	system time =       3.60 seconds =       0.06 minutes
	total time  =         22 seconds =       0.37 minutes
   => Loading Basis Set <=

    Name: (AUG-CC-PVTZ AUX)
    Role: RIFIT
    Keyword: DF_BASIS_MP2
    atoms 1-2  entry O          line   264 file /home/xy3866/.conda/envs/test-rdkit/share/psi4/basis/aug-cc-pvtz-ri.gbs 
    atoms 3-8  entry C          line   148 file /home/xy3866/.conda/envs/test-rdkit/share/psi4/basis/aug-cc-pvtz-ri.gbs 
    atoms 9-18 entry H          line    30 file /home/xy3866/.conda/envs/test-rdkit/share/psi4/basis/aug-cc-pvtz-ri.gbs 


*** tstart() called on node142.bme.utexas.edu
*** at Sun Nov  8 21:36:20 2020


  //>>>>>>>>>>>>>>>>>>>>>>>>>>>>>>>>>>>//
  //               DFMP2               //
  //<<<<<<<<<<<<<<<<<<<<<<<<<<<<<<<<<<<//

	 --------------------------------------------------------
	                          DF-MP2                         
	      2nd-Order Density-Fitted Moller-Plesset Theory     
	              RMP2 Wavefunction,   8 Threads             
	                                                         
	        Rob Parrish, Justin Turney, Andy Simmonett,      
	           Ed Hohenstein, and C. David Sherrill          
	 --------------------------------------------------------

   => Auxiliary Basis Set <=

  Basis Set: (AUG-CC-PVTZ AUX)
    Blend: AUG-CC-PVTZ-RI
    Number of shells: 364
    Number of basis function: 1308
    Number of Cartesian functions: 1638
    Spherical Harmonics?: true
    Max angular momentum: 4

	 --------------------------------------------------------
	                 NBF =   598, NAUX =  1308
	 --------------------------------------------------------
	   CLASS    FOCC     OCC    AOCC    AVIR     VIR    FVIR
	   PAIRS       0      31      31     567     567       0
	 --------------------------------------------------------

  DFHelper Memory: AOs need 3.273 GiB; user supplied 22.352 GiB. Using in-core AOs.


         ------------------------------------------------------------
                                     CPHF                           
                                  Rob Parrish                       
         ------------------------------------------------------------

  ==> Geometry <==

    Molecular point group: c1
    Full point group: C1

    Geometry (in Angstrom), charge = 0, multiplicity = 1:

       Center              X                  Y                   Z               Mass       
    ------------   -----------------  -----------------  -----------------  -----------------
         O            3.151495183624     0.384629988459     0.022463690294    15.994914619570
         O            1.723990183624    -1.366661011541    -0.195797309706    15.994914619570
         C           -2.915028816376     0.345318988459    -0.492045309706    12.000000000000
         C           -1.494730816376     0.822941988459    -0.397273309706    12.000000000000
         C            0.847202583624     0.843531488459     0.327146290294    12.000000000000
         C           -0.523266816376     0.259832988459     0.336616690294    12.000000000000
         C           -3.246325816376    -0.884773011541     0.346327690294    12.000000000000
         C            1.912066183624    -0.188017011541     0.037339690294    12.000000000000
         H           -3.581235816376     1.172641988459    -0.206932309706     1.007825032230
         H           -3.146230816376     0.140867988459    -1.549780309706     1.007825032230
         H           -1.253983816376     1.716662988459    -0.983153309706     1.007825032230
         H            0.980115183624     1.710973988459    -0.211000309706     1.007825032230
         H            1.098580183624     1.150756988459     1.443102690294     1.007825032230
         H           -0.711749816376    -0.646781011541     0.913484690294     1.007825032230
         H           -4.294315816376    -1.164880011541     0.222510690294     1.007825032230
         H           -2.630072816376    -1.739276011541     0.048993690294     1.007825032230
         H           -3.072605816376    -0.692129011541     1.410272690294     1.007825032230
         H            3.770014183624    -0.337621011541    -0.219177309706     1.007825032230

  Nuclear repulsion =  355.262108559097044
  Reference energy  = -382.893919322663919

  ==> Basis Set <==

  Basis Set: AUG-CC-PVTZ
    Blend: AUG-CC-PVTZ
    Number of shells: 202
    Number of basis function: 598
    Number of Cartesian functions: 690
    Spherical Harmonics?: true
    Max angular momentum: 3

  ==> CGRSolver (by Rob Parrish) <==

   Number of roots    =         1
   Preconditioning    =    JACOBI
   Convergence cutoff =     1E-06
   Maximum iterations =       100

  ==> CPHFRHamiltonian (by Rob Parrish) <== 

  ==> MemDFJK: Density-Fitted J/K Matrices <==

    J tasked:                   Yes
    K tasked:                   Yes
    wK tasked:                   No
    OpenMP threads:               8
    Memory [MiB]:             22888
    Algorithm:                 Core
    Schwarz Cutoff:           1E-12
    Mask sparsity (%):       7.9910
    Fitting Condition:        1E-10

   => Auxiliary Basis Set <=

  Basis Set: (AUG-CC-PVTZ AUX)
    Blend: AUG-CC-PVTZ-JKFIT
    Number of shells: 380
    Number of basis function: 1292
    Number of Cartesian functions: 1598
    Spherical Harmonics?: true
    Max angular momentum: 4

  ==> CPHF Iterations <==

  => Iterations <=

             Iter  Converged  Remaining    Residual
  CGR           1          0          1   1.078E-01
  CGR           2          0          1   3.096E-02
  CGR           3          0          1   1.099E-02
  CGR           4          0          1   3.361E-03
  CGR           5          0          1   1.327E-03
  CGR           6          0          1   3.515E-04
  CGR           7          0          1   1.240E-04
  CGR           8          0          1   4.975E-05
  CGR           9          0          1   2.215E-05
  CGR          10          0          1   8.787E-06
  CGR          11          0          1   3.088E-06
  CGR          12          1          0   9.451E-07

    CGRSolver converged.

	-----------------------------------------------------------
	 ==================> DF-MP2 Energies <==================== 
	-----------------------------------------------------------
	 Reference Energy          =    -382.8939193226639190 [Eh]
	 Singles Energy            =      -0.0000000000000000 [Eh]
	 Same-Spin Energy          =      -0.3833666015207833 [Eh]
	 Opposite-Spin Energy      =      -1.2548000097860101 [Eh]
	 Correlation Energy        =      -1.6381666113067934 [Eh]
	 Total Energy              =    -384.5320859339707340 [Eh]
	-----------------------------------------------------------
	 ================> DF-SCS-MP2 Energies <================== 
	-----------------------------------------------------------
	 SCS Same-Spin Scale       =       0.3333333333333333 [-]
	 SCS Opposite-Spin Scale   =       1.2000000000000000 [-]
	 SCS Same-Spin Energy      =      -0.1277888671735944 [Eh]
	 SCS Opposite-Spin Energy  =      -1.5057600117432122 [Eh]
	 SCS Correlation Energy    =      -1.6335488789168067 [Eh]
	 SCS Total Energy          =    -384.5274682015807457 [Eh]
	-----------------------------------------------------------



Properties will be evaluated at  -0.000000,   0.000000,   0.000000 [a0]

Properties computed using the MP2 density matrix

  Nuclear Dipole Moment: [e a0]
     X:   -12.0151      Y:     1.2245      Z:     0.8132

  Electronic Dipole Moment: [e a0]
     X:    11.9399      Y:    -0.6743      Z:    -0.7551

  Dipole Moment: [e a0]
     X:    -0.0752      Y:     0.5502      Z:     0.0581     Total:     0.5584

  Dipole Moment: [D]
     X:    -0.1912      Y:     1.3986      Z:     0.1476     Total:     1.4193


*** tstop() called on node142.bme.utexas.edu at Sun Nov  8 21:37:45 2020
Module time:
	user time   =     579.94 seconds =       9.67 minutes
	system time =      11.45 seconds =       0.19 minutes
	total time  =         85 seconds =       1.42 minutes
Total time:
	user time   =     734.83 seconds =      12.25 minutes
	system time =      15.09 seconds =       0.25 minutes
	total time  =        107 seconds =       1.78 minutes

    Psi4 stopped on: Sunday, 08 November 2020 09:37PM
    Psi4 wall time for execution: 0:01:46.76

*** Psi4 exiting successfully. Buy a developer a beer!
