
    -----------------------------------------------------------------------
          Psi4: An Open-Source Ab Initio Electronic Structure Package
                               Psi4 1.4a3.dev225 

                         Git: Rev {master} 7105e37 


    D. G. A. Smith, L. A. Burns, A. C. Simmonett, R. M. Parrish,
    M. C. Schieber, R. Galvelis, P. Kraus, H. Kruse, R. Di Remigio,
    A. Alenaizan, A. M. James, S. Lehtola, J. P. Misiewicz, M. Scheurer,
    R. A. Shaw, J. B. Schriber, Y. Xie, Z. L. Glick, D. A. Sirianni,
    J. S. O'Brien, J. M. Waldrop, A. Kumar, E. G. Hohenstein,
    B. P. Pritchard, B. R. Brooks, H. F. Schaefer III, A. Yu. Sokolov,
    K. Patkowski, A. E. DePrince III, U. Bozkaya, R. A. King,
    F. A. Evangelista, J. M. Turney, T. D. Crawford, C. D. Sherrill,
    J. Chem. Phys. 152(18) 184108 (2020). https://doi.org/10.1063/5.0006002

                            Additional Code Authors
    E. T. Seidl, C. L. Janssen, E. F. Valeev, M. L. Leininger,
    J. F. Gonthier, R. M. Richard, H. R. McAlexander, M. Saitow, X. Wang,
    P. Verma, and M. H. Lechner

             Previous Authors, Complete List of Code Contributors,
                       and Citations for Specific Modules
    https://github.com/psi4/psi4/blob/master/codemeta.json
    https://github.com/psi4/psi4/graphs/contributors
    http://psicode.org/psi4manual/master/introduction.html#citing-psifour

    -----------------------------------------------------------------------


    Psi4 started on: Sunday, 28 February 2021 05:52PM

    Process ID: 181730
    Host:       c405-024.stampede2.tacc.utexas.edu
    PSIDATADIR: /home1/07844/xy3866/miniconda3/envs/p4env/share/psi4
    Memory:     500.0 MiB
    Threads:    32
    
  ==> Input File <==

--------------------------------------------------------------------------
#psi4
#
memory 32 gb

molecule  {
0 1
  O       -2.1909590     0.3022110    -0.2104850
  N        0.0851610     0.4390910     0.0952720
  N       -0.9981990    -1.6345430     0.1344100
  C        1.3080130    -0.1567610     0.6181790
  C        2.3023860    -0.5362440    -0.4764420
  C       -0.0444921     1.8787078    -0.0534784
  C       -1.1027220    -0.2453970    -0.0205620
  H        1.7650550     0.5724880     1.2977430
  H        1.0430010    -1.0258810     1.2255100
  H        1.8814000    -1.2911440    -1.1469770
  H        2.5641180     0.3366430    -1.0800470
  H        3.2219480    -0.9400230    -0.0411410
  H        0.9206510     2.2208510    -0.6190080
  H        0.0756270     2.3767260     0.9415890
  H       -0.8611500     2.1650270    -0.5546380
  H       -0.1986710    -2.0759730    -0.3046340
  H       -1.8731440    -2.0716480    -0.1344710
units angstrom
no_reorient  #important for SAPT in psi4, default
symmetry c1  #important for SAPT in psi4, default
}

set PROPERTIES_ORIGIN ["COM"]
properties('MP2/aug-cc-pvtz', properties = ['dipole'])
--------------------------------------------------------------------------

  Memory set to  29.802 GiB by Python driver.
    SCF Algorithm Type (re)set to DF.

*** tstart() called on c405-024.stampede2.tacc.utexas.edu
*** at Sun Feb 28 17:52:07 2021

   => Loading Basis Set <=

    Name: AUG-CC-PVTZ
    Role: ORBITAL
    Keyword: BASIS
    atoms 1    entry O          line   331 file /home1/07844/xy3866/miniconda3/envs/p4env/share/psi4/basis/aug-cc-pvtz.gbs 
    atoms 2-3  entry N          line   285 file /home1/07844/xy3866/miniconda3/envs/p4env/share/psi4/basis/aug-cc-pvtz.gbs 
    atoms 4-7  entry C          line   239 file /home1/07844/xy3866/miniconda3/envs/p4env/share/psi4/basis/aug-cc-pvtz.gbs 
    atoms 8-17 entry H          line    40 file /home1/07844/xy3866/miniconda3/envs/p4env/share/psi4/basis/aug-cc-pvtz.gbs 


         ---------------------------------------------------------
                                   SCF
               by Justin Turney, Rob Parrish, Andy Simmonett
                          and Daniel G. A. Smith
                              RHF Reference
                       32 Threads,  30517 MiB Core
         ---------------------------------------------------------

  ==> Geometry <==

    Molecular point group: c1
    Full point group: C1

    Geometry (in Angstrom), charge = 0, multiplicity = 1:

       Center              X                  Y                   Z               Mass       
    ------------   -----------------  -----------------  -----------------  -----------------
         O           -2.096271153027     0.305672409294    -0.212861523120    15.994914619570
         N            0.179848846973     0.442552409294     0.092895476880    14.003074004430
         N           -0.903511153027    -1.631081590706     0.132033476880    14.003074004430
         C            1.402700846973    -0.153299590706     0.615802476880    12.000000000000
         C            2.397073846973    -0.532782590706    -0.478818523120    12.000000000000
         C            0.050195746973     1.882169209294    -0.055854923120    12.000000000000
         C           -1.008034153027    -0.241935590706    -0.022938523120    12.000000000000
         H            1.859742846973     0.575949409294     1.295366476880     1.007825032230
         H            1.137688846973    -1.022419590706     1.223133476880     1.007825032230
         H            1.976087846973    -1.287682590706    -1.149353523120     1.007825032230
         H            2.658805846973     0.340104409294    -1.082423523120     1.007825032230
         H            3.316635846973    -0.936561590706    -0.043517523120     1.007825032230
         H            1.015338846973     2.224312409294    -0.621384523120     1.007825032230
         H            0.170314846973     2.380187409294     0.939212476880     1.007825032230
         H           -0.766462153027     2.168488409294    -0.557014523120     1.007825032230
         H           -0.103983153027    -2.072511590706    -0.307010523120     1.007825032230
         H           -1.778456153027    -2.068186590706    -0.136847523120     1.007825032230

  Running in c1 symmetry.

  Rotational constants: A =      0.12740  B =      0.07185  C =      0.05027 [cm^-1]
  Rotational constants: A =   3819.35882  B =   2153.89856  C =   1507.19786 [MHz]
  Nuclear repulsion =  326.523794612622623

  Charge       = 0
  Multiplicity = 1
  Electrons    = 56
  Nalpha       = 28
  Nbeta        = 28

  ==> Algorithm <==

  SCF Algorithm Type is DF.
  DIIS enabled.
  MOM disabled.
  Fractional occupation disabled.
  Guess Type is SAD.
  Energy threshold   = 1.00e-10
  Density threshold  = 1.00e-10
  Integral threshold = 1.00e-12

  ==> Primary Basis <==

  Basis Set: AUG-CC-PVTZ
    Blend: AUG-CC-PVTZ
    Number of shells: 188
    Number of basis functions: 552
    Number of Cartesian functions: 635
    Spherical Harmonics?: true
    Max angular momentum: 3

   => Loading Basis Set <=

    Name: (AUG-CC-PVTZ AUX)
    Role: JKFIT
    Keyword: DF_BASIS_SCF
    atoms 1    entry O          line   286 file /home1/07844/xy3866/miniconda3/envs/p4env/share/psi4/basis/aug-cc-pvtz-jkfit.gbs 
    atoms 2-3  entry N          line   224 file /home1/07844/xy3866/miniconda3/envs/p4env/share/psi4/basis/aug-cc-pvtz-jkfit.gbs 
    atoms 4-7  entry C          line   162 file /home1/07844/xy3866/miniconda3/envs/p4env/share/psi4/basis/aug-cc-pvtz-jkfit.gbs 
    atoms 8-17 entry H          line    70 file /home1/07844/xy3866/miniconda3/envs/p4env/share/psi4/basis/aug-cc-pvtz-jkfit.gbs 

  ==> Integral Setup <==

  DFHelper Memory: AOs need 2.710 GiB; user supplied 22.352 GiB. Using in-core AOs.

  ==> MemDFJK: Density-Fitted J/K Matrices <==

    J tasked:                   Yes
    K tasked:                   Yes
    wK tasked:                   No
    OpenMP threads:              32
    Memory [MiB]:             22888
    Algorithm:                 Core
    Schwarz Cutoff:           1E-12
    Mask sparsity (%):       4.8611
    Fitting Condition:        1E-10

   => Auxiliary Basis Set <=

  Basis Set: (AUG-CC-PVTZ AUX)
    Blend: AUG-CC-PVTZ-JKFIT
    Number of shells: 350
    Number of basis functions: 1188
    Number of Cartesian functions: 1467
    Spherical Harmonics?: true
    Max angular momentum: 4

  Minimum eigenvalue in the overlap matrix is 4.9624734399E-06.
  Reciprocal condition number of the overlap matrix is 2.5038241634E-07.
    Using symmetric orthogonalization.

  ==> Pre-Iterations <==

  SCF Guess: Superposition of Atomic Densities via on-the-fly atomic UHF (no occupation information).

   -------------------------
    Irrep   Nso     Nmo    
   -------------------------
     A        552     552 
   -------------------------
    Total     552     552
   -------------------------

  ==> Iterations <==

                           Total Energy        Delta E     RMS |[F,P]|

   @DF-RHF iter SAD:  -340.47759527595468   -3.40478e+02   0.00000e+00 
   @DF-RHF iter   1:  -340.91453712555403   -4.36942e-01   1.32463e-03 DIIS
   @DF-RHF iter   2:  -341.13242178410349   -2.17885e-01   7.10229e-04 DIIS
   @DF-RHF iter   3:  -341.18815732812885   -5.57355e-02   1.40776e-04 DIIS
   @DF-RHF iter   4:  -341.19176247803460   -3.60515e-03   6.26115e-05 DIIS
   @DF-RHF iter   5:  -341.19242477918129   -6.62301e-04   1.23902e-05 DIIS
   @DF-RHF iter   6:  -341.19246896473089   -4.41855e-05   5.39889e-06 DIIS
   @DF-RHF iter   7:  -341.19247656198002   -7.59725e-06   1.65375e-06 DIIS
   @DF-RHF iter   8:  -341.19247778527790   -1.22330e-06   6.62249e-07 DIIS
   @DF-RHF iter   9:  -341.19247796440277   -1.79125e-07   2.51304e-07 DIIS
   @DF-RHF iter  10:  -341.19247799016597   -2.57632e-08   8.53835e-08 DIIS
   @DF-RHF iter  11:  -341.19247799294590   -2.77993e-09   2.07575e-08 DIIS
   @DF-RHF iter  12:  -341.19247799309568   -1.49782e-10   5.79662e-09 DIIS
   @DF-RHF iter  13:  -341.19247799310517   -9.49285e-12   1.38723e-09 DIIS
   @DF-RHF iter  14:  -341.19247799310546   -2.84217e-13   4.79581e-10 DIIS
   @DF-RHF iter  15:  -341.19247799310659   -1.13687e-12   1.08337e-10 DIIS
   @DF-RHF iter  16:  -341.19247799310631    2.84217e-13   3.41939e-11 DIIS
  Energy and wave function converged.


  ==> Post-Iterations <==

    Orbital Energies [Eh]
    ---------------------

    Doubly Occupied:                                                      

       1A    -20.505872     2A    -15.582844     3A    -15.576942  
       4A    -11.371136     5A    -11.277160     6A    -11.255486  
       7A    -11.233606     8A     -1.380600     9A     -1.249609  
      10A     -1.190043    11A     -1.036575    12A     -0.943254  
      13A     -0.877045    14A     -0.763315    15A     -0.731140  
      16A     -0.683756    17A     -0.640801    18A     -0.635650  
      19A     -0.608252    20A     -0.588956    21A     -0.559660  
      22A     -0.545346    23A     -0.540765    24A     -0.529753  
      25A     -0.507244    26A     -0.441658    27A     -0.417701  
      28A     -0.370320  

    Virtual:                                                              

      29A      0.023729    30A      0.032493    31A      0.036367  
      32A      0.039714    33A      0.053471    34A      0.055710  
      35A      0.059977    36A      0.062784    37A      0.065996  
      38A      0.080786    39A      0.098469    40A      0.103725  
      41A      0.111299    42A      0.116260    43A      0.117546  
      44A      0.124565    45A      0.126897    46A      0.129719  
      47A      0.139634    48A      0.140808    49A      0.150031  
      50A      0.155930    51A      0.158490    52A      0.163672  
      53A      0.170699    54A      0.186242    55A      0.191425  
      56A      0.202764    57A      0.203274    58A      0.208082  
      59A      0.220552    60A      0.225249    61A      0.233473  
      62A      0.238964    63A      0.246820    64A      0.249348  
      65A      0.260022    66A      0.267835    67A      0.274705  
      68A      0.282762    69A      0.287320    70A      0.295122  
      71A      0.300131    72A      0.307971    73A      0.317231  
      74A      0.320379    75A      0.330854    76A      0.334635  
      77A      0.339763    78A      0.345416    79A      0.357335  
      80A      0.362340    81A      0.363849    82A      0.367774  
      83A      0.370169    84A      0.382392    85A      0.385370  
      86A      0.390367    87A      0.395901    88A      0.400813  
      89A      0.403355    90A      0.408062    91A      0.410333  
      92A      0.414495    93A      0.422760    94A      0.429258  
      95A      0.431974    96A      0.436820    97A      0.439219  
      98A      0.445045    99A      0.451993   100A      0.457814  
     101A      0.464152   102A      0.473135   103A      0.475373  
     104A      0.484699   105A      0.493098   106A      0.501920  
     107A      0.502585   108A      0.512971   109A      0.516442  
     110A      0.528772   111A      0.533697   112A      0.539951  
     113A      0.542929   114A      0.550351   115A      0.551343  
     116A      0.562979   117A      0.566671   118A      0.580362  
     119A      0.587338   120A      0.594660   121A      0.596093  
     122A      0.607336   123A      0.612619   124A      0.616115  
     125A      0.620022   126A      0.631439   127A      0.640693  
     128A      0.650124   129A      0.652727   130A      0.659414  
     131A      0.673196   132A      0.676151   133A      0.684607  
     134A      0.697012   135A      0.710577   136A      0.713510  
     137A      0.732964   138A      0.746674   139A      0.761551  
     140A      0.766378   141A      0.772856   142A      0.775422  
     143A      0.786175   144A      0.804837   145A      0.810701  
     146A      0.820584   147A      0.829308   148A      0.836950  
     149A      0.847173   150A      0.854946   151A      0.863819  
     152A      0.873464   153A      0.875428   154A      0.880234  
     155A      0.887378   156A      0.891381   157A      0.898710  
     158A      0.903581   159A      0.909704   160A      0.915385  
     161A      0.923402   162A      0.930547   163A      0.936148  
     164A      0.941950   165A      0.957485   166A      0.965458  
     167A      0.967391   168A      0.977461   169A      0.984669  
     170A      0.988994   171A      0.996782   172A      1.008229  
     173A      1.012083   174A      1.017470   175A      1.025145  
     176A      1.032832   177A      1.043774   178A      1.045672  
     179A      1.056246   180A      1.062727   181A      1.080131  
     182A      1.090879   183A      1.092771   184A      1.099275  
     185A      1.104079   186A      1.114480   187A      1.124572  
     188A      1.134779   189A      1.137967   190A      1.146996  
     191A      1.152802   192A      1.164214   193A      1.167227  
     194A      1.173346   195A      1.185130   196A      1.187090  
     197A      1.193286   198A      1.213265   199A      1.215083  
     200A      1.222876   201A      1.231643   202A      1.244552  
     203A      1.257841   204A      1.271999   205A      1.274743  
     206A      1.284651   207A      1.287013   208A      1.290522  
     209A      1.314941   210A      1.323235   211A      1.323805  
     212A      1.330178   213A      1.336813   214A      1.347297  
     215A      1.358273   216A      1.381222   217A      1.385024  
     218A      1.394987   219A      1.401175   220A      1.413141  
     221A      1.417747   222A      1.425919   223A      1.430422  
     224A      1.448237   225A      1.456082   226A      1.472967  
     227A      1.474603   228A      1.486557   229A      1.496103  
     230A      1.503525   231A      1.506914   232A      1.520100  
     233A      1.531120   234A      1.546750   235A      1.551814  
     236A      1.569938   237A      1.580096   238A      1.585826  
     239A      1.594749   240A      1.605420   241A      1.611762  
     242A      1.630253   243A      1.644091   244A      1.653807  
     245A      1.658779   246A      1.665454   247A      1.673123  
     248A      1.679664   249A      1.695629   250A      1.698442  
     251A      1.701756   252A      1.717929   253A      1.727603  
     254A      1.734559   255A      1.743761   256A      1.748225  
     257A      1.756033   258A      1.764359   259A      1.775779  
     260A      1.782616   261A      1.797010   262A      1.802204  
     263A      1.814921   264A      1.818496   265A      1.829412  
     266A      1.853164   267A      1.866048   268A      1.873403  
     269A      1.875468   270A      1.901936   271A      1.904878  
     272A      1.920766   273A      1.927203   274A      1.939939  
     275A      1.960468   276A      1.978553   277A      1.985829  
     278A      2.002560   279A      2.007376   280A      2.020825  
     281A      2.050508   282A      2.066027   283A      2.085281  
     284A      2.096249   285A      2.101493   286A      2.105502  
     287A      2.116311   288A      2.135002   289A      2.146045  
     290A      2.158693   291A      2.180131   292A      2.195922  
     293A      2.201321   294A      2.219810   295A      2.230719  
     296A      2.236147   297A      2.247370   298A      2.264156  
     299A      2.272114   300A      2.278656   301A      2.298325  
     302A      2.304315   303A      2.317477   304A      2.339668  
     305A      2.349283   306A      2.356126   307A      2.383622  
     308A      2.391424   309A      2.397765   310A      2.417731  
     311A      2.429947   312A      2.441498   313A      2.454004  
     314A      2.476043   315A      2.507001   316A      2.516875  
     317A      2.542232   318A      2.553945   319A      2.574647  
     320A      2.577626   321A      2.589932   322A      2.599228  
     323A      2.603136   324A      2.638964   325A      2.643540  
     326A      2.676034   327A      2.699458   328A      2.710440  
     329A      2.718264   330A      2.741371   331A      2.750498  
     332A      2.775792   333A      2.779773   334A      2.808009  
     335A      2.841025   336A      2.880595   337A      2.901451  
     338A      2.930843   339A      2.959862   340A      3.001724  
     341A      3.018840   342A      3.060147   343A      3.087007  
     344A      3.106526   345A      3.175457   346A      3.213054  
     347A      3.242289   348A      3.270813   349A      3.328189  
     350A      3.363084   351A      3.365965   352A      3.426575  
     353A      3.447284   354A      3.469389   355A      3.482632  
     356A      3.490151   357A      3.503612   358A      3.532018  
     359A      3.572253   360A      3.605430   361A      3.616563  
     362A      3.624304   363A      3.662636   364A      3.666103  
     365A      3.681811   366A      3.687973   367A      3.708042  
     368A      3.720515   369A      3.738323   370A      3.758284  
     371A      3.765785   372A      3.773380   373A      3.787007  
     374A      3.795815   375A      3.806985   376A      3.826892  
     377A      3.850346   378A      3.857071   379A      3.885365  
     380A      3.893502   381A      3.905890   382A      3.918537  
     383A      3.943535   384A      3.950822   385A      3.963490  
     386A      3.980504   387A      3.987409   388A      3.995191  
     389A      4.008152   390A      4.021890   391A      4.030155  
     392A      4.038958   393A      4.065365   394A      4.079125  
     395A      4.094929   396A      4.107181   397A      4.113935  
     398A      4.128679   399A      4.148492   400A      4.163975  
     401A      4.173021   402A      4.185624   403A      4.191877  
     404A      4.213840   405A      4.223169   406A      4.241223  
     407A      4.266889   408A      4.286606   409A      4.293473  
     410A      4.313680   411A      4.316850   412A      4.327748  
     413A      4.344106   414A      4.356061   415A      4.378491  
     416A      4.409353   417A      4.421425   418A      4.427718  
     419A      4.452984   420A      4.460889   421A      4.478110  
     422A      4.514141   423A      4.523629   424A      4.534603  
     425A      4.558983   426A      4.574286   427A      4.598365  
     428A      4.609585   429A      4.617766   430A      4.632720  
     431A      4.645555   432A      4.673429   433A      4.697298  
     434A      4.714698   435A      4.719096   436A      4.756185  
     437A      4.763976   438A      4.788450   439A      4.793788  
     440A      4.826751   441A      4.841170   442A      4.857559  
     443A      4.858622   444A      4.882689   445A      4.889016  
     446A      4.905075   447A      4.927722   448A      4.939556  
     449A      4.946341   450A      4.968225   451A      4.992565  
     452A      5.019073   453A      5.036238   454A      5.046984  
     455A      5.060794   456A      5.070433   457A      5.082183  
     458A      5.124656   459A      5.161533   460A      5.167287  
     461A      5.193934   462A      5.205246   463A      5.222491  
     464A      5.234633   465A      5.260135   466A      5.279659  
     467A      5.296661   468A      5.313401   469A      5.314208  
     470A      5.334012   471A      5.358213   472A      5.372694  
     473A      5.375594   474A      5.421851   475A      5.451676  
     476A      5.464514   477A      5.467069   478A      5.479524  
     479A      5.490005   480A      5.515587   481A      5.550850  
     482A      5.579965   483A      5.592825   484A      5.623656  
     485A      5.662469   486A      5.681499   487A      5.700346  
     488A      5.717592   489A      5.748381   490A      5.756033  
     491A      5.781778   492A      5.827475   493A      5.843062  
     494A      5.872083   495A      5.913547   496A      5.932015  
     497A      5.963408   498A      5.972304   499A      6.023587  
     500A      6.044309   501A      6.069005   502A      6.086129  
     503A      6.116862   504A      6.127529   505A      6.149011  
     506A      6.186016   507A      6.229888   508A      6.235760  
     509A      6.250957   510A      6.274806   511A      6.283857  
     512A      6.286942   513A      6.351467   514A      6.406689  
     515A      6.420244   516A      6.451866   517A      6.539173  
     518A      6.565572   519A      6.634932   520A      6.678488  
     521A      6.748351   522A      6.784542   523A      6.791670  
     524A      6.807386   525A      6.809889   526A      6.861997  
     527A      6.869843   528A      6.881509   529A      6.915702  
     530A      6.975942   531A      6.992487   532A      7.023800  
     533A      7.050656   534A      7.100302   535A      7.240245  
     536A      7.287253   537A      7.346920   538A      7.450733  
     539A      7.488200   540A      7.743831   541A      7.752576  
     542A      7.826519   543A      7.848691   544A      7.969934  
     545A      8.082335   546A     15.925931   547A     16.522696  
     548A     17.467991   549A     17.982355   550A     18.685459  
     551A     19.421392   552A     20.649045  

    Final Occupation by Irrep:
              A 
    DOCC [    28 ]

  @DF-RHF Final Energy:  -341.19247799310631

   => Energetics <=

    Nuclear Repulsion Energy =            326.5237946126226234
    One-Electron Energy =               -1111.3435725923397968
    Two-Electron Energy =                 443.6272999866108648
    Total Energy =                       -341.1924779931063085

Computation Completed

*** tstop() called on c405-024.stampede2.tacc.utexas.edu at Sun Feb 28 17:52:30 2021
Module time:
	user time   =     389.08 seconds =       6.48 minutes
	system time =      27.51 seconds =       0.46 minutes
	total time  =         23 seconds =       0.38 minutes
Total time:
	user time   =     389.08 seconds =       6.48 minutes
	system time =      27.51 seconds =       0.46 minutes
	total time  =         23 seconds =       0.38 minutes
   => Loading Basis Set <=

    Name: (AUG-CC-PVTZ AUX)
    Role: RIFIT
    Keyword: DF_BASIS_MP2
    atoms 1    entry O          line   264 file /home1/07844/xy3866/miniconda3/envs/p4env/share/psi4/basis/aug-cc-pvtz-ri.gbs 
    atoms 2-3  entry N          line   206 file /home1/07844/xy3866/miniconda3/envs/p4env/share/psi4/basis/aug-cc-pvtz-ri.gbs 
    atoms 4-7  entry C          line   148 file /home1/07844/xy3866/miniconda3/envs/p4env/share/psi4/basis/aug-cc-pvtz-ri.gbs 
    atoms 8-17 entry H          line    30 file /home1/07844/xy3866/miniconda3/envs/p4env/share/psi4/basis/aug-cc-pvtz-ri.gbs 


*** tstart() called on c405-024.stampede2.tacc.utexas.edu
*** at Sun Feb 28 17:52:31 2021


  //>>>>>>>>>>>>>>>>>>>>>>>>>>>>>>>>>>>//
  //               DFMP2               //
  //<<<<<<<<<<<<<<<<<<<<<<<<<<<<<<<<<<<//

	 --------------------------------------------------------
	                          DF-MP2                         
	      2nd-Order Density-Fitted Moller-Plesset Theory     
	              RMP2 Wavefunction,  32 Threads             
	                                                         
	        Rob Parrish, Justin Turney, Andy Simmonett,      
	           Ed Hohenstein, and C. David Sherrill          
	 --------------------------------------------------------

   => Auxiliary Basis Set <=

  Basis Set: (AUG-CC-PVTZ AUX)
    Blend: AUG-CC-PVTZ-RI
    Number of shells: 336
    Number of basis functions: 1202
    Number of Cartesian functions: 1502
    Spherical Harmonics?: true
    Max angular momentum: 4

	 --------------------------------------------------------
	                 NBF =   552, NAUX =  1202
	 --------------------------------------------------------
	   CLASS    FOCC     OCC    AOCC    AVIR     VIR    FVIR
	   PAIRS       0      28      28     524     524       0
	 --------------------------------------------------------

  DFHelper Memory: AOs need 2.765 GiB; user supplied 22.352 GiB. Using in-core AOs.


         ------------------------------------------------------------
                                     CPHF                           
                                  Rob Parrish                       
         ------------------------------------------------------------

  ==> Geometry <==

    Molecular point group: c1
    Full point group: C1

    Geometry (in Angstrom), charge = 0, multiplicity = 1:

       Center              X                  Y                   Z               Mass       
    ------------   -----------------  -----------------  -----------------  -----------------
         O           -2.096271153027     0.305672409294    -0.212861523120    15.994914619570
         N            0.179848846973     0.442552409294     0.092895476880    14.003074004430
         N           -0.903511153027    -1.631081590706     0.132033476880    14.003074004430
         C            1.402700846973    -0.153299590706     0.615802476880    12.000000000000
         C            2.397073846973    -0.532782590706    -0.478818523120    12.000000000000
         C            0.050195746973     1.882169209294    -0.055854923120    12.000000000000
         C           -1.008034153027    -0.241935590706    -0.022938523120    12.000000000000
         H            1.859742846973     0.575949409294     1.295366476880     1.007825032230
         H            1.137688846973    -1.022419590706     1.223133476880     1.007825032230
         H            1.976087846973    -1.287682590706    -1.149353523120     1.007825032230
         H            2.658805846973     0.340104409294    -1.082423523120     1.007825032230
         H            3.316635846973    -0.936561590706    -0.043517523120     1.007825032230
         H            1.015338846973     2.224312409294    -0.621384523120     1.007825032230
         H            0.170314846973     2.380187409294     0.939212476880     1.007825032230
         H           -0.766462153027     2.168488409294    -0.557014523120     1.007825032230
         H           -0.103983153027    -2.072511590706    -0.307010523120     1.007825032230
         H           -1.778456153027    -2.068186590706    -0.136847523120     1.007825032230

  Nuclear repulsion =  326.523794612622623
  Reference energy  = -341.192477993106309

  ==> Basis Set <==

  Basis Set: AUG-CC-PVTZ
    Blend: AUG-CC-PVTZ
    Number of shells: 188
    Number of basis functions: 552
    Number of Cartesian functions: 635
    Spherical Harmonics?: true
    Max angular momentum: 3

  ==> CGRSolver (by Rob Parrish) <==

   Number of roots    =         1
   Preconditioning    =    JACOBI
   Convergence cutoff =     1E-06
   Maximum iterations =       100

  ==> CPHFRHamiltonian (by Rob Parrish) <== 

  ==> MemDFJK: Density-Fitted J/K Matrices <==

    J tasked:                   Yes
    K tasked:                   Yes
    wK tasked:                   No
    OpenMP threads:              32
    Memory [MiB]:             22888
    Algorithm:                 Core
    Schwarz Cutoff:           1E-12
    Mask sparsity (%):       2.8191
    Fitting Condition:        1E-10

   => Auxiliary Basis Set <=

  Basis Set: (AUG-CC-PVTZ AUX)
    Blend: AUG-CC-PVTZ-JKFIT
    Number of shells: 350
    Number of basis functions: 1188
    Number of Cartesian functions: 1467
    Spherical Harmonics?: true
    Max angular momentum: 4

  ==> CPHF Iterations <==

  => Iterations <=

             Iter  Converged  Remaining    Residual
  CGR           1          0          1   1.161E-01
  CGR           2          0          1   3.419E-02
  CGR           3          0          1   1.258E-02
  CGR           4          0          1   2.963E-03
  CGR           5          0          1   1.137E-03
  CGR           6          0          1   4.541E-04
  CGR           7          0          1   1.491E-04
  CGR           8          0          1   6.010E-05
  CGR           9          0          1   1.796E-05
  CGR          10          0          1   5.964E-06
  CGR          11          0          1   1.986E-06
  CGR          12          1          0   5.212E-07

    CGRSolver converged.

	-----------------------------------------------------------
	 ==================> DF-MP2 Energies <==================== 
	-----------------------------------------------------------
	 Reference Energy          =    -341.1924779931063085 [Eh]
	 Singles Energy            =      -0.0000000000000000 [Eh]
	 Same-Spin Energy          =      -0.3488996571764268 [Eh]
	 Opposite-Spin Energy      =      -1.1398887544402436 [Eh]
	 Correlation Energy        =      -1.4887884116166705 [Eh]
	 Total Energy              =    -342.6812664047229759 [Eh]
	-----------------------------------------------------------
	 ================> DF-SCS-MP2 Energies <================== 
	-----------------------------------------------------------
	 SCS Same-Spin Scale       =       0.3333333333333333 [-]
	 SCS Opposite-Spin Scale   =       1.2000000000000000 [-]
	 SCS Same-Spin Energy      =      -0.1162998857254756 [Eh]
	 SCS Opposite-Spin Energy  =      -1.3678665053282923 [Eh]
	 SCS Correlation Energy    =      -1.4841663910537679 [Eh]
	 SCS Total Energy          =    -342.6766443841600562 [Eh]
	-----------------------------------------------------------



Properties will be evaluated at  -0.000000,   0.000000,   0.000000 [a0]

Properties computed using the MP2 density matrix

  Nuclear Dipole Moment: [e a0]
     X:     8.8846      Y:     0.2877      Z:    -0.4140

  Electronic Dipole Moment: [e a0]
     X:    -7.3871      Y:    -0.7649      Z:     0.3524

  Dipole Moment: [e a0]
     X:     1.4975      Y:    -0.4772      Z:    -0.0616     Total:     1.5729

  Dipole Moment: [D]
     X:     3.8062      Y:    -1.2128      Z:    -0.1567     Total:     3.9978


*** tstop() called on c405-024.stampede2.tacc.utexas.edu at Sun Feb 28 17:54:33 2021
Module time:
	user time   =    1020.57 seconds =      17.01 minutes
	system time =      36.09 seconds =       0.60 minutes
	total time  =        122 seconds =       2.03 minutes
Total time:
	user time   =    1410.48 seconds =      23.51 minutes
	system time =      63.62 seconds =       1.06 minutes
	total time  =        146 seconds =       2.43 minutes

    Psi4 stopped on: Sunday, 28 February 2021 05:54PM
    Psi4 wall time for execution: 0:02:27.42

*** Psi4 exiting successfully. Buy a developer a beer!
