
    -----------------------------------------------------------------------
          Psi4: An Open-Source Ab Initio Electronic Structure Package
                               Psi4 1.4a3.dev225 

                         Git: Rev {master} 7105e37 


    D. G. A. Smith, L. A. Burns, A. C. Simmonett, R. M. Parrish,
    M. C. Schieber, R. Galvelis, P. Kraus, H. Kruse, R. Di Remigio,
    A. Alenaizan, A. M. James, S. Lehtola, J. P. Misiewicz, M. Scheurer,
    R. A. Shaw, J. B. Schriber, Y. Xie, Z. L. Glick, D. A. Sirianni,
    J. S. O'Brien, J. M. Waldrop, A. Kumar, E. G. Hohenstein,
    B. P. Pritchard, B. R. Brooks, H. F. Schaefer III, A. Yu. Sokolov,
    K. Patkowski, A. E. DePrince III, U. Bozkaya, R. A. King,
    F. A. Evangelista, J. M. Turney, T. D. Crawford, C. D. Sherrill,
    J. Chem. Phys. 152(18) 184108 (2020). https://doi.org/10.1063/5.0006002

                            Additional Code Authors
    E. T. Seidl, C. L. Janssen, E. F. Valeev, M. L. Leininger,
    J. F. Gonthier, R. M. Richard, H. R. McAlexander, M. Saitow, X. Wang,
    P. Verma, and M. H. Lechner

             Previous Authors, Complete List of Code Contributors,
                       and Citations for Specific Modules
    https://github.com/psi4/psi4/blob/master/codemeta.json
    https://github.com/psi4/psi4/graphs/contributors
    http://psicode.org/psi4manual/master/introduction.html#citing-psifour

    -----------------------------------------------------------------------


    Psi4 started on: Wednesday, 31 March 2021 06:26PM

    Process ID: 157561
    Host:       c475-003.stampede2.tacc.utexas.edu
    PSIDATADIR: /home1/07844/xy3866/miniconda3/envs/p4env/share/psi4
    Memory:     500.0 MiB
    Threads:    8
    
  ==> Input File <==

--------------------------------------------------------------------------
#psi4
#
memory 32 gb

molecule  {
0 1
  O       -2.1909590     0.3022110    -0.2104850
  N        0.0851610     0.4390910     0.0952720
  N       -0.9981990    -1.6345430     0.1344100
  C        1.3080130    -0.1567610     0.6181790
  C        2.3023860    -0.5362440    -0.4764420
  C        0.0556740     1.8856370    -0.0391460
  C       -1.1042134    -0.2255756    -0.0227733
  H        1.7650550     0.5724880     1.2977430
  H        1.0430010    -1.0258810     1.2255100
  H        1.8814000    -1.2911440    -1.1469770
  H        2.5641180     0.3366430    -1.0800470
  H        3.2219480    -0.9400230    -0.0411410
  H        0.9206510     2.2208510    -0.6190080
  H        0.0756270     2.3767260     0.9415890
  H       -0.8611500     2.1650270    -0.5546380
  H       -0.1986710    -2.0759730    -0.3046340
  H       -1.8731440    -2.0716480    -0.1344710
units angstrom
no_reorient  #important for SAPT in psi4, default
symmetry c1  #important for SAPT in psi4, default
}

set PROPERTIES_ORIGIN ["COM"]
properties('MP2/aug-cc-pvtz', properties = ['dipole'])
--------------------------------------------------------------------------

  Memory set to  29.802 GiB by Python driver.
    SCF Algorithm Type (re)set to DF.

*** tstart() called on c475-003.stampede2.tacc.utexas.edu
*** at Wed Mar 31 18:26:14 2021

   => Loading Basis Set <=

    Name: AUG-CC-PVTZ
    Role: ORBITAL
    Keyword: BASIS
    atoms 1    entry O          line   331 file /home1/07844/xy3866/miniconda3/envs/p4env/share/psi4/basis/aug-cc-pvtz.gbs 
    atoms 2-3  entry N          line   285 file /home1/07844/xy3866/miniconda3/envs/p4env/share/psi4/basis/aug-cc-pvtz.gbs 
    atoms 4-7  entry C          line   239 file /home1/07844/xy3866/miniconda3/envs/p4env/share/psi4/basis/aug-cc-pvtz.gbs 
    atoms 8-17 entry H          line    40 file /home1/07844/xy3866/miniconda3/envs/p4env/share/psi4/basis/aug-cc-pvtz.gbs 


         ---------------------------------------------------------
                                   SCF
               by Justin Turney, Rob Parrish, Andy Simmonett
                          and Daniel G. A. Smith
                              RHF Reference
                        8 Threads,  30517 MiB Core
         ---------------------------------------------------------

  ==> Geometry <==

    Molecular point group: c1
    Full point group: C1

    Geometry (in Angstrom), charge = 0, multiplicity = 1:

       Center              X                  Y                   Z               Mass       
    ------------   -----------------  -----------------  -----------------  -----------------
         O           -2.107870921538     0.302527725119    -0.214286426911    15.994914619570
         N            0.168249078462     0.439407725119     0.091470573089    14.003074004430
         N           -0.915110921538    -1.634226274881     0.130608573089    14.003074004430
         C            1.391101078462    -0.156444274881     0.614377573089    12.000000000000
         C            2.385474078462    -0.535927274881    -0.480243426911    12.000000000000
         C            0.138762078462     1.885953725119    -0.042947426911    12.000000000000
         C           -1.021125321538    -0.225258874881    -0.026574726911    12.000000000000
         H            1.848143078462     0.572804725119     1.293941573089     1.007825032230
         H            1.126089078462    -1.025564274881     1.221708573089     1.007825032230
         H            1.964488078462    -1.290827274881    -1.150778426911     1.007825032230
         H            2.647206078462     0.336959725119    -1.083848426911     1.007825032230
         H            3.305036078462    -0.939706274881    -0.044942426911     1.007825032230
         H            1.003739078462     2.221167725119    -0.622809426911     1.007825032230
         H            0.158715078462     2.377042725119     0.937787573089     1.007825032230
         H           -0.778061921538     2.165343725119    -0.558439426911     1.007825032230
         H           -0.115582921538    -2.075656274881    -0.308435426911     1.007825032230
         H           -1.790055921538    -2.071331274881    -0.138272426911     1.007825032230

  Running in c1 symmetry.

  Rotational constants: A =      0.12717  B =      0.07178  C =      0.05021 [cm^-1]
  Rotational constants: A =   3812.51258  B =   2152.01656  C =   1505.14598 [MHz]
  Nuclear repulsion =  326.399716143143394

  Charge       = 0
  Multiplicity = 1
  Electrons    = 56
  Nalpha       = 28
  Nbeta        = 28

  ==> Algorithm <==

  SCF Algorithm Type is DF.
  DIIS enabled.
  MOM disabled.
  Fractional occupation disabled.
  Guess Type is SAD.
  Energy threshold   = 1.00e-10
  Density threshold  = 1.00e-10
  Integral threshold = 1.00e-12

  ==> Primary Basis <==

  Basis Set: AUG-CC-PVTZ
    Blend: AUG-CC-PVTZ
    Number of shells: 188
    Number of basis functions: 552
    Number of Cartesian functions: 635
    Spherical Harmonics?: true
    Max angular momentum: 3

   => Loading Basis Set <=

    Name: (AUG-CC-PVTZ AUX)
    Role: JKFIT
    Keyword: DF_BASIS_SCF
    atoms 1    entry O          line   286 file /home1/07844/xy3866/miniconda3/envs/p4env/share/psi4/basis/aug-cc-pvtz-jkfit.gbs 
    atoms 2-3  entry N          line   224 file /home1/07844/xy3866/miniconda3/envs/p4env/share/psi4/basis/aug-cc-pvtz-jkfit.gbs 
    atoms 4-7  entry C          line   162 file /home1/07844/xy3866/miniconda3/envs/p4env/share/psi4/basis/aug-cc-pvtz-jkfit.gbs 
    atoms 8-17 entry H          line    70 file /home1/07844/xy3866/miniconda3/envs/p4env/share/psi4/basis/aug-cc-pvtz-jkfit.gbs 

  ==> Integral Setup <==

  DFHelper Memory: AOs need 2.655 GiB; user supplied 22.352 GiB. Using in-core AOs.

  ==> MemDFJK: Density-Fitted J/K Matrices <==

    J tasked:                   Yes
    K tasked:                   Yes
    wK tasked:                   No
    OpenMP threads:               8
    Memory [MiB]:             22888
    Algorithm:                 Core
    Schwarz Cutoff:           1E-12
    Mask sparsity (%):       4.8775
    Fitting Condition:        1E-10

   => Auxiliary Basis Set <=

  Basis Set: (AUG-CC-PVTZ AUX)
    Blend: AUG-CC-PVTZ-JKFIT
    Number of shells: 350
    Number of basis functions: 1188
    Number of Cartesian functions: 1467
    Spherical Harmonics?: true
    Max angular momentum: 4

  Minimum eigenvalue in the overlap matrix is 4.8912751563E-06.
  Reciprocal condition number of the overlap matrix is 2.4658683823E-07.
    Using symmetric orthogonalization.

  ==> Pre-Iterations <==

  SCF Guess: Superposition of Atomic Densities via on-the-fly atomic UHF (no occupation information).

   -------------------------
    Irrep   Nso     Nmo    
   -------------------------
     A        552     552 
   -------------------------
    Total     552     552
   -------------------------

  ==> Iterations <==

                           Total Energy        Delta E     RMS |[F,P]|

   @DF-RHF iter SAD:  -340.49023495778988   -3.40490e+02   0.00000e+00 
   @DF-RHF iter   1:  -340.93132069424183   -4.41086e-01   1.32058e-03 DIIS
   @DF-RHF iter   2:  -341.14599862600113   -2.14678e-01   7.04306e-04 DIIS
   @DF-RHF iter   3:  -341.20080799113629   -5.48094e-02   1.36151e-04 DIIS
   @DF-RHF iter   4:  -341.20428171794197   -3.47373e-03   6.06470e-05 DIIS
   @DF-RHF iter   5:  -341.20489572287670   -6.14005e-04   1.25213e-05 DIIS
   @DF-RHF iter   6:  -341.20494087307316   -4.51502e-05   5.40503e-06 DIIS
   @DF-RHF iter   7:  -341.20494892144745   -8.04837e-06   1.70507e-06 DIIS
   @DF-RHF iter   8:  -341.20495026574162   -1.34429e-06   6.63742e-07 DIIS
   @DF-RHF iter   9:  -341.20495044825731   -1.82516e-07   2.48368e-07 DIIS
   @DF-RHF iter  10:  -341.20495047180157   -2.35443e-08   8.17403e-08 DIIS
   @DF-RHF iter  11:  -341.20495047420127   -2.39970e-09   2.02405e-08 DIIS
   @DF-RHF iter  12:  -341.20495047434366   -1.42393e-10   5.63246e-09 DIIS
   @DF-RHF iter  13:  -341.20495047435338   -9.72022e-12   1.35920e-09 DIIS
   @DF-RHF iter  14:  -341.20495047435310    2.84217e-13   4.57551e-10 DIIS
   @DF-RHF iter  15:  -341.20495047435423   -1.13687e-12   1.16221e-10 DIIS
   @DF-RHF iter  16:  -341.20495047435423    0.00000e+00   3.72240e-11 DIIS
  Energy and wave function converged.


  ==> Post-Iterations <==

    Orbital Energies [Eh]
    ---------------------

    Doubly Occupied:                                                      

       1A    -20.507701     2A    -15.582976     3A    -15.573687  
       4A    -11.371861     5A    -11.275207     6A    -11.253605  
       7A    -11.233336     8A     -1.384918     9A     -1.252893  
      10A     -1.182653    11A     -1.035073    12A     -0.945366  
      13A     -0.877938    14A     -0.758523    15A     -0.725089  
      16A     -0.684122    17A     -0.641361    18A     -0.631849  
      19A     -0.607515    20A     -0.588275    21A     -0.560424  
      22A     -0.557201    23A     -0.537620    24A     -0.527331  
      25A     -0.506227    26A     -0.443118    27A     -0.416286  
      28A     -0.375284  

    Virtual:                                                              

      29A      0.023981    30A      0.032657    31A      0.036117  
      32A      0.039663    33A      0.053491    34A      0.055674  
      35A      0.059709    36A      0.062540    37A      0.066519  
      38A      0.080859    39A      0.098480    40A      0.103859  
      41A      0.111259    42A      0.116621    43A      0.117696  
      44A      0.124130    45A      0.127137    46A      0.129605  
      47A      0.139537    48A      0.140997    49A      0.150493  
      50A      0.156545    51A      0.157514    52A      0.163438  
      53A      0.170920    54A      0.187117    55A      0.190127  
      56A      0.202912    57A      0.203873    58A      0.210764  
      59A      0.220850    60A      0.225304    61A      0.235191  
      62A      0.239447    63A      0.247230    64A      0.249484  
      65A      0.261224    66A      0.268238    67A      0.275130  
      68A      0.283186    69A      0.289312    70A      0.294021  
      71A      0.298469    72A      0.308580    73A      0.316859  
      74A      0.320093    75A      0.331921    76A      0.335861  
      77A      0.339289    78A      0.345818    79A      0.357501  
      80A      0.362237    81A      0.364415    82A      0.367627  
      83A      0.371045    84A      0.382066    85A      0.384581  
      86A      0.390427    87A      0.395514    88A      0.399577  
      89A      0.405201    90A      0.409432    91A      0.411562  
      92A      0.414687    93A      0.423561    94A      0.429705  
      95A      0.432308    96A      0.438665    97A      0.439183  
      98A      0.444857    99A      0.452864   100A      0.460240  
     101A      0.462530   102A      0.473248   103A      0.476357  
     104A      0.485094   105A      0.494692   106A      0.499244  
     107A      0.502972   108A      0.512494   109A      0.514762  
     110A      0.529492   111A      0.532439   112A      0.539488  
     113A      0.542056   114A      0.548032   115A      0.554554  
     116A      0.561216   117A      0.569470   118A      0.580788  
     119A      0.587189   120A      0.588605   121A      0.597372  
     122A      0.606738   123A      0.614222   124A      0.616607  
     125A      0.622211   126A      0.632252   127A      0.640110  
     128A      0.652901   129A      0.653618   130A      0.659486  
     131A      0.671293   132A      0.675187   133A      0.683944  
     134A      0.695148   135A      0.711873   136A      0.716499  
     137A      0.733837   138A      0.745393   139A      0.760207  
     140A      0.766921   141A      0.774181   142A      0.777559  
     143A      0.782517   144A      0.806032   145A      0.812347  
     146A      0.822104   147A      0.827932   148A      0.836170  
     149A      0.844980   150A      0.854971   151A      0.867242  
     152A      0.876318   153A      0.878705   154A      0.880728  
     155A      0.882390   156A      0.890407   157A      0.904084  
     158A      0.905943   159A      0.909688   160A      0.918198  
     161A      0.924813   162A      0.929979   163A      0.935266  
     164A      0.943095   165A      0.953622   166A      0.963860  
     167A      0.967026   168A      0.980197   169A      0.983386  
     170A      0.986540   171A      0.998159   172A      1.008121  
     173A      1.013927   174A      1.021212   175A      1.030749  
     176A      1.034971   177A      1.044400   178A      1.048238  
     179A      1.056460   180A      1.062713   181A      1.079380  
     182A      1.090950   183A      1.093406   184A      1.098398  
     185A      1.107110   186A      1.109268   187A      1.121350  
     188A      1.132925   189A      1.135828   190A      1.149194  
     191A      1.155247   192A      1.166296   193A      1.168549  
     194A      1.178281   195A      1.186925   196A      1.189093  
     197A      1.195783   198A      1.210665   199A      1.215082  
     200A      1.219133   201A      1.231909   202A      1.246387  
     203A      1.254788   204A      1.270990   205A      1.275402  
     206A      1.285045   207A      1.288019   208A      1.292122  
     209A      1.317095   210A      1.322382   211A      1.324111  
     212A      1.331281   213A      1.338260   214A      1.350333  
     215A      1.359654   216A      1.382265   217A      1.383976  
     218A      1.396249   219A      1.403663   220A      1.412509  
     221A      1.421103   222A      1.425382   223A      1.435089  
     224A      1.448466   225A      1.452930   226A      1.470216  
     227A      1.474868   228A      1.486396   229A      1.493062  
     230A      1.502968   231A      1.504823   232A      1.523535  
     233A      1.534423   234A      1.547428   235A      1.554862  
     236A      1.570892   237A      1.576016   238A      1.583681  
     239A      1.593231   240A      1.607263   241A      1.613099  
     242A      1.631748   243A      1.646754   244A      1.648761  
     245A      1.657818   246A      1.663850   247A      1.669513  
     248A      1.680302   249A      1.692189   250A      1.697786  
     251A      1.703394   252A      1.717481   253A      1.725248  
     254A      1.738959   255A      1.746159   256A      1.750072  
     257A      1.761895   258A      1.765136   259A      1.776896  
     260A      1.781920   261A      1.800354   262A      1.801020  
     263A      1.812112   264A      1.819347   265A      1.832569  
     266A      1.854472   267A      1.856536   268A      1.878703  
     269A      1.888797   270A      1.903147   271A      1.906956  
     272A      1.919502   273A      1.933740   274A      1.941686  
     275A      1.961748   276A      1.976126   277A      1.983975  
     278A      1.992508   279A      2.015287   280A      2.025121  
     281A      2.047688   282A      2.058505   283A      2.079220  
     284A      2.094264   285A      2.102857   286A      2.118160  
     287A      2.124526   288A      2.137996   289A      2.146273  
     290A      2.158764   291A      2.184820   292A      2.202389  
     293A      2.206877   294A      2.229382   295A      2.232612  
     296A      2.242445   297A      2.253408   298A      2.254187  
     299A      2.274333   300A      2.280627   301A      2.288684  
     302A      2.307142   303A      2.310931   304A      2.333515  
     305A      2.349758   306A      2.360113   307A      2.373684  
     308A      2.395998   309A      2.401142   310A      2.420689  
     311A      2.431396   312A      2.444221   313A      2.447680  
     314A      2.471634   315A      2.509512   316A      2.516157  
     317A      2.530727   318A      2.546474   319A      2.573718  
     320A      2.578307   321A      2.583530   322A      2.599910  
     323A      2.607981   324A      2.631612   325A      2.659962  
     326A      2.671531   327A      2.696266   328A      2.712592  
     329A      2.720882   330A      2.733820   331A      2.749655  
     332A      2.778080   333A      2.784053   334A      2.811918  
     335A      2.834885   336A      2.889665   337A      2.906595  
     338A      2.916709   339A      2.963422   340A      3.004744  
     341A      3.022128   342A      3.066122   343A      3.090476  
     344A      3.100056   345A      3.156357   346A      3.230531  
     347A      3.249844   348A      3.264036   349A      3.321963  
     350A      3.349833   351A      3.360764   352A      3.417696  
     353A      3.458110   354A      3.469745   355A      3.482588  
     356A      3.491612   357A      3.511565   358A      3.531834  
     359A      3.580973   360A      3.588392   361A      3.610042  
     362A      3.625728   363A      3.665815   364A      3.671412  
     365A      3.675945   366A      3.688162   367A      3.712790  
     368A      3.716746   369A      3.743398   370A      3.750455  
     371A      3.770227   372A      3.776348   373A      3.784054  
     374A      3.797705   375A      3.807924   376A      3.822024  
     377A      3.854386   378A      3.858035   379A      3.884064  
     380A      3.894732   381A      3.912967   382A      3.922006  
     383A      3.938484   384A      3.956697   385A      3.960738  
     386A      3.981693   387A      3.991825   388A      3.995370  
     389A      4.010780   390A      4.027373   391A      4.030234  
     392A      4.043773   393A      4.067827   394A      4.076090  
     395A      4.104177   396A      4.113298   397A      4.121900  
     398A      4.128070   399A      4.155090   400A      4.163838  
     401A      4.174037   402A      4.191883   403A      4.211092  
     404A      4.213368   405A      4.241061   406A      4.247433  
     407A      4.271895   408A      4.283230   409A      4.302505  
     410A      4.312432   411A      4.319542   412A      4.322052  
     413A      4.352614   414A      4.370128   415A      4.385988  
     416A      4.401938   417A      4.420046   418A      4.428870  
     419A      4.448763   420A      4.459446   421A      4.480575  
     422A      4.513330   423A      4.527163   424A      4.536258  
     425A      4.564881   426A      4.582538   427A      4.599123  
     428A      4.612067   429A      4.625304   430A      4.630113  
     431A      4.645358   432A      4.669884   433A      4.693275  
     434A      4.712824   435A      4.719995   436A      4.750253  
     437A      4.772920   438A      4.797999   439A      4.802999  
     440A      4.830569   441A      4.851819   442A      4.854807  
     443A      4.867670   444A      4.873019   445A      4.887573  
     446A      4.908354   447A      4.929264   448A      4.939861  
     449A      4.957019   450A      4.985704   451A      4.995917  
     452A      5.025763   453A      5.042336   454A      5.052781  
     455A      5.057965   456A      5.074590   457A      5.084558  
     458A      5.130486   459A      5.152479   460A      5.185827  
     461A      5.199268   462A      5.214551   463A      5.231472  
     464A      5.247054   465A      5.263340   466A      5.276858  
     467A      5.294416   468A      5.312297   469A      5.315074  
     470A      5.340301   471A      5.348317   472A      5.378779  
     473A      5.382921   474A      5.411314   475A      5.426921  
     476A      5.452187   477A      5.464870   478A      5.483860  
     479A      5.510766   480A      5.540237   481A      5.548865  
     482A      5.581793   483A      5.609977   484A      5.618485  
     485A      5.659678   486A      5.668663   487A      5.693774  
     488A      5.705615   489A      5.735096   490A      5.753590  
     491A      5.775782   492A      5.835683   493A      5.856706  
     494A      5.861110   495A      5.887348   496A      5.924798  
     497A      5.948153   498A      5.969809   499A      6.026925  
     500A      6.050478   501A      6.056979   502A      6.101341  
     503A      6.113830   504A      6.125842   505A      6.144757  
     506A      6.178852   507A      6.193212   508A      6.233103  
     509A      6.237869   510A      6.256964   511A      6.284182  
     512A      6.286767   513A      6.297510   514A      6.370674  
     515A      6.416652   516A      6.460570   517A      6.491822  
     518A      6.565986   519A      6.607820   520A      6.655393  
     521A      6.755439   522A      6.785887   523A      6.793519  
     524A      6.805860   525A      6.811669   526A      6.860966  
     527A      6.865342   528A      6.876815   529A      6.913777  
     530A      6.971515   531A      6.999792   532A      7.023091  
     533A      7.049180   534A      7.105355   535A      7.246026  
     536A      7.289735   537A      7.358655   538A      7.454417  
     539A      7.489731   540A      7.743803   541A      7.749805  
     542A      7.836446   543A      7.858535   544A      7.973017  
     545A      8.080558   546A     16.097504   547A     16.670606  
     548A     17.503471   549A     17.931950   550A     18.552199  
     551A     19.379407   552A     20.695087  

    Final Occupation by Irrep:
              A 
    DOCC [    28 ]

  @DF-RHF Final Energy:  -341.20495047435423

   => Energetics <=

    Nuclear Repulsion Energy =            326.3997161431433938
    One-Electron Energy =               -1111.1344580724860407
    Two-Electron Energy =                 443.5297914549883558
    Total Energy =                       -341.2049504743542343

Computation Completed

*** tstop() called on c475-003.stampede2.tacc.utexas.edu at Wed Mar 31 18:26:53 2021
Module time:
	user time   =     219.74 seconds =       3.66 minutes
	system time =       6.89 seconds =       0.11 minutes
	total time  =         39 seconds =       0.65 minutes
Total time:
	user time   =     219.74 seconds =       3.66 minutes
	system time =       6.89 seconds =       0.11 minutes
	total time  =         39 seconds =       0.65 minutes
   => Loading Basis Set <=

    Name: (AUG-CC-PVTZ AUX)
    Role: RIFIT
    Keyword: DF_BASIS_MP2
    atoms 1    entry O          line   264 file /home1/07844/xy3866/miniconda3/envs/p4env/share/psi4/basis/aug-cc-pvtz-ri.gbs 
    atoms 2-3  entry N          line   206 file /home1/07844/xy3866/miniconda3/envs/p4env/share/psi4/basis/aug-cc-pvtz-ri.gbs 
    atoms 4-7  entry C          line   148 file /home1/07844/xy3866/miniconda3/envs/p4env/share/psi4/basis/aug-cc-pvtz-ri.gbs 
    atoms 8-17 entry H          line    30 file /home1/07844/xy3866/miniconda3/envs/p4env/share/psi4/basis/aug-cc-pvtz-ri.gbs 


*** tstart() called on c475-003.stampede2.tacc.utexas.edu
*** at Wed Mar 31 18:26:54 2021


  //>>>>>>>>>>>>>>>>>>>>>>>>>>>>>>>>>>>//
  //               DFMP2               //
  //<<<<<<<<<<<<<<<<<<<<<<<<<<<<<<<<<<<//

	 --------------------------------------------------------
	                          DF-MP2                         
	      2nd-Order Density-Fitted Moller-Plesset Theory     
	              RMP2 Wavefunction,   8 Threads             
	                                                         
	        Rob Parrish, Justin Turney, Andy Simmonett,      
	           Ed Hohenstein, and C. David Sherrill          
	 --------------------------------------------------------

   => Auxiliary Basis Set <=

  Basis Set: (AUG-CC-PVTZ AUX)
    Blend: AUG-CC-PVTZ-RI
    Number of shells: 336
    Number of basis functions: 1202
    Number of Cartesian functions: 1502
    Spherical Harmonics?: true
    Max angular momentum: 4

	 --------------------------------------------------------
	                 NBF =   552, NAUX =  1202
	 --------------------------------------------------------
	   CLASS    FOCC     OCC    AOCC    AVIR     VIR    FVIR
	   PAIRS       0      28      28     524     524       0
	 --------------------------------------------------------

  DFHelper Memory: AOs need 2.711 GiB; user supplied 22.352 GiB. Using in-core AOs.


         ------------------------------------------------------------
                                     CPHF                           
                                  Rob Parrish                       
         ------------------------------------------------------------

  ==> Geometry <==

    Molecular point group: c1
    Full point group: C1

    Geometry (in Angstrom), charge = 0, multiplicity = 1:

       Center              X                  Y                   Z               Mass       
    ------------   -----------------  -----------------  -----------------  -----------------
         O           -2.107870921538     0.302527725119    -0.214286426911    15.994914619570
         N            0.168249078462     0.439407725119     0.091470573089    14.003074004430
         N           -0.915110921538    -1.634226274881     0.130608573089    14.003074004430
         C            1.391101078462    -0.156444274881     0.614377573089    12.000000000000
         C            2.385474078462    -0.535927274881    -0.480243426911    12.000000000000
         C            0.138762078462     1.885953725119    -0.042947426911    12.000000000000
         C           -1.021125321538    -0.225258874881    -0.026574726911    12.000000000000
         H            1.848143078462     0.572804725119     1.293941573089     1.007825032230
         H            1.126089078462    -1.025564274881     1.221708573089     1.007825032230
         H            1.964488078462    -1.290827274881    -1.150778426911     1.007825032230
         H            2.647206078462     0.336959725119    -1.083848426911     1.007825032230
         H            3.305036078462    -0.939706274881    -0.044942426911     1.007825032230
         H            1.003739078462     2.221167725119    -0.622809426911     1.007825032230
         H            0.158715078462     2.377042725119     0.937787573089     1.007825032230
         H           -0.778061921538     2.165343725119    -0.558439426911     1.007825032230
         H           -0.115582921538    -2.075656274881    -0.308435426911     1.007825032230
         H           -1.790055921538    -2.071331274881    -0.138272426911     1.007825032230

  Nuclear repulsion =  326.399716143143394
  Reference energy  = -341.204950474354234

  ==> Basis Set <==

  Basis Set: AUG-CC-PVTZ
    Blend: AUG-CC-PVTZ
    Number of shells: 188
    Number of basis functions: 552
    Number of Cartesian functions: 635
    Spherical Harmonics?: true
    Max angular momentum: 3

  ==> CGRSolver (by Rob Parrish) <==

   Number of roots    =         1
   Preconditioning    =    JACOBI
   Convergence cutoff =     1E-06
   Maximum iterations =       100

  ==> CPHFRHamiltonian (by Rob Parrish) <== 

  ==> MemDFJK: Density-Fitted J/K Matrices <==

    J tasked:                   Yes
    K tasked:                   Yes
    wK tasked:                   No
    OpenMP threads:               8
    Memory [MiB]:             22888
    Algorithm:                 Core
    Schwarz Cutoff:           1E-12
    Mask sparsity (%):       2.8132
    Fitting Condition:        1E-10

   => Auxiliary Basis Set <=

  Basis Set: (AUG-CC-PVTZ AUX)
    Blend: AUG-CC-PVTZ-JKFIT
    Number of shells: 350
    Number of basis functions: 1188
    Number of Cartesian functions: 1467
    Spherical Harmonics?: true
    Max angular momentum: 4

  ==> CPHF Iterations <==

  => Iterations <=

             Iter  Converged  Remaining    Residual
  CGR           1          0          1   1.147E-01
  CGR           2          0          1   3.357E-02
  CGR           3          0          1   1.232E-02
  CGR           4          0          1   2.897E-03
  CGR           5          0          1   1.115E-03
  CGR           6          0          1   4.631E-04
  CGR           7          0          1   1.492E-04
  CGR           8          0          1   5.872E-05
  CGR           9          0          1   1.692E-05
  CGR          10          0          1   5.382E-06
  CGR          11          0          1   1.844E-06
  CGR          12          1          0   5.123E-07

    CGRSolver converged.

	-----------------------------------------------------------
	 ==================> DF-MP2 Energies <==================== 
	-----------------------------------------------------------
	 Reference Energy          =    -341.2049504743542343 [Eh]
	 Singles Energy            =      -0.0000000000000000 [Eh]
	 Same-Spin Energy          =      -0.3487100176806908 [Eh]
	 Opposite-Spin Energy      =      -1.1393943208850648 [Eh]
	 Correlation Energy        =      -1.4881043385657555 [Eh]
	 Total Energy              =    -342.6930548129199678 [Eh]
	-----------------------------------------------------------
	 ================> DF-SCS-MP2 Energies <================== 
	-----------------------------------------------------------
	 SCS Same-Spin Scale       =       0.3333333333333333 [-]
	 SCS Opposite-Spin Scale   =       1.2000000000000000 [-]
	 SCS Same-Spin Energy      =      -0.1162366725602303 [Eh]
	 SCS Opposite-Spin Energy  =      -1.3672731850620776 [Eh]
	 SCS Correlation Energy    =      -1.4835098576223078 [Eh]
	 SCS Total Energy          =    -342.6884603319765574 [Eh]
	-----------------------------------------------------------



Properties will be evaluated at   0.000000,  -0.000000,   0.000000 [a0]

Properties computed using the MP2 density matrix

  Nuclear Dipole Moment: [e a0]
     X:     8.7759      Y:     0.2583      Z:    -0.4274

  Electronic Dipole Moment: [e a0]
     X:    -7.2735      Y:    -0.6541      Z:     0.3534

  Dipole Moment: [e a0]
     X:     1.5024      Y:    -0.3959      Z:    -0.0740     Total:     1.5554

  Dipole Moment: [D]
     X:     3.8186      Y:    -1.0062      Z:    -0.1881     Total:     3.9535


*** tstop() called on c475-003.stampede2.tacc.utexas.edu at Wed Mar 31 18:29:01 2021
Module time:
	user time   =     773.49 seconds =      12.89 minutes
	system time =      13.36 seconds =       0.22 minutes
	total time  =        127 seconds =       2.12 minutes
Total time:
	user time   =     994.06 seconds =      16.57 minutes
	system time =      20.26 seconds =       0.34 minutes
	total time  =        167 seconds =       2.78 minutes

    Psi4 stopped on: Wednesday, 31 March 2021 06:29PM
    Psi4 wall time for execution: 0:02:47.97

*** Psi4 exiting successfully. Buy a developer a beer!
