640539                                                                  
Freq      RMP2-FC                                                     6-31G(d)            
Number of atoms                            I               12
Info1-9                                    I   N=           9
          24          22        1002           0           0         100
           6           2           1
Charge                                     I                0
Multiplicity                               I                1
Number of electrons                        I               52
Number of alpha electrons                  I               26
Number of beta electrons                   I               26
Number of basis functions                  I              106
Number of independent functions            I              106
Number of point charges in /Mol/           I                0
Number of translation vectors              I                0
Atomic numbers                             I   N=          12
          16           6           6           6           6           6
           1           1           1           1           1           1
Nuclear charges                            R   N=          12
  1.60000000E+01  6.00000000E+00  6.00000000E+00  6.00000000E+00  6.00000000E+00
  6.00000000E+00  1.00000000E+00  1.00000000E+00  1.00000000E+00  1.00000000E+00
  1.00000000E+00  1.00000000E+00
Current cartesian coordinates              R   N=          36
  2.64901132E+00  6.02203902E-02 -4.28572766E-01  6.50062589E-01 -2.43916737E+00
  8.13418665E-01 -1.95889864E+00 -2.26392185E+00 -2.88535650E-01 -3.18931714E+00
 -2.82743428E-02 -3.24529183E-01 -1.94140897E+00  2.32723192E+00  3.31327772E-01
  6.06244838E-01  2.57977917E+00  2.11640071E-01  6.03272985E-01 -2.27524243E+00
  2.88014131E+00  1.57037209E+00 -4.22153540E+00  3.24726474E-01 -2.87334071E+00
 -3.98478502E+00 -9.39255957E-01 -5.12892304E+00  6.29931503E-02 -9.98719750E-01
 -3.07696715E+00  3.99477806E+00  7.19389893E-01  1.52130864E+00  4.40638025E+00
  4.10952239E-01
Force Field                                I                0
Int Atom Types                             I   N=          12
           0           0           0           0           0           0
           0           0           0           0           0           0
MM charges                                 R   N=          12
  0.00000000E+00  0.00000000E+00  0.00000000E+00  0.00000000E+00  0.00000000E+00
  0.00000000E+00  0.00000000E+00  0.00000000E+00  0.00000000E+00  0.00000000E+00
  0.00000000E+00  0.00000000E+00
Integer atomic weights                     I   N=          12
          32          12          12          12          12          12
           1           1           1           1           1           1
Real atomic weights                        R   N=          12
  3.19720718E+01  1.20000000E+01  1.20000000E+01  1.20000000E+01  1.20000000E+01
  1.20000000E+01  1.00782504E+00  1.00782504E+00  1.00782504E+00  1.00782504E+00
  1.00782504E+00  1.00782504E+00
Atom fragment info                         I   N=          12
           0           0           0           0           0           0
           0           0           0           0           0           0
Atom residue num                           I   N=          12
           0           0           0           0           0           0
           0           0           0           0           0           0
Nuclear spins                              I   N=          12
           0           0           0           0           0           0
           1           1           1           1           1           1
Nuclear ZEff                               R   N=          12
 -1.36000000E+01 -3.60000000E+00 -3.60000000E+00 -3.60000000E+00 -3.60000000E+00
 -3.60000000E+00 -1.00000000E+00 -1.00000000E+00 -1.00000000E+00 -1.00000000E+00
 -1.00000000E+00 -1.00000000E+00
Nuclear QMom                               R   N=          12
  0.00000000E+00  0.00000000E+00  0.00000000E+00  0.00000000E+00  0.00000000E+00
  0.00000000E+00  0.00000000E+00  0.00000000E+00  0.00000000E+00  0.00000000E+00
  0.00000000E+00  0.00000000E+00
Nuclear GFac                               R   N=          12
  0.00000000E+00  0.00000000E+00  0.00000000E+00  0.00000000E+00  0.00000000E+00
  0.00000000E+00  2.79284600E+00  2.79284600E+00  2.79284600E+00  2.79284600E+00
  2.79284600E+00  2.79284600E+00
MicOpt                                     I   N=          12
          -1          -1          -1          -1          -1          -1
          -1          -1          -1          -1          -1          -1
Number of contracted shells                I               37
Number of primitive shells                 I               96
Pure/Cartesian d shells                    I                1
Pure/Cartesian f shells                    I                0
Highest angular momentum                   I                2
Largest degree of contraction              I                6
Shell types                                I   N=          37
           0          -1          -1          -1           2           0
          -1          -1           2           0          -1          -1
           2           0          -1          -1           2           0
          -1          -1           2           0          -1          -1
           2           0           0           0           0           0
           0           0           0           0           0           0
           0
Number of primitives per shell             I   N=          37
           6           6           3           1           1           6
           3           1           1           6           3           1
           1           6           3           1           1           6
           3           1           1           6           3           1
           1           3           1           3           1           3
           1           3           1           3           1           3
           1
Shell to atom map                          I   N=          37
           1           1           1           1           1           2
           2           2           2           3           3           3
           3           4           4           4           4           5
           5           5           5           6           6           6
           6           7           7           8           8           9
           9          10          10          11          11          12
          12
Primitive exponents                        R   N=          96
  2.19171000E+04  3.30149000E+03  7.54146000E+02  2.12711000E+02  6.79896000E+01
  2.30515000E+01  4.23735000E+02  1.00710000E+02  3.21599000E+01  1.18079000E+01
  4.63110000E+00  1.87025000E+00  2.61584000E+00  9.22167000E-01  3.41287000E-01
  1.17167000E-01  6.50000000E-01  3.04752488E+03  4.57369518E+02  1.03948685E+02
  2.92101553E+01  9.28666296E+00  3.16392696E+00  7.86827235E+00  1.88128854E+00
  5.44249258E-01  1.68714478E-01  8.00000000E-01  3.04752488E+03  4.57369518E+02
  1.03948685E+02  2.92101553E+01  9.28666296E+00  3.16392696E+00  7.86827235E+00
  1.88128854E+00  5.44249258E-01  1.68714478E-01  8.00000000E-01  3.04752488E+03
  4.57369518E+02  1.03948685E+02  2.92101553E+01  9.28666296E+00  3.16392696E+00
  7.86827235E+00  1.88128854E+00  5.44249258E-01  1.68714478E-01  8.00000000E-01
  3.04752488E+03  4.57369518E+02  1.03948685E+02  2.92101553E+01  9.28666296E+00
  3.16392696E+00  7.86827235E+00  1.88128854E+00  5.44249258E-01  1.68714478E-01
  8.00000000E-01  3.04752488E+03  4.57369518E+02  1.03948685E+02  2.92101553E+01
  9.28666296E+00  3.16392696E+00  7.86827235E+00  1.88128854E+00  5.44249258E-01
  1.68714478E-01  8.00000000E-01  1.87311370E+01  2.82539436E+00  6.40121692E-01
  1.61277759E-01  1.87311370E+01  2.82539436E+00  6.40121692E-01  1.61277759E-01
  1.87311370E+01  2.82539436E+00  6.40121692E-01  1.61277759E-01  1.87311370E+01
  2.82539436E+00  6.40121692E-01  1.61277759E-01  1.87311370E+01  2.82539436E+00
  6.40121692E-01  1.61277759E-01  1.87311370E+01  2.82539436E+00  6.40121692E-01
  1.61277759E-01
Contraction coefficients                   R   N=          96
  1.86924085E-03  1.42303065E-02  6.96962317E-02  2.38487108E-01  4.83307220E-01
  3.38074154E-01 -2.37677050E-03 -3.16930067E-02 -1.13317024E-01  5.60900118E-02
  5.92255124E-01  4.55006095E-01 -2.50373114E-01  6.69567631E-02  1.05450627E+00
  1.00000000E+00  1.00000000E+00  1.83473713E-03  1.40373228E-02  6.88426223E-02
  2.32184443E-01  4.67941348E-01  3.62311985E-01 -1.19332420E-01 -1.60854152E-01
  1.14345644E+00  1.00000000E+00  1.00000000E+00  1.83473713E-03  1.40373228E-02
  6.88426223E-02  2.32184443E-01  4.67941348E-01  3.62311985E-01 -1.19332420E-01
 -1.60854152E-01  1.14345644E+00  1.00000000E+00  1.00000000E+00  1.83473713E-03
  1.40373228E-02  6.88426223E-02  2.32184443E-01  4.67941348E-01  3.62311985E-01
 -1.19332420E-01 -1.60854152E-01  1.14345644E+00  1.00000000E+00  1.00000000E+00
  1.83473713E-03  1.40373228E-02  6.88426223E-02  2.32184443E-01  4.67941348E-01
  3.62311985E-01 -1.19332420E-01 -1.60854152E-01  1.14345644E+00  1.00000000E+00
  1.00000000E+00  1.83473713E-03  1.40373228E-02  6.88426223E-02  2.32184443E-01
  4.67941348E-01  3.62311985E-01 -1.19332420E-01 -1.60854152E-01  1.14345644E+00
  1.00000000E+00  1.00000000E+00  3.34946043E-02  2.34726953E-01  8.13757326E-01
  1.00000000E+00  3.34946043E-02  2.34726953E-01  8.13757326E-01  1.00000000E+00
  3.34946043E-02  2.34726953E-01  8.13757326E-01  1.00000000E+00  3.34946043E-02
  2.34726953E-01  8.13757326E-01  1.00000000E+00  3.34946043E-02  2.34726953E-01
  8.13757326E-01  1.00000000E+00  3.34946043E-02  2.34726953E-01  8.13757326E-01
  1.00000000E+00
P(S=P) Contraction coefficients            R   N=          96
  0.00000000E+00  0.00000000E+00  0.00000000E+00  0.00000000E+00  0.00000000E+00
  0.00000000E+00  4.06100998E-03  3.06812999E-02  1.30451999E-01  3.27204999E-01
  4.52850998E-01  2.56041999E-01 -1.45104895E-02  3.10262776E-01  7.54482456E-01
  1.00000000E+00  0.00000000E+00  0.00000000E+00  0.00000000E+00  0.00000000E+00
  0.00000000E+00  0.00000000E+00  0.00000000E+00  6.89990666E-02  3.16423961E-01
  7.44308291E-01  1.00000000E+00  0.00000000E+00  0.00000000E+00  0.00000000E+00
  0.00000000E+00  0.00000000E+00  0.00000000E+00  0.00000000E+00  6.89990666E-02
  3.16423961E-01  7.44308291E-01  1.00000000E+00  0.00000000E+00  0.00000000E+00
  0.00000000E+00  0.00000000E+00  0.00000000E+00  0.00000000E+00  0.00000000E+00
  6.89990666E-02  3.16423961E-01  7.44308291E-01  1.00000000E+00  0.00000000E+00
  0.00000000E+00  0.00000000E+00  0.00000000E+00  0.00000000E+00  0.00000000E+00
  0.00000000E+00  6.89990666E-02  3.16423961E-01  7.44308291E-01  1.00000000E+00
  0.00000000E+00  0.00000000E+00  0.00000000E+00  0.00000000E+00  0.00000000E+00
  0.00000000E+00  0.00000000E+00  6.89990666E-02  3.16423961E-01  7.44308291E-01
  1.00000000E+00  0.00000000E+00  0.00000000E+00  0.00000000E+00  0.00000000E+00
  0.00000000E+00  0.00000000E+00  0.00000000E+00  0.00000000E+00  0.00000000E+00
  0.00000000E+00  0.00000000E+00  0.00000000E+00  0.00000000E+00  0.00000000E+00
  0.00000000E+00  0.00000000E+00  0.00000000E+00  0.00000000E+00  0.00000000E+00
  0.00000000E+00  0.00000000E+00  0.00000000E+00  0.00000000E+00  0.00000000E+00
  0.00000000E+00
Coordinates of each shell                  R   N=         111
  2.64901132E+00  6.02203902E-02 -4.28572766E-01  2.64901132E+00  6.02203902E-02
 -4.28572766E-01  2.64901132E+00  6.02203902E-02 -4.28572766E-01  2.64901132E+00
  6.02203902E-02 -4.28572766E-01  2.64901132E+00  6.02203902E-02 -4.28572766E-01
  6.50062589E-01 -2.43916737E+00  8.13418665E-01  6.50062589E-01 -2.43916737E+00
  8.13418665E-01  6.50062589E-01 -2.43916737E+00  8.13418665E-01  6.50062589E-01
 -2.43916737E+00  8.13418665E-01 -1.95889864E+00 -2.26392185E+00 -2.88535650E-01
 -1.95889864E+00 -2.26392185E+00 -2.88535650E-01 -1.95889864E+00 -2.26392185E+00
 -2.88535650E-01 -1.95889864E+00 -2.26392185E+00 -2.88535650E-01 -3.18931714E+00
 -2.82743428E-02 -3.24529183E-01 -3.18931714E+00 -2.82743428E-02 -3.24529183E-01
 -3.18931714E+00 -2.82743428E-02 -3.24529183E-01 -3.18931714E+00 -2.82743428E-02
 -3.24529183E-01 -1.94140897E+00  2.32723192E+00  3.31327772E-01 -1.94140897E+00
  2.32723192E+00  3.31327772E-01 -1.94140897E+00  2.32723192E+00  3.31327772E-01
 -1.94140897E+00  2.32723192E+00  3.31327772E-01  6.06244838E-01  2.57977917E+00
  2.11640071E-01  6.06244838E-01  2.57977917E+00  2.11640071E-01  6.06244838E-01
  2.57977917E+00  2.11640071E-01  6.06244838E-01  2.57977917E+00  2.11640071E-01
  6.03272985E-01 -2.27524243E+00  2.88014131E+00  6.03272985E-01 -2.27524243E+00
  2.88014131E+00  1.57037209E+00 -4.22153540E+00  3.24726474E-01  1.57037209E+00
 -4.22153540E+00  3.24726474E-01 -2.87334071E+00 -3.98478502E+00 -9.39255957E-01
 -2.87334071E+00 -3.98478502E+00 -9.39255957E-01 -5.12892304E+00  6.29931503E-02
 -9.98719750E-01 -5.12892304E+00  6.29931503E-02 -9.98719750E-01 -3.07696715E+00
  3.99477806E+00  7.19389893E-01 -3.07696715E+00  3.99477806E+00  7.19389893E-01
  1.52130864E+00  4.40638025E+00  4.10952239E-01  1.52130864E+00  4.40638025E+00
  4.10952239E-01
Constraint Structure                       R   N=          36
  2.64901132E+00  6.02203902E-02 -4.28572766E-01  6.50062589E-01 -2.43916737E+00
  8.13418665E-01 -1.95889864E+00 -2.26392185E+00 -2.88535650E-01 -3.18931714E+00
 -2.82743428E-02 -3.24529183E-01 -1.94140897E+00  2.32723192E+00  3.31327772E-01
  6.06244838E-01  2.57977917E+00  2.11640071E-01  6.03272985E-01 -2.27524243E+00
  2.88014131E+00  1.57037209E+00 -4.22153540E+00  3.24726474E-01 -2.87334071E+00
 -3.98478502E+00 -9.39255957E-01 -5.12892304E+00  6.29931503E-02 -9.98719750E-01
 -3.07696715E+00  3.99477806E+00  7.19389893E-01  1.52130864E+00  4.40638025E+00
  4.10952239E-01
Num ILSW                                   I              100
ILSW                                       I   N=         100
           0           1           0           0           2           0
           0           0           0           0           0          -1
           0           0           0           0           0           0
           0           0           0           0           1           0
           1           0           0           0           0           0
           0           0      100000           0          -1           0
           0           0           0           0           0           0
           0           0           0           1           1           0
           0           0           1           0           0           0
           0           0           4          40           0           0
           0           0           0           0           0           0
           0           0           0           0           0           0
           0           0           0           0           0           0
           0           0           0           0           0           0
           0           0           0           0           0           0
           0           0           0           0           0           0
           0           0           0           0
Num RLSW                                   I               40
RLSW                                       R   N=          40
  1.00000000E+00  1.00000000E+00  1.00000000E+00  1.00000000E+00  1.00000000E+00
  0.00000000E+00  0.00000000E+00  1.00000000E+00  0.00000000E+00  0.00000000E+00
  0.00000000E+00  0.00000000E+00  1.00000000E+00  0.00000000E+00  0.00000000E+00
  0.00000000E+00  0.00000000E+00  1.00000000E+00  0.00000000E+00  0.00000000E+00
  0.00000000E+00  0.00000000E+00  1.00000000E+00  0.00000000E+00  0.00000000E+00
  0.00000000E+00  0.00000000E+00  1.00000000E+00  0.00000000E+00  0.00000000E+00
  0.00000000E+00  0.00000000E+00  0.00000000E+00  0.00000000E+00  0.00000000E+00
  0.00000000E+00  0.00000000E+00  0.00000000E+00  1.00000000E+00  1.00000000E+00
MxBond                                     I                4
NBond                                      I   N=          12
           2           4           3           3           3           3
           1           1           1           1           1           1
IBond                                      I   N=          48
           2           6           0           0           1           3
           7           8           2           4           9           0
           3           5          10           0           4           6
          11           0           1           5          12           0
           2           0           0           0           2           0
           0           0           3           0           0           0
           4           0           0           0           5           0
           0           0           6           0           0           0
RBond                                      R   N=          48
  1.00000000E+00  1.00000000E+00  0.00000000E+00  0.00000000E+00  1.00000000E+00
  1.00000000E+00  1.00000000E+00  1.00000000E+00  1.00000000E+00  2.00000000E+00
  1.00000000E+00  0.00000000E+00  2.00000000E+00  1.00000000E+00  1.00000000E+00
  0.00000000E+00  1.00000000E+00  2.00000000E+00  1.00000000E+00  0.00000000E+00
  1.00000000E+00  2.00000000E+00  1.00000000E+00  0.00000000E+00  1.00000000E+00
  0.00000000E+00  0.00000000E+00  0.00000000E+00  1.00000000E+00  0.00000000E+00
  0.00000000E+00  0.00000000E+00  1.00000000E+00  0.00000000E+00  0.00000000E+00
  0.00000000E+00  1.00000000E+00  0.00000000E+00  0.00000000E+00  0.00000000E+00
  1.00000000E+00  0.00000000E+00  0.00000000E+00  0.00000000E+00  1.00000000E+00
  0.00000000E+00  0.00000000E+00  0.00000000E+00
Virial Ratio                               R      2.000855197071963E+00
SCF Energy                                 R     -5.903018644168446E+02
MP2 Energy                                 R     -5.910628039870099E+02
Total Energy                               R     -5.910628039870099E+02
Post-SCF wavefunction norm                 R      1.605496674717968E+00
RMS Force                                  R      2.340004897013298E-06
RMS Density                                R      2.420350044604661E-09
External E-field                           R   N=          35
  0.00000000E+00  0.00000000E+00  0.00000000E+00  0.00000000E+00  0.00000000E+00
  0.00000000E+00  0.00000000E+00  0.00000000E+00  0.00000000E+00  0.00000000E+00
  0.00000000E+00  0.00000000E+00  0.00000000E+00  0.00000000E+00  0.00000000E+00
  0.00000000E+00  0.00000000E+00  0.00000000E+00  0.00000000E+00  0.00000000E+00
  0.00000000E+00  0.00000000E+00  0.00000000E+00  0.00000000E+00  0.00000000E+00
  0.00000000E+00  0.00000000E+00  0.00000000E+00  0.00000000E+00  0.00000000E+00
  0.00000000E+00  0.00000000E+00  0.00000000E+00  0.00000000E+00  0.00000000E+00
IOpCl                                      I                0
IROHF                                      I                0
Alpha Orbital Energies                     R   N=         106
 -9.19454709E+01 -1.12660401E+01 -1.12653447E+01 -1.12414443E+01 -1.12396443E+01
 -1.12377395E+01 -8.95599357E+00 -6.63886732E+00 -6.63750237E+00 -6.63559083E+00
 -1.13800870E+00 -1.02267838E+00 -1.01564356E+00 -8.56058150E-01 -8.13165900E-01
 -6.90619039E-01 -6.76730785E-01 -6.05517924E-01 -5.95444779E-01 -5.80652893E-01
 -5.31568806E-01 -4.80622116E-01 -4.58859936E-01 -4.45645054E-01 -3.58737724E-01
 -2.92296284E-01  1.08245985E-01  1.99590361E-01  2.25730034E-01  2.40243852E-01
  2.56097940E-01  2.79418461E-01  3.05339333E-01  3.12741749E-01  3.35665670E-01
  3.41062502E-01  4.13114795E-01  4.80828202E-01  4.84360270E-01  5.17718651E-01
  5.65270161E-01  5.72610690E-01  6.19709788E-01  6.38530242E-01  6.90429553E-01
  7.29949186E-01  7.69697842E-01  7.98303435E-01  8.16126004E-01  8.29683582E-01
  8.45282451E-01  8.60627737E-01  8.93720186E-01  9.45976052E-01  9.56943427E-01
  1.02642740E+00  1.06114877E+00  1.10297307E+00  1.10685612E+00  1.10958677E+00
  1.13533202E+00  1.14776446E+00  1.15602798E+00  1.18585699E+00  1.19547048E+00
  1.21470849E+00  1.25717305E+00  1.28949347E+00  1.32104895E+00  1.34564047E+00
  1.36546872E+00  1.37928303E+00  1.51446701E+00  1.59449233E+00  1.62770958E+00
  1.74277302E+00  1.79519158E+00  1.83319650E+00  1.84906840E+00  2.06542026E+00
  2.07456298E+00  2.13914456E+00  2.19448042E+00  2.25907814E+00  2.30580314E+00
  2.32794417E+00  2.40117599E+00  2.45755622E+00  2.52999542E+00  2.53728855E+00
  2.58494345E+00  2.60570792E+00  2.67940625E+00  2.83401007E+00  2.87125033E+00
  2.91176463E+00  2.98258495E+00  3.04038179E+00  3.24805629E+00  3.44896915E+00
  4.35384207E+00  4.53229371E+00  4.55732038E+00  4.65482783E+00  4.74229254E+00
  4.92576738E+00
Alpha MO coefficients                      R   N=       11236
  9.96254295E-01  1.42533883E-02 -9.07537247E-05  1.14948055E-06  3.60659242E-05
 -2.00084918E-02  1.65181223E-04  1.31382829E-05 -6.27295269E-05  2.62275061E-03
 -1.91040982E-04 -2.85080727E-05  1.03477206E-04  6.88904108E-03  6.89230726E-03
  6.89504559E-03 -1.74129182E-06  1.68108542E-06  1.26077523E-06 -1.95954748E-05
 -1.92303620E-05  5.31669174E-05  6.92219747E-05 -3.46740549E-05  6.44993217E-04
 -1.84072838E-04 -7.42003410E-05 -7.32413253E-05 -2.61463299E-05 -5.39456343E-05
 -4.10139300E-05 -1.52484659E-05  2.11009367E-05 -1.89552896E-06  8.73312660E-06
  5.73135156E-05 -1.76281335E-05 -1.74458867E-05 -2.05047986E-05 -5.15799235E-04
 -3.11501802E-04 -2.58196525E-05 -4.13222186E-05 -2.16896736E-05  6.27096041E-06
  8.04701230E-06 -6.95265911E-06 -4.55522649E-06 -3.40645092E-06 -1.25899706E-06
  2.78929955E-07 -3.66263901E-06  3.10375167E-06 -4.93187909E-06  3.39536015E-04
  2.27347815E-04  1.74626926E-04  9.00070661E-05 -1.17758809E-05  4.31562063E-06
 -2.04784397E-06  7.26267398E-06  5.28307019E-06  1.49150804E-06  1.18901139E-05
  6.28233691E-05 -1.65594308E-05 -1.15079567E-05 -2.58385026E-06 -5.03909996E-04
 -1.01743373E-04  4.48018347E-04  1.19256317E-04 -1.50291277E-05  1.20241913E-05
  1.70069505E-05  1.46147299E-05  7.17581124E-06 -4.73322200E-06  1.53792668E-05
  1.13591444E-04  3.28726975E-05 -4.40296282E-05 -7.15322568E-06 -3.19182069E-05
 -5.87147828E-05 -2.24543526E-04 -6.98479320E-05  1.60981425E-05 -1.06118121E-05
 -3.76558963E-06  5.18403877E-05  8.76573645E-06 -2.82770371E-06 -2.37142898E-05
 -2.17151044E-04 -4.14944764E-05 -2.18141538E-04  9.52062150E-06  9.76824619E-06
  9.94846116E-06  6.27833699E-05 -2.60294672E-05 -1.33919570E-04  9.47146322E-06
  9.72740889E-06 -7.15973670E-06 -3.91702647E-05  1.25880694E-05 -1.11570826E-05
 -1.36039218E-07  2.46729250E-04 -2.02660732E-04  2.70701975E-04  4.15824224E-05
  3.70210977E-03 -1.73054915E-03  1.05155315E-03  5.36720015E-04 -1.94522017E-04
 -2.85479658E-04 -2.16339501E-04  6.07368284E-05 -7.95730658E-06 -6.76428949E-05
 -6.16246058E-03 -2.05926991E-04 -1.26359423E-05 -1.22071520E-04 -3.63994057E-05
 -3.77874591E-04 -5.25646855E-04  2.81378515E-04  3.58759025E-04 -1.85000015E-05
  3.14696238E-05 -1.08562162E-05 -5.05601854E-05  1.16673998E-05 -9.73518530E-07
 -2.63408924E-04  7.01711074E-05 -5.77986508E-07  1.17882121E-05 -1.48292130E-05
 -3.46251077E-04 -2.98219044E-04 -1.56704584E-04 -1.05326023E-04  3.68476897E-05
  4.28165635E-05  2.12574663E-05 -3.71911100E-05 -1.43954212E-05  5.16826141E-07
  2.24545865E-04 -6.96734426E-05 -1.81122097E-05 -6.10586197E-05 -3.21884078E-06
 -6.09639808E-04 -2.58666108E-04  3.12883958E-05 -5.80528234E-05  8.46836294E-05
  1.81314432E-06 -1.40798888E-05  4.31486890E-05 -9.66285275E-06  1.76585036E-05
  2.74104609E-02  4.48943201E-04 -1.66162791E-04  4.43299190E-05  1.66692603E-05
  4.02142087E-03  1.88681360E-03 -7.64582162E-04 -2.68697492E-04 -3.24833792E-04
 -2.93622069E-04 -1.45206188E-04 -2.28831278E-05  6.63952522E-06 -2.43628360E-05
  9.95347476E-01  2.74095787E-02  3.22576738E-04 -4.91651824E-04 -7.33382417E-05
 -1.30802767E-02  2.66909837E-04  1.91449156E-03  2.84785060E-04 -1.43869209E-03
 -1.84817512E-03 -2.16998689E-03  1.61684855E-04 -4.65036149E-05  4.98766151E-05
 -6.76345217E-05 -2.63581815E-04  2.86404107E-05  5.09094367E-04 -2.37847078E-06
 -1.01967671E-04 -6.21446076E-06  1.12920954E-05  1.52562267E-05  3.27964954E-04
 -1.56688578E-04  1.39575743E-03  3.74472178E-06 -8.94281596E-06  4.24788985E-05
  5.07682776E-05 -2.43940865E-05  4.63910976E-04 -3.86549952E-04 -4.68972957E-04
  2.26300985E-04  2.42066345E-03 -1.00679455E-03 -7.98220955E-04  4.79572964E-04
 -8.56140292E-05 -6.84822940E-05 -1.34331342E-04  2.18026196E-05 -3.04610469E-05
  1.67732794E-05  9.95738748E-01  2.82384502E-02  1.28101823E-04  4.02520811E-04
 -2.81033061E-04 -1.55075328E-02  5.98294456E-04 -7.89029924E-04  6.76982875E-04
 -1.65869618E-03 -1.71151357E-03 -1.61096274E-03 -1.56651612E-04  4.87507452E-05
  1.18427020E-04  1.35822081E-02  5.02706278E-04  1.99260825E-05  1.42742718E-05
 -1.63675849E-05  3.49889023E-03  2.00822534E-03 -2.09269209E-04  7.61502891E-04
 -4.48369618E-04 -1.40546426E-04 -2.02308171E-04  6.41533311E-05 -1.40106792E-04
  2.72163180E-05  1.80962390E-04 -9.65723538E-05 -5.31092343E-05  1.62605098E-05
 -4.17128248E-05 -5.20008626E-04 -2.86230793E-04 -6.27644821E-04 -6.27667668E-05
  4.12779559E-05  7.39713242E-05 -1.45272412E-05 -4.76380512E-05  5.93683875E-05
  1.26042738E-05 -4.36748859E-05 -1.48282681E-04 -5.95185576E-05  1.00562532E-04
 -2.43932181E-05  9.41926249E-04  1.78464134E-04 -6.73342813E-04 -1.19658716E-04
 -2.85352011E-05 -3.65376513E-05 -1.08775530E-04  2.74725581E-05  1.50567052E-05
 -5.03581587E-06  6.15397029E-03  9.99182608E-05  1.77008870E-05  1.01334791E-04
 -4.56714252E-06 -7.15557713E-04 -9.09757927E-05 -1.23885623E-04  8.38623394E-05
 -4.64249447E-05  3.65169097E-05 -8.95377589E-05  1.55795487E-05 -2.60868918E-05
 -5.52975479E-05  2.11328347E-04  2.28535849E-03  1.47472530E-04  2.22624977E-03
 -1.10414691E-04  3.31429280E-05 -2.73270126E-05  1.26004482E-04  2.32513432E-05
  2.52657638E-04  1.22898142E-05  3.04754801E-04 -6.09675820E-06 -7.45872589E-05
 -5.30791390E-06 -1.38682109E-05 -1.36322993E-05 -3.35266408E-04  9.28464788E-05
  1.08720445E-04  7.05578345E-05  1.45570374E-03 -8.00259184E-04 -2.28077220E-04
  9.07594022E-05  1.18312518E-05 -7.08695660E-05 -1.73828951E-04  2.45504554E-05
  1.35126187E-06 -2.03682800E-05 -1.35214355E-02 -1.18966781E-04  8.58433823E-05
  3.61626999E-05  4.18548411E-05  2.47276081E-03 -1.62379841E-03 -1.42885413E-04
 -4.65310592E-04 -4.14878065E-04 -9.55977839E-05 -7.03383775E-05 -4.65329702E-05
 -2.11683385E-04 -3.04035438E-06  9.69766470E-01  2.67371051E-02  3.06345334E-04
  5.15527610E-05  9.39837797E-05 -1.20209339E-02 -9.80598590E-04 -9.57086536E-04
 -6.06058177E-04 -1.79222065E-03 -1.56624064E-03 -2.14078594E-03 -1.83047105E-04
  1.81917690E-04  6.41347202E-05  2.20071993E-01  5.79782670E-03 -7.92470624E-05
  1.64792966E-04 -2.16870812E-05  1.90850914E-03  1.27154786E-03 -1.25227323E-03
  3.20455163E-04 -6.60330579E-04 -6.86705183E-04 -6.25730047E-04 -1.59970790E-05
 -2.01094205E-05 -4.31890318E-05  4.56996255E-02  1.18342346E-03  3.94559304E-05
  6.08901468E-05  2.50539483E-05 -3.51772739E-04 -1.64279116E-04 -1.34590726E-04
 -7.61979758E-05 -1.30429001E-04 -8.11805027E-05 -1.45714502E-04 -5.47717195E-05
 -7.91379215E-08  2.42691271E-06 -1.11666540E-03  3.15807051E-05  3.88337179E-06
  1.93242793E-05  2.56714436E-05 -5.26648857E-04 -2.07612474E-04  2.90410301E-04
  2.77103725E-05  5.59886956E-05  8.69037993E-06  2.39672693E-05  1.33403217E-05
  9.15627151E-07  8.23833231E-07 -1.61236035E-04  2.46134600E-04 -5.31559683E-05
 -6.03250766E-05 -1.85123237E-04  1.62551796E-03 -4.34963552E-05  5.83785306E-04
 -2.14298141E-05  1.79153126E-04  2.98715008E-07  4.10082001E-05 -3.27942875E-06
 -1.55499211E-05 -2.38982109E-05  1.04459452E-05  2.95051344E-06 -1.56441271E-04
  1.88747035E-04 -8.87206979E-05 -3.23047196E-05 -1.34955063E-04  8.48247199E-05
  1.31537243E-04  3.88460138E-06 -2.96660517E-05  1.80229626E-05 -4.89625684E-05
 -3.79204913E-06  5.05876998E-06  2.10590997E-05  1.39838754E-03 -8.31487464E-05
  4.03814314E-05 -8.62948700E-05 -5.33244274E-06  2.86561929E-05 -1.32386732E-04
  3.18305181E-04 -2.27216052E-05  3.08885655E-05 -3.51236289E-05 -2.06255635E-05
 -1.01602515E-05  3.63556727E-05 -6.88497593E-06 -9.19574232E-02 -2.69364076E-03
 -3.15929836E-05 -6.34590978E-05 -5.61711386E-05  1.37470907E-03 -2.39745600E-04
  3.70091120E-04  9.27668592E-05  1.54199681E-04  1.96931974E-04  1.58838612E-04
 -1.56003318E-05 -1.72419232E-05  2.57068172E-06  2.02828418E-01  5.69238616E-03
 -2.32861345E-05 -7.13714552E-05 -1.34784937E-05  7.72367021E-04  6.95566439E-04
  1.26411099E-03  1.85041890E-04 -6.05107903E-04 -8.33441287E-04 -6.05154927E-04
 -1.54857553E-04  1.85022756E-06 -1.24573103E-04  9.70004364E-01  2.69467331E-02
  1.31865194E-04 -2.44067709E-04 -5.50338239E-05 -1.23648913E-02 -1.27161795E-03
  9.77522127E-04  5.02401023E-04 -1.54412161E-03 -1.84350335E-03 -2.25903648E-03
  9.49591276E-05 -3.32233597E-05  1.08311682E-04 -2.73592227E-02 -9.93967188E-04
  2.02049995E-04  1.53810825E-05  2.20760651E-06  4.70869858E-03 -1.96285196E-03
 -5.96101700E-04 -9.73892885E-05 -3.08520806E-04 -1.70224727E-04 -4.89770423E-06
  3.52837131E-05  5.70911120E-05 -3.76164164E-05 -7.09042415E-05  8.66887781E-05
  1.91956085E-05  2.45463274E-04  1.91199842E-05 -4.49831940E-05 -1.09125846E-04
  4.07416336E-04 -1.71956501E-04  1.52923025E-03 -2.21091835E-05  4.01495564E-05
  6.95435606E-07 -1.96861478E-06 -3.28673749E-06  6.17107472E-06 -8.84132673E-06
  3.69796281E-05 -1.34974511E-05 -3.97383153E-05  5.38135246E-05  4.34555663E-04
 -2.35435023E-04  5.46175887E-05  7.89484600E-05 -3.72688494E-05  2.19349800E-05
 -1.49882319E-05  8.40174058E-06 -3.37260105E-05 -6.83561085E-06  2.67149914E-03
  2.39798412E-05  4.82966469E-05  3.25664754E-06 -1.81315711E-05 -1.84757321E-03
  4.52168670E-04 -2.61204438E-04  3.84545372E-04  1.95755178E-04  9.91712177E-05