5193739                                                                 
Freq      RMP2-FC                                                     6-31G(d)            
Number of atoms                            I               29
Info1-9                                    I   N=           9
          41          39        1002           0           0         100
           6           2           1
Charge                                     I                0
Multiplicity                               I                1
Number of electrons                        I              106
Number of alpha electrons                  I               53
Number of beta electrons                   I               53
Number of basis functions                  I              253
Number of independent functions            I              253
Number of point charges in /Mol/           I                0
Number of translation vectors              I                0
Atomic numbers                             I   N=          29
           8           6           6           6           6           6
           6           6           6           6           6           6
           6           6           6           1           1           1
           1           1           1           1           1           1
           1           1           1           1           1
Nuclear charges                            R   N=          29
  8.00000000E+00  6.00000000E+00  6.00000000E+00  6.00000000E+00  6.00000000E+00
  6.00000000E+00  6.00000000E+00  6.00000000E+00  6.00000000E+00  6.00000000E+00
  6.00000000E+00  6.00000000E+00  6.00000000E+00  6.00000000E+00  6.00000000E+00
  1.00000000E+00  1.00000000E+00  1.00000000E+00  1.00000000E+00  1.00000000E+00
  1.00000000E+00  1.00000000E+00  1.00000000E+00  1.00000000E+00  1.00000000E+00
  1.00000000E+00  1.00000000E+00  1.00000000E+00  1.00000000E+00
Current cartesian coordinates              R   N=          87
  1.63563589E+00 -4.50388212E-01 -3.73957126E-01 -2.55725727E+00  9.16723510E-01
  3.13594545E-01  1.74498955E-01  1.62518285E+00  5.67716201E-01 -7.70256136E+00
 -4.39620285E-01 -9.11445073E-02 -3.45681511E+00 -1.29359424E+00  1.45765784E+00
 -4.24226909E+00  2.43331828E+00 -1.03877978E+00 -5.99445185E+00 -1.95887704E+00
  1.25046950E+00 -6.78833716E+00  1.76698389E+00 -1.22516610E+00  4.21795765E+00
 -2.42303562E-01 -1.97688076E-01 -1.04606611E+01 -1.13090325E+00 -2.37578411E-01
  5.50681377E+00  1.87804286E+00  7.15000587E-01  5.56943704E+00 -2.36378714E+00
 -1.02793422E+00  8.15080551E+00  1.84687012E+00  7.90579478E-01  8.19590146E+00
 -2.36384078E+00 -9.43208239E-01  9.50549595E+00 -2.55836510E-01 -2.93065883E-02
  5.86462457E-01  3.35060429E+00 -5.11925607E-01  6.71051645E-01  1.97278924E+00
  2.55553800E+00 -2.14944592E+00 -2.50472105E+00  2.48299382E+00 -3.56313443E+00
  4.14160564E+00 -1.96339957E+00 -6.66452026E+00 -3.69113446E+00  2.13701273E+00
 -8.07543573E+00  2.96591073E+00 -2.29291799E+00 -1.13456786E+01 -3.05746614E-01
 -1.91292173E+00 -1.07098310E+01 -3.18104299E+00 -3.23904000E-01 -1.14917808E+01
 -4.44686015E-01  1.42133861E+00  4.50264441E+00  3.54589939E+00  1.35609576E+00
  4.51256605E+00 -3.97865056E+00 -1.72918560E+00  9.14609839E+00  3.49865767E+00
  1.50152122E+00  9.22668512E+00 -4.01917919E+00 -1.59164124E+00  1.15578873E+01
 -2.57352590E-01  3.77792276E-02
Force Field                                I                0
Int Atom Types                             I   N=          29
           0           0           0           0           0           0
           0           0           0           0           0           0
           0           0           0           0           0           0
           0           0           0           0           0           0
           0           0           0           0           0
MM charges                                 R   N=          29
  0.00000000E+00  0.00000000E+00  0.00000000E+00  0.00000000E+00  0.00000000E+00
  0.00000000E+00  0.00000000E+00  0.00000000E+00  0.00000000E+00  0.00000000E+00
  0.00000000E+00  0.00000000E+00  0.00000000E+00  0.00000000E+00  0.00000000E+00
  0.00000000E+00  0.00000000E+00  0.00000000E+00  0.00000000E+00  0.00000000E+00
  0.00000000E+00  0.00000000E+00  0.00000000E+00  0.00000000E+00  0.00000000E+00
  0.00000000E+00  0.00000000E+00  0.00000000E+00  0.00000000E+00
Integer atomic weights                     I   N=          29
          16          12          12          12          12          12
          12          12          12          12          12          12
          12          12          12           1           1           1
           1           1           1           1           1           1
           1           1           1           1           1
Real atomic weights                        R   N=          29
  1.59949146E+01  1.20000000E+01  1.20000000E+01  1.20000000E+01  1.20000000E+01
  1.20000000E+01  1.20000000E+01  1.20000000E+01  1.20000000E+01  1.20000000E+01
  1.20000000E+01  1.20000000E+01  1.20000000E+01  1.20000000E+01  1.20000000E+01
  1.00782504E+00  1.00782504E+00  1.00782504E+00  1.00782504E+00  1.00782504E+00
  1.00782504E+00  1.00782504E+00  1.00782504E+00  1.00782504E+00  1.00782504E+00
  1.00782504E+00  1.00782504E+00  1.00782504E+00  1.00782504E+00
Atom fragment info                         I   N=          29
           0           0           0           0           0           0
           0           0           0           0           0           0
           0           0           0           0           0           0
           0           0           0           0           0           0
           0           0           0           0           0
Atom residue num                           I   N=          29
           0           0           0           0           0           0
           0           0           0           0           0           0
           0           0           0           0           0           0
           0           0           0           0           0           0
           0           0           0           0           0
Nuclear spins                              I   N=          29
           0           0           0           0           0           0
           0           0           0           0           0           0
           0           0           0           1           1           1
           1           1           1           1           1           1
           1           1           1           1           1
Nuclear ZEff                               R   N=          29
 -5.60000000E+00 -3.60000000E+00 -3.60000000E+00 -3.60000000E+00 -3.60000000E+00
 -3.60000000E+00 -3.60000000E+00 -3.60000000E+00 -3.60000000E+00 -3.60000000E+00
 -3.60000000E+00 -3.60000000E+00 -3.60000000E+00 -3.60000000E+00 -3.60000000E+00
 -1.00000000E+00 -1.00000000E+00 -1.00000000E+00 -1.00000000E+00 -1.00000000E+00
 -1.00000000E+00 -1.00000000E+00 -1.00000000E+00 -1.00000000E+00 -1.00000000E+00
 -1.00000000E+00 -1.00000000E+00 -1.00000000E+00 -1.00000000E+00
Nuclear QMom                               R   N=          29
  0.00000000E+00  0.00000000E+00  0.00000000E+00  0.00000000E+00  0.00000000E+00
  0.00000000E+00  0.00000000E+00  0.00000000E+00  0.00000000E+00  0.00000000E+00
  0.00000000E+00  0.00000000E+00  0.00000000E+00  0.00000000E+00  0.00000000E+00
  0.00000000E+00  0.00000000E+00  0.00000000E+00  0.00000000E+00  0.00000000E+00
  0.00000000E+00  0.00000000E+00  0.00000000E+00  0.00000000E+00  0.00000000E+00
  0.00000000E+00  0.00000000E+00  0.00000000E+00  0.00000000E+00
Nuclear GFac                               R   N=          29
  0.00000000E+00  0.00000000E+00  0.00000000E+00  0.00000000E+00  0.00000000E+00
  0.00000000E+00  0.00000000E+00  0.00000000E+00  0.00000000E+00  0.00000000E+00
  0.00000000E+00  0.00000000E+00  0.00000000E+00  0.00000000E+00  0.00000000E+00
  2.79284600E+00  2.79284600E+00  2.79284600E+00  2.79284600E+00  2.79284600E+00
  2.79284600E+00  2.79284600E+00  2.79284600E+00  2.79284600E+00  2.79284600E+00
  2.79284600E+00  2.79284600E+00  2.79284600E+00  2.79284600E+00
MicOpt                                     I   N=          29
          -1          -1          -1          -1          -1          -1
          -1          -1          -1          -1          -1          -1
          -1          -1          -1          -1          -1          -1
          -1          -1          -1          -1          -1          -1
          -1          -1          -1          -1          -1
Number of contracted shells                I               88
Number of primitive shells                 I              221
Pure/Cartesian d shells                    I                1
Pure/Cartesian f shells                    I                0
Highest angular momentum                   I                2
Largest degree of contraction              I                6
Shell types                                I   N=          88
           0          -1          -1           2           0          -1
          -1           2           0          -1          -1           2
           0          -1          -1           2           0          -1
          -1           2           0          -1          -1           2
           0          -1          -1           2           0          -1
          -1           2           0          -1          -1           2
           0          -1          -1           2           0          -1
          -1           2           0          -1          -1           2
           0          -1          -1           2           0          -1
          -1           2           0          -1          -1           2
           0           0           0           0           0           0
           0           0           0           0           0           0
           0           0           0           0           0           0
           0           0           0           0           0           0
           0           0           0           0
Number of primitives per shell             I   N=          88
           6           3           1           1           6           3
           1           1           6           3           1           1
           6           3           1           1           6           3
           1           1           6           3           1           1
           6           3           1           1           6           3
           1           1           6           3           1           1
           6           3           1           1           6           3
           1           1           6           3           1           1
           6           3           1           1           6           3
           1           1           6           3           1           1
           3           1           3           1           3           1
           3           1           3           1           3           1
           3           1           3           1           3           1
           3           1           3           1           3           1
           3           1           3           1
Shell to atom map                          I   N=          88
           1           1           1           1           2           2
           2           2           3           3           3           3
           4           4           4           4           5           5
           5           5           6           6           6           6
           7           7           7           7           8           8
           8           8           9           9           9           9
          10          10          10          10          11          11
          11          11          12          12          12          12
          13          13          13          13          14          14
          14          14          15          15          15          15
          16          16          17          17          18          18
          19          19          20          20          21          21
          22          22          23          23          24          24
          25          25          26          26          27          27
          28          28          29          29
Primitive exponents                        R   N=         221
  5.48467166E+03  8.25234946E+02  1.88046958E+02  5.29645000E+01  1.68975704E+01
  5.79963534E+00  1.55396162E+01  3.59993359E+00  1.01376175E+00  2.70005823E-01
  8.00000000E-01  3.04752488E+03  4.57369518E+02  1.03948685E+02  2.92101553E+01
  9.28666296E+00  3.16392696E+00  7.86827235E+00  1.88128854E+00  5.44249258E-01
  1.68714478E-01  8.00000000E-01  3.04752488E+03  4.57369518E+02  1.03948685E+02
  2.92101553E+01  9.28666296E+00  3.16392696E+00  7.86827235E+00  1.88128854E+00
  5.44249258E-01  1.68714478E-01  8.00000000E-01  3.04752488E+03  4.57369518E+02
  1.03948685E+02  2.92101553E+01  9.28666296E+00  3.16392696E+00  7.86827235E+00
  1.88128854E+00  5.44249258E-01  1.68714478E-01  8.00000000E-01  3.04752488E+03
  4.57369518E+02  1.03948685E+02  2.92101553E+01  9.28666296E+00  3.16392696E+00
  7.86827235E+00  1.88128854E+00  5.44249258E-01  1.68714478E-01  8.00000000E-01
  3.04752488E+03  4.57369518E+02  1.03948685E+02  2.92101553E+01  9.28666296E+00
  3.16392696E+00  7.86827235E+00  1.88128854E+00  5.44249258E-01  1.68714478E-01
  8.00000000E-01  3.04752488E+03  4.57369518E+02  1.03948685E+02  2.92101553E+01
  9.28666296E+00  3.16392696E+00  7.86827235E+00  1.88128854E+00  5.44249258E-01
  1.68714478E-01  8.00000000E-01  3.04752488E+03  4.57369518E+02  1.03948685E+02
  2.92101553E+01  9.28666296E+00  3.16392696E+00  7.86827235E+00  1.88128854E+00
  5.44249258E-01  1.68714478E-01  8.00000000E-01  3.04752488E+03  4.57369518E+02
  1.03948685E+02  2.92101553E+01  9.28666296E+00  3.16392696E+00  7.86827235E+00
  1.88128854E+00  5.44249258E-01  1.68714478E-01  8.00000000E-01  3.04752488E+03
  4.57369518E+02  1.03948685E+02  2.92101553E+01  9.28666296E+00  3.16392696E+00
  7.86827235E+00  1.88128854E+00  5.44249258E-01  1.68714478E-01  8.00000000E-01
  3.04752488E+03  4.57369518E+02  1.03948685E+02  2.92101553E+01  9.28666296E+00
  3.16392696E+00  7.86827235E+00  1.88128854E+00  5.44249258E-01  1.68714478E-01
  8.00000000E-01  3.04752488E+03  4.57369518E+02  1.03948685E+02  2.92101553E+01
  9.28666296E+00  3.16392696E+00  7.86827235E+00  1.88128854E+00  5.44249258E-01
  1.68714478E-01  8.00000000E-01  3.04752488E+03  4.57369518E+02  1.03948685E+02
  2.92101553E+01  9.28666296E+00  3.16392696E+00  7.86827235E+00  1.88128854E+00
  5.44249258E-01  1.68714478E-01  8.00000000E-01  3.04752488E+03  4.57369518E+02
  1.03948685E+02  2.92101553E+01  9.28666296E+00  3.16392696E+00  7.86827235E+00
  1.88128854E+00  5.44249258E-01  1.68714478E-01  8.00000000E-01  3.04752488E+03
  4.57369518E+02  1.03948685E+02  2.92101553E+01  9.28666296E+00  3.16392696E+00
  7.86827235E+00  1.88128854E+00  5.44249258E-01  1.68714478E-01  8.00000000E-01
  1.87311370E+01  2.82539436E+00  6.40121692E-01  1.61277759E-01  1.87311370E+01
  2.82539436E+00  6.40121692E-01  1.61277759E-01  1.87311370E+01  2.82539436E+00
  6.40121692E-01  1.61277759E-01  1.87311370E+01  2.82539436E+00  6.40121692E-01
  1.61277759E-01  1.87311370E+01  2.82539436E+00  6.40121692E-01  1.61277759E-01
  1.87311370E+01  2.82539436E+00  6.40121692E-01  1.61277759E-01  1.87311370E+01
  2.82539436E+00  6.40121692E-01  1.61277759E-01  1.87311370E+01  2.82539436E+00
  6.40121692E-01  1.61277759E-01  1.87311370E+01  2.82539436E+00  6.40121692E-01
  1.61277759E-01  1.87311370E+01  2.82539436E+00  6.40121692E-01  1.61277759E-01
  1.87311370E+01  2.82539436E+00  6.40121692E-01  1.61277759E-01  1.87311370E+01
  2.82539436E+00  6.40121692E-01  1.61277759E-01  1.87311370E+01  2.82539436E+00
  6.40121692E-01  1.61277759E-01  1.87311370E+01  2.82539436E+00  6.40121692E-01
  1.61277759E-01
Contraction coefficients                   R   N=         221
  1.83107443E-03  1.39501722E-02  6.84450781E-02  2.32714336E-01  4.70192898E-01
  3.58520853E-01 -1.10777550E-01 -1.48026263E-01  1.13076702E+00  1.00000000E+00
  1.00000000E+00  1.83473713E-03  1.40373228E-02  6.88426223E-02  2.32184443E-01
  4.67941348E-01  3.62311985E-01 -1.19332420E-01 -1.60854152E-01  1.14345644E+00
  1.00000000E+00  1.00000000E+00  1.83473713E-03  1.40373228E-02  6.88426223E-02
  2.32184443E-01  4.67941348E-01  3.62311985E-01 -1.19332420E-01 -1.60854152E-01
  1.14345644E+00  1.00000000E+00  1.00000000E+00  1.83473713E-03  1.40373228E-02
  6.88426223E-02  2.32184443E-01  4.67941348E-01  3.62311985E-01 -1.19332420E-01
 -1.60854152E-01  1.14345644E+00  1.00000000E+00  1.00000000E+00  1.83473713E-03
  1.40373228E-02  6.88426223E-02  2.32184443E-01  4.67941348E-01  3.62311985E-01
 -1.19332420E-01 -1.60854152E-01  1.14345644E+00  1.00000000E+00  1.00000000E+00
  1.83473713E-03  1.40373228E-02  6.88426223E-02  2.32184443E-01  4.67941348E-01
  3.62311985E-01 -1.19332420E-01 -1.60854152E-01  1.14345644E+00  1.00000000E+00
  1.00000000E+00  1.83473713E-03  1.40373228E-02  6.88426223E-02  2.32184443E-01
  4.67941348E-01  3.62311985E-01 -1.19332420E-01 -1.60854152E-01  1.14345644E+00
  1.00000000E+00  1.00000000E+00  1.83473713E-03  1.40373228E-02  6.88426223E-02
  2.32184443E-01  4.67941348E-01  3.62311985E-01 -1.19332420E-01 -1.60854152E-01
  1.14345644E+00  1.00000000E+00  1.00000000E+00  1.83473713E-03  1.40373228E-02
  6.88426223E-02  2.32184443E-01  4.67941348E-01  3.62311985E-01 -1.19332420E-01
 -1.60854152E-01  1.14345644E+00  1.00000000E+00  1.00000000E+00  1.83473713E-03
  1.40373228E-02  6.88426223E-02  2.32184443E-01  4.67941348E-01  3.62311985E-01
 -1.19332420E-01 -1.60854152E-01  1.14345644E+00  1.00000000E+00  1.00000000E+00
  1.83473713E-03  1.40373228E-02  6.88426223E-02  2.32184443E-01  4.67941348E-01
  3.62311985E-01 -1.19332420E-01 -1.60854152E-01  1.14345644E+00  1.00000000E+00
  1.00000000E+00  1.83473713E-03  1.40373228E-02  6.88426223E-02  2.32184443E-01
  4.67941348E-01  3.62311985E-01 -1.19332420E-01 -1.60854152E-01  1.14345644E+00
  1.00000000E+00  1.00000000E+00  1.83473713E-03  1.40373228E-02  6.88426223E-02
  2.32184443E-01  4.67941348E-01  3.62311985E-01 -1.19332420E-01 -1.60854152E-01
  1.14345644E+00  1.00000000E+00  1.00000000E+00  1.83473713E-03  1.40373228E-02
  6.88426223E-02  2.32184443E-01  4.67941348E-01  3.62311985E-01 -1.19332420E-01
 -1.60854152E-01  1.14345644E+00  1.00000000E+00  1.00000000E+00  1.83473713E-03
  1.40373228E-02  6.88426223E-02  2.32184443E-01  4.67941348E-01  3.62311985E-01
 -1.19332420E-01 -1.60854152E-01  1.14345644E+00  1.00000000E+00  1.00000000E+00
  3.34946043E-02  2.34726953E-01  8.13757326E-01  1.00000000E+00  3.34946043E-02
  2.34726953E-01  8.13757326E-01  1.00000000E+00  3.34946043E-02  2.34726953E-01
  8.13757326E-01  1.00000000E+00  3.34946043E-02  2.34726953E-01  8.13757326E-01
  1.00000000E+00  3.34946043E-02  2.34726953E-01  8.13757326E-01  1.00000000E+00
  3.34946043E-02  2.34726953E-01  8.13757326E-01  1.00000000E+00  3.34946043E-02
  2.34726953E-01  8.13757326E-01  1.00000000E+00  3.34946043E-02  2.34726953E-01
  8.13757326E-01  1.00000000E+00  3.34946043E-02  2.34726953E-01  8.13757326E-01
  1.00000000E+00  3.34946043E-02  2.34726953E-01  8.13757326E-01  1.00000000E+00
  3.34946043E-02  2.34726953E-01  8.13757326E-01  1.00000000E+00  3.34946043E-02
  2.34726953E-01  8.13757326E-01  1.00000000E+00  3.34946043E-02  2.34726953E-01
  8.13757326E-01  1.00000000E+00  3.34946043E-02  2.34726953E-01  8.13757326E-01
  1.00000000E+00
P(S=P) Contraction coefficients            R   N=         221
  0.00000000E+00  0.00000000E+00  0.00000000E+00  0.00000000E+00  0.00000000E+00
  0.00000000E+00  7.08742682E-02  3.39752839E-01  7.27158577E-01  1.00000000E+00
  0.00000000E+00  0.00000000E+00  0.00000000E+00  0.00000000E+00  0.00000000E+00
  0.00000000E+00  0.00000000E+00  6.89990666E-02  3.16423961E-01  7.44308291E-01
  1.00000000E+00  0.00000000E+00  0.00000000E+00  0.00000000E+00  0.00000000E+00
  0.00000000E+00  0.00000000E+00  0.00000000E+00  6.89990666E-02  3.16423961E-01
  7.44308291E-01  1.00000000E+00  0.00000000E+00  0.00000000E+00  0.00000000E+00
  0.00000000E+00  0.00000000E+00  0.00000000E+00  0.00000000E+00  6.89990666E-02
  3.16423961E-01  7.44308291E-01  1.00000000E+00  0.00000000E+00  0.00000000E+00
  0.00000000E+00  0.00000000E+00  0.00000000E+00  0.00000000E+00  0.00000000E+00
  6.89990666E-02  3.16423961E-01  7.44308291E-01  1.00000000E+00  0.00000000E+00
  0.00000000E+00  0.00000000E+00  0.00000000E+00  0.00000000E+00  0.00000000E+00
  0.00000000E+00  6.89990666E-02  3.16423961E-01  7.44308291E-01  1.00000000E+00
  0.00000000E+00  0.00000000E+00  0.00000000E+00  0.00000000E+00  0.00000000E+00
  0.00000000E+00  0.00000000E+00  6.89990666E-02  3.16423961E-01  7.44308291E-01
  1.00000000E+00  0.00000000E+00  0.00000000E+00  0.00000000E+00  0.00000000E+00
  0.00000000E+00  0.00000000E+00  0.00000000E+00  6.89990666E-02  3.16423961E-01
  7.44308291E-01  1.00000000E+00  0.00000000E+00  0.00000000E+00  0.00000000E+00
  0.00000000E+00  0.00000000E+00  0.00000000E+00  0.00000000E+00  6.89990666E-02
  3.16423961E-01  7.44308291E-01  1.00000000E+00  0.00000000E+00  0.00000000E+00
  0.00000000E+00  0.00000000E+00  0.00000000E+00  0.00000000E+00  0.00000000E+00
  6.89990666E-02  3.16423961E-01  7.44308291E-01  1.00000000E+00  0.00000000E+00
  0.00000000E+00  0.00000000E+00  0.00000000E+00  0.00000000E+00  0.00000000E+00
  0.00000000E+00  6.89990666E-02  3.16423961E-01  7.44308291E-01  1.00000000E+00
  0.00000000E+00  0.00000000E+00  0.00000000E+00  0.00000000E+00  0.00000000E+00
  0.00000000E+00  0.00000000E+00  6.89990666E-02  3.16423961E-01  7.44308291E-01
  1.00000000E+00  0.00000000E+00  0.00000000E+00  0.00000000E+00  0.00000000E+00
  0.00000000E+00  0.00000000E+00  0.00000000E+00  6.89990666E-02  3.16423961E-01
  7.44308291E-01  1.00000000E+00  0.00000000E+00  0.00000000E+00  0.00000000E+00
  0.00000000E+00  0.00000000E+00  0.00000000E+00  0.00000000E+00  6.89990666E-02
  3.16423961E-01  7.44308291E-01  1.00000000E+00  0.00000000E+00  0.00000000E+00
  0.00000000E+00  0.00000000E+00  0.00000000E+00  0.00000000E+00  0.00000000E+00
  6.89990666E-02  3.16423961E-01  7.44308291E-01  1.00000000E+00  0.00000000E+00
  0.00000000E+00  0.00000000E+00  0.00000000E+00  0.00000000E+00  0.00000000E+00
  0.00000000E+00  0.00000000E+00  0.00000000E+00  0.00000000E+00  0.00000000E+00
  0.00000000E+00  0.00000000E+00  0.00000000E+00  0.00000000E+00  0.00000000E+00
  0.00000000E+00  0.00000000E+00  0.00000000E+00  0.00000000E+00  0.00000000E+00
  0.00000000E+00  0.00000000E+00  0.00000000E+00  0.00000000E+00  0.00000000E+00
  0.00000000E+00  0.00000000E+00  0.00000000E+00  0.00000000E+00  0.00000000E+00
  0.00000000E+00  0.00000000E+00  0.00000000E+00  0.00000000E+00  0.00000000E+00
  0.00000000E+00  0.00000000E+00  0.00000000E+00  0.00000000E+00  0.00000000E+00
  0.00000000E+00  0.00000000E+00  0.00000000E+00  0.00000000E+00  0.00000000E+00
  0.00000000E+00  0.00000000E+00  0.00000000E+00  0.00000000E+00  0.00000000E+00
  0.00000000E+00  0.00000000E+00  0.00000000E+00  0.00000000E+00  0.00000000E+00
  0.00000000E+00
Coordinates of each shell                  R   N=         264
  1.63563589E+00 -4.50388212E-01 -3.73957126E-01  1.63563589E+00 -4.50388212E-01
 -3.73957126E-01  1.63563589E+00 -4.50388212E-01 -3.73957126E-01  1.63563589E+00
 -4.50388212E-01 -3.73957126E-01 -2.55725727E+00  9.16723510E-01  3.13594545E-01
 -2.55725727E+00  9.16723510E-01  3.13594545E-01 -2.55725727E+00  9.16723510E-01
  3.13594545E-01 -2.55725727E+00  9.16723510E-01  3.13594545E-01  1.74498955E-01
  1.62518285E+00  5.67716201E-01  1.74498955E-01  1.62518285E+00  5.67716201E-01
  1.74498955E-01  1.62518285E+00  5.67716201E-01  1.74498955E-01  1.62518285E+00
  5.67716201E-01 -7.70256136E+00 -4.39620285E-01 -9.11445073E-02 -7.70256136E+00
 -4.39620285E-01 -9.11445073E-02 -7.70256136E+00 -4.39620285E-01 -9.11445073E-02
 -7.70256136E+00 -4.39620285E-01 -9.11445073E-02 -3.45681511E+00 -1.29359424E+00
  1.45765784E+00 -3.45681511E+00 -1.29359424E+00  1.45765784E+00 -3.45681511E+00
 -1.29359424E+00  1.45765784E+00 -3.45681511E+00 -1.29359424E+00  1.45765784E+00
 -4.24226909E+00  2.43331828E+00 -1.03877978E+00 -4.24226909E+00  2.43331828E+00
 -1.03877978E+00 -4.24226909E+00  2.43331828E+00 -1.03877978E+00 -4.24226909E+00
  2.43331828E+00 -1.03877978E+00 -5.99445185E+00 -1.95887704E+00  1.25046950E+00
 -5.99445185E+00 -1.95887704E+00  1.25046950E+00 -5.99445185E+00 -1.95887704E+00
  1.25046950E+00 -5.99445185E+00 -1.95887704E+00  1.25046950E+00 -6.78833716E+00
  1.76698389E+00 -1.22516610E+00 -6.78833716E+00  1.76698389E+00 -1.22516610E+00
 -6.78833716E+00  1.76698389E+00 -1.22516610E+00 -6.78833716E+00  1.76698389E+00
 -1.22516610E+00  4.21795765E+00 -2.42303562E-01 -1.97688076E-01  4.21795765E+00
 -2.42303562E-01 -1.97688076E-01  4.21795765E+00 -2.42303562E-01 -1.97688076E-01
  4.21795765E+00 -2.42303562E-01 -1.97688076E-01 -1.04606611E+01 -1.13090325E+00
 -2.37578411E-01 -1.04606611E+01 -1.13090325E+00 -2.37578411E-01 -1.04606611E+01
 -1.13090325E+00 -2.37578411E-01 -1.04606611E+01 -1.13090325E+00 -2.37578411E-01
  5.50681377E+00  1.87804286E+00  7.15000587E-01  5.50681377E+00  1.87804286E+00
  7.15000587E-01  5.50681377E+00  1.87804286E+00  7.15000587E-01  5.50681377E+00
  1.87804286E+00  7.15000587E-01  5.56943704E+00 -2.36378714E+00 -1.02793422E+00
  5.56943704E+00 -2.36378714E+00 -1.02793422E+00  5.56943704E+00 -2.36378714E+00
 -1.02793422E+00  5.56943704E+00 -2.36378714E+00 -1.02793422E+00  8.15080551E+00
  1.84687012E+00  7.90579478E-01  8.15080551E+00  1.84687012E+00  7.90579478E-01
  8.15080551E+00  1.84687012E+00  7.90579478E-01  8.15080551E+00  1.84687012E+00
  7.90579478E-01  8.19590146E+00 -2.36384078E+00 -9.43208239E-01  8.19590146E+00
 -2.36384078E+00 -9.43208239E-01  8.19590146E+00 -2.36384078E+00 -9.43208239E-01
  8.19590146E+00 -2.36384078E+00 -9.43208239E-01  9.50549595E+00 -2.55836510E-01
 -2.93065883E-02  9.50549595E+00 -2.55836510E-01 -2.93065883E-02  9.50549595E+00
 -2.55836510E-01 -2.93065883E-02  9.50549595E+00 -2.55836510E-01 -2.93065883E-02
  5.86462457E-01  3.35060429E+00 -5.11925607E-01  5.86462457E-01  3.35060429E+00
 -5.11925607E-01  6.71051645E-01  1.97278924E+00  2.55553800E+00  6.71051645E-01
  1.97278924E+00  2.55553800E+00 -2.14944592E+00 -2.50472105E+00  2.48299382E+00
 -2.14944592E+00 -2.50472105E+00  2.48299382E+00 -3.56313443E+00  4.14160564E+00
 -1.96339957E+00 -3.56313443E+00  4.14160564E+00 -1.96339957E+00 -6.66452026E+00
 -3.69113446E+00  2.13701273E+00 -6.66452026E+00 -3.69113446E+00  2.13701273E+00
 -8.07543573E+00  2.96591073E+00 -2.29291799E+00 -8.07543573E+00  2.96591073E+00
 -2.29291799E+00 -1.13456786E+01 -3.05746614E-01 -1.91292173E+00 -1.13456786E+01
 -3.05746614E-01 -1.91292173E+00 -1.07098310E+01 -3.18104299E+00 -3.23904000E-01
 -1.07098310E+01 -3.18104299E+00 -3.23904000E-01 -1.14917808E+01 -4.44686015E-01
  1.42133861E+00 -1.14917808E+01 -4.44686015E-01  1.42133861E+00  4.50264441E+00
  3.54589939E+00  1.35609576E+00  4.50264441E+00  3.54589939E+00  1.35609576E+00
  4.51256605E+00 -3.97865056E+00 -1.72918560E+00  4.51256605E+00 -3.97865056E+00
 -1.72918560E+00  9.14609839E+00  3.49865767E+00  1.50152122E+00  9.14609839E+00
  3.49865767E+00  1.50152122E+00  9.22668512E+00 -4.01917919E+00 -1.59164124E+00
  9.22668512E+00 -4.01917919E+00 -1.59164124E+00  1.15578873E+01 -2.57352590E-01
  3.77792276E-02  1.15578873E+01 -2.57352590E-01  3.77792276E-02
Constraint Structure                       R   N=          87
  1.63563589E+00 -4.50388212E-01 -3.73957126E-01 -2.55725727E+00  9.16723510E-01
  3.13594545E-01  1.74498955E-01  1.62518285E+00  5.67716201E-01 -7.70256136E+00
 -4.39620285E-01 -9.11445073E-02 -3.45681511E+00 -1.29359424E+00  1.45765784E+00
 -4.24226909E+00  2.43331828E+00 -1.03877978E+00 -5.99445185E+00 -1.95887704E+00
  1.25046950E+00 -6.78833716E+00  1.76698389E+00 -1.22516610E+00  4.21795765E+00
 -2.42303562E-01 -1.97688076E-01 -1.04606611E+01 -1.13090325E+00 -2.37578411E-01
  5.50681377E+00  1.87804286E+00  7.15000587E-01  5.56943704E+00 -2.36378714E+00
 -1.02793422E+00  8.15080551E+00  1.84687012E+00  7.90579478E-01  8.19590146E+00
 -2.36384078E+00 -9.43208239E-01  9.50549595E+00 -2.55836510E-01 -2.93065883E-02
  5.86462457E-01  3.35060429E+00 -5.11925607E-01  6.71051645E-01  1.97278924E+00
  2.55553800E+00 -2.14944592E+00 -2.50472105E+00  2.48299382E+00 -3.56313443E+00
  4.14160564E+00 -1.96339957E+00 -6.66452026E+00 -3.69113446E+00  2.13701273E+00
 -8.07543573E+00  2.96591073E+00 -2.29291799E+00 -1.13456786E+01 -3.05746614E-01
 -1.91292173E+00 -1.07098310E+01 -3.18104299E+00 -3.23904000E-01 -1.14917808E+01
 -4.44686015E-01  1.42133861E+00  4.50264441E+00  3.54589939E+00  1.35609576E+00
  4.51256605E+00 -3.97865056E+00 -1.72918560E+00  9.14609839E+00  3.49865767E+00
  1.50152122E+00  9.22668512E+00 -4.01917919E+00 -1.59164124E+00  1.15578873E+01
 -2.57352590E-01  3.77792276E-02
Num ILSW                                   I              100
ILSW                                       I   N=         100
           0           1           0           0           2           0
           0           0           0           0           0          -1
           0           0           0           0           0           0
           0           0           0           0           1           0
           1           0           0           0           0           0
           0           0      100000           0          -1           0
           0           0           0           0           0           0
           0           0           0           1           1           0
           0           0           1           0           0           0
           0           0           4          40           0           0