
    -----------------------------------------------------------------------
          Psi4: An Open-Source Ab Initio Electronic Structure Package
                               Psi4 1.4a3.dev225 

                         Git: Rev {master} 7105e37 


    D. G. A. Smith, L. A. Burns, A. C. Simmonett, R. M. Parrish,
    M. C. Schieber, R. Galvelis, P. Kraus, H. Kruse, R. Di Remigio,
    A. Alenaizan, A. M. James, S. Lehtola, J. P. Misiewicz, M. Scheurer,
    R. A. Shaw, J. B. Schriber, Y. Xie, Z. L. Glick, D. A. Sirianni,
    J. S. O'Brien, J. M. Waldrop, A. Kumar, E. G. Hohenstein,
    B. P. Pritchard, B. R. Brooks, H. F. Schaefer III, A. Yu. Sokolov,
    K. Patkowski, A. E. DePrince III, U. Bozkaya, R. A. King,
    F. A. Evangelista, J. M. Turney, T. D. Crawford, C. D. Sherrill,
    J. Chem. Phys. 152(18) 184108 (2020). https://doi.org/10.1063/5.0006002

                            Additional Code Authors
    E. T. Seidl, C. L. Janssen, E. F. Valeev, M. L. Leininger,
    J. F. Gonthier, R. M. Richard, H. R. McAlexander, M. Saitow, X. Wang,
    P. Verma, and M. H. Lechner

             Previous Authors, Complete List of Code Contributors,
                       and Citations for Specific Modules
    https://github.com/psi4/psi4/blob/master/codemeta.json
    https://github.com/psi4/psi4/graphs/contributors
    http://psicode.org/psi4manual/master/introduction.html#citing-psifour

    -----------------------------------------------------------------------


    Psi4 started on: Sunday, 07 March 2021 06:04AM

    Process ID: 50881
    Host:       c459-032.stampede2.tacc.utexas.edu
    PSIDATADIR: /home1/07844/xy3866/miniconda3/envs/p4env/share/psi4
    Memory:     500.0 MiB
    Threads:    32
    
  ==> Input File <==

--------------------------------------------------------------------------
#psi4
#
memory 32 gb

molecule  {
0 1
  S       -0.8053760     1.6060500    -0.1399530
  O        2.1464270     1.2641370     0.3857660
  N        2.2049820    -0.9697390    -0.1110850
  C       -2.1349788    -0.5808080     0.0204135
  C        0.0782130     0.1386370     0.0349560
  C       -0.7695060    -0.9522330     0.1212440
  C       -2.2969850     0.7606620    -0.1265510
  C        1.5543500     0.2131940     0.1149440
  C       -3.2736380    -1.5890470     0.0915590
  C        3.6575090    -0.9906510    -0.1565210
  H       -0.4188890    -1.9677560     0.2899290
  H       -3.2284760     1.3059560    -0.2284190
  H       -3.2707310    -2.1282860     1.0440440
  H       -4.2368380    -1.0812090    -0.0045560
  H       -3.2021610    -2.3307440    -0.7101950
  H        1.7010110    -1.6882330    -0.6139760
  H        4.0494680    -0.5484410    -1.0790020
  H        3.9975300    -2.0243190    -0.0750760
  H        4.0378180    -0.4153140     0.6868970
units angstrom
no_reorient  #important for SAPT in psi4, default
symmetry c1  #important for SAPT in psi4, default
}

set PROPERTIES_ORIGIN ["COM"]
properties('MP2/aug-cc-pvtz', properties = ['dipole'])
--------------------------------------------------------------------------

  Memory set to  29.802 GiB by Python driver.
    SCF Algorithm Type (re)set to DF.

*** tstart() called on c459-032.stampede2.tacc.utexas.edu
*** at Sun Mar  7 06:05:02 2021

   => Loading Basis Set <=

    Name: AUG-CC-PVTZ
    Role: ORBITAL
    Keyword: BASIS
    atoms 1     entry S          line   906 file /home1/07844/xy3866/miniconda3/envs/p4env/share/psi4/basis/aug-cc-pvtz.gbs 
    atoms 2     entry O          line   331 file /home1/07844/xy3866/miniconda3/envs/p4env/share/psi4/basis/aug-cc-pvtz.gbs 
    atoms 3     entry N          line   285 file /home1/07844/xy3866/miniconda3/envs/p4env/share/psi4/basis/aug-cc-pvtz.gbs 
    atoms 4-10  entry C          line   239 file /home1/07844/xy3866/miniconda3/envs/p4env/share/psi4/basis/aug-cc-pvtz.gbs 
    atoms 11-19 entry H          line    40 file /home1/07844/xy3866/miniconda3/envs/p4env/share/psi4/basis/aug-cc-pvtz.gbs 


         ---------------------------------------------------------
                                   SCF
               by Justin Turney, Rob Parrish, Andy Simmonett
                          and Daniel G. A. Smith
                              RHF Reference
                       32 Threads,  30517 MiB Core
         ---------------------------------------------------------

  ==> Geometry <==

    Molecular point group: c1
    Full point group: C1

    Geometry (in Angstrom), charge = 0, multiplicity = 1:

       Center              X                  Y                   Z               Mass       
    ------------   -----------------  -----------------  -----------------  -----------------
         S           -0.809650600544     1.534953989847    -0.144112903380    31.972071174400
         O            2.142152399456     1.193040989847     0.381606096620    15.994914619570
         N            2.200707399456    -1.040835010153    -0.115244903380    14.003074004430
         C           -2.139253400544    -0.651904010153     0.016253596620    12.000000000000
         C            0.073938399456     0.067540989847     0.030796096620    12.000000000000
         C           -0.773780600544    -1.023329010153     0.117084096620    12.000000000000
         C           -2.301259600544     0.689565989847    -0.130710903380    12.000000000000
         C            1.550075399456     0.142097989847     0.110784096620    12.000000000000
         C           -3.277912600544    -1.660143010153     0.087399096620    12.000000000000
         C            3.653234399456    -1.061747010153    -0.160680903380    12.000000000000
         H           -0.423163600544    -2.038852010153     0.285769096620     1.007825032230
         H           -3.232750600544     1.234859989847    -0.232578903380     1.007825032230
         H           -3.275005600544    -2.199382010153     1.039884096620     1.007825032230
         H           -4.241112600544    -1.152305010153    -0.008715903380     1.007825032230
         H           -3.206435600544    -2.401840010153    -0.714354903380     1.007825032230
         H            1.696736399456    -1.759329010153    -0.618135903380     1.007825032230
         H            4.045193399456    -0.619537010153    -1.083161903380     1.007825032230
         H            3.993255399456    -2.095415010153    -0.079235903380     1.007825032230
         H            4.033543399456    -0.486410010153     0.682737096620     1.007825032230

  Running in c1 symmetry.

  Rotational constants: A =      0.07757  B =      0.02356  C =      0.01838 [cm^-1]
  Rotational constants: A =   2325.36108  B =    706.24289  C =    551.02401 [MHz]
  Nuclear repulsion =  588.231621933334623

  Charge       = 0
  Multiplicity = 1
  Electrons    = 82
  Nalpha       = 41
  Nbeta        = 41

  ==> Algorithm <==

  SCF Algorithm Type is DF.
  DIIS enabled.
  MOM disabled.
  Fractional occupation disabled.
  Guess Type is SAD.
  Energy threshold   = 1.00e-10
  Density threshold  = 1.00e-10
  Integral threshold = 1.00e-12

  ==> Primary Basis <==

  Basis Set: AUG-CC-PVTZ
    Blend: AUG-CC-PVTZ
    Number of shells: 223
    Number of basis functions: 671
    Number of Cartesian functions: 779
    Spherical Harmonics?: true
    Max angular momentum: 3

   => Loading Basis Set <=

    Name: (AUG-CC-PVTZ AUX)
    Role: JKFIT
    Keyword: DF_BASIS_SCF
    atoms 1     entry S          line   730 file /home1/07844/xy3866/miniconda3/envs/p4env/share/psi4/basis/aug-cc-pvtz-jkfit.gbs 
    atoms 2     entry O          line   286 file /home1/07844/xy3866/miniconda3/envs/p4env/share/psi4/basis/aug-cc-pvtz-jkfit.gbs 
    atoms 3     entry N          line   224 file /home1/07844/xy3866/miniconda3/envs/p4env/share/psi4/basis/aug-cc-pvtz-jkfit.gbs 
    atoms 4-10  entry C          line   162 file /home1/07844/xy3866/miniconda3/envs/p4env/share/psi4/basis/aug-cc-pvtz-jkfit.gbs 
    atoms 11-19 entry H          line    70 file /home1/07844/xy3866/miniconda3/envs/p4env/share/psi4/basis/aug-cc-pvtz-jkfit.gbs 

  ==> Integral Setup <==

  DFHelper Memory: AOs need 4.556 GiB; user supplied 22.352 GiB. Using in-core AOs.

  ==> MemDFJK: Density-Fitted J/K Matrices <==

    J tasked:                   Yes
    K tasked:                   Yes
    wK tasked:                   No
    OpenMP threads:              32
    Memory [MiB]:             22888
    Algorithm:                 Core
    Schwarz Cutoff:           1E-12
    Mask sparsity (%):      13.4994
    Fitting Condition:        1E-10

   => Auxiliary Basis Set <=

  Basis Set: (AUG-CC-PVTZ AUX)
    Blend: AUG-CC-PVTZ-JKFIT
    Number of shells: 438
    Number of basis functions: 1496
    Number of Cartesian functions: 1854
    Spherical Harmonics?: true
    Max angular momentum: 4

  Minimum eigenvalue in the overlap matrix is 2.2912494049E-06.
  Reciprocal condition number of the overlap matrix is 1.3118704089E-07.
    Using symmetric orthogonalization.

  ==> Pre-Iterations <==

  SCF Guess: Superposition of Atomic Densities via on-the-fly atomic UHF (no occupation information).

   -------------------------
    Irrep   Nso     Nmo    
   -------------------------
     A        671     671 
   -------------------------
    Total     671     671
   -------------------------

  ==> Iterations <==

                           Total Energy        Delta E     RMS |[F,P]|

   @DF-RHF iter SAD:  -796.78640457645770   -7.96786e+02   0.00000e+00 
   @DF-RHF iter   1:  -796.97446012325145   -1.88056e-01   1.16718e-03 DIIS
   @DF-RHF iter   2:  -797.21076467572209   -2.36305e-01   7.22983e-04 DIIS
   @DF-RHF iter   3:  -797.31226224304385   -1.01498e-01   1.35563e-04 DIIS
   @DF-RHF iter   4:  -797.31850517786734   -6.24293e-03   5.63533e-05 DIIS
   @DF-RHF iter   5:  -797.31967447511977   -1.16930e-03   1.72550e-05 DIIS
   @DF-RHF iter   6:  -797.31987143040305   -1.96955e-04   8.61871e-06 DIIS
   @DF-RHF iter   7:  -797.31993972073747   -6.82903e-05   4.11298e-06 DIIS
   @DF-RHF iter   8:  -797.31995604747590   -1.63267e-05   1.46803e-06 DIIS
   @DF-RHF iter   9:  -797.31995797456511   -1.92709e-06   4.64632e-07 DIIS
   @DF-RHF iter  10:  -797.31995813907622   -1.64511e-07   1.63391e-07 DIIS
   @DF-RHF iter  11:  -797.31995815546099   -1.63848e-08   7.33629e-08 DIIS
   @DF-RHF iter  12:  -797.31995815791743   -2.45643e-09   2.55360e-08 DIIS
   @DF-RHF iter  13:  -797.31995815846187   -5.44446e-10   7.95306e-09 DIIS
   @DF-RHF iter  14:  -797.31995815851701   -5.51381e-11   3.75112e-09 DIIS
   @DF-RHF iter  15:  -797.31995815852872   -1.17097e-11   1.69853e-09 DIIS
   @DF-RHF iter  16:  -797.31995815853099   -2.27374e-12   8.89389e-10 DIIS
   @DF-RHF iter  17:  -797.31995815852974    1.25056e-12   3.40910e-10 DIIS
   @DF-RHF iter  18:  -797.31995815853190   -2.16005e-12   1.42688e-10 DIIS
   @DF-RHF iter  19:  -797.31995815853088    1.02318e-12   5.91612e-11 DIIS
  Energy and wave function converged.


  ==> Post-Iterations <==

    Orbital Energies [Eh]
    ---------------------

    Doubly Occupied:                                                      

       1A    -91.989021     2A    -20.522273     3A    -15.589739  
       4A    -11.361083     5A    -11.275495     6A    -11.266262  
       7A    -11.260883     8A    -11.257111     9A    -11.252129  
      10A    -11.238812    11A     -8.988938    12A     -6.669811  
      13A     -6.669268    14A     -6.668526    15A     -1.376666  
      16A     -1.232102    17A     -1.185973    18A     -1.044399  
      19A     -1.007636    20A     -0.953815    21A     -0.923498  
      22A     -0.830416    23A     -0.769222    24A     -0.750320  
      25A     -0.707835    26A     -0.644441    27A     -0.628777  
      28A     -0.620558    29A     -0.594268    30A     -0.589445  
      31A     -0.568666    32A     -0.551834    33A     -0.549161  
      34A     -0.535052    35A     -0.521763    36A     -0.502058  
      37A     -0.477267    38A     -0.434539    39A     -0.399085  
      40A     -0.347822    41A     -0.331588  

    Virtual:                                                              

      42A      0.021391    43A      0.028418    44A      0.035416  
      45A      0.038149    46A      0.043741    47A      0.049394  
      48A      0.053786    49A      0.064051    50A      0.068256  
      51A      0.075057    52A      0.081815    53A      0.085327  
      54A      0.095680    55A      0.098789    56A      0.110013  
      57A      0.110858    58A      0.112859    59A      0.114091  
      60A      0.121330    61A      0.125083    62A      0.128316  
      63A      0.135578    64A      0.137153    65A      0.139250  
      66A      0.140961    67A      0.144611    68A      0.150107  
      69A      0.154587    70A      0.159225    71A      0.162719  
      72A      0.171214    73A      0.178396    74A      0.182389  
      75A      0.187346    76A      0.188956    77A      0.193581  
      78A      0.200726    79A      0.205690    80A      0.216736  
      81A      0.223587    82A      0.227466    83A      0.232810  
      84A      0.237193    85A      0.241055    86A      0.244321  
      87A      0.251417    88A      0.254262    89A      0.260051  
      90A      0.269006    91A      0.271189    92A      0.272696  
      93A      0.279325    94A      0.286725    95A      0.289701  
      96A      0.294105    97A      0.304707    98A      0.307956  
      99A      0.310154   100A      0.317004   101A      0.320298  
     102A      0.322343   103A      0.322876   104A      0.338913  
     105A      0.342563   106A      0.346207   107A      0.350317  
     108A      0.353366   109A      0.355352   110A      0.357824  
     111A      0.367456   112A      0.370090   113A      0.373870  
     114A      0.386516   115A      0.387763   116A      0.396146  
     117A      0.399242   118A      0.400542   119A      0.403441  
     120A      0.411386   121A      0.411792   122A      0.417164  
     123A      0.418733   124A      0.423605   125A      0.427947  
     126A      0.439069   127A      0.439577   128A      0.442897  
     129A      0.450002   130A      0.454723   131A      0.456211  
     132A      0.462983   133A      0.470257   134A      0.472654  
     135A      0.475058   136A      0.480400   137A      0.482619  
     138A      0.488581   139A      0.490094   140A      0.494543  
     141A      0.498838   142A      0.503492   143A      0.505879  
     144A      0.510951   145A      0.516064   146A      0.525492  
     147A      0.530362   148A      0.532498   149A      0.538420  
     150A      0.540892   151A      0.546048   152A      0.547950  
     153A      0.553258   154A      0.557375   155A      0.562704  
     156A      0.575138   157A      0.579056   158A      0.582641  
     159A      0.589841   160A      0.592560   161A      0.595054  
     162A      0.601984   163A      0.614415   164A      0.614974  
     165A      0.627433   166A      0.635412   167A      0.644275  
     168A      0.644846   169A      0.656630   170A      0.661494  
     171A      0.677079   172A      0.680967   173A      0.688679  
     174A      0.693730   175A      0.696915   176A      0.717804  
     177A      0.724114   178A      0.735596   179A      0.742786  
     180A      0.752837   181A      0.756837   182A      0.761600  
     183A      0.772953   184A      0.779988   185A      0.801040  
     186A      0.804137   187A      0.806968   188A      0.809364  
     189A      0.821238   190A      0.826389   191A      0.830535  
     192A      0.841680   193A      0.845858   194A      0.850879  
     195A      0.854231   196A      0.860646   197A      0.863461  
     198A      0.864902   199A      0.878289   200A      0.882620  
     201A      0.885963   202A      0.892040   203A      0.902633  
     204A      0.904348   205A      0.908836   206A      0.914923  
     207A      0.920760   208A      0.926762   209A      0.928278  
     210A      0.929677   211A      0.933399   212A      0.940631  
     213A      0.950154   214A      0.951047   215A      0.960385  
     216A      0.969204   217A      0.975627   218A      0.980404  
     219A      0.981906   220A      0.985644   221A      0.989457  
     222A      0.995352   223A      0.997884   224A      1.001817  
     225A      1.012573   226A      1.019428   227A      1.027817  
     228A      1.030677   229A      1.032550   230A      1.037914  
     231A      1.047921   232A      1.049311   233A      1.059952  
     234A      1.063393   235A      1.067356   236A      1.069203  
     237A      1.076683   238A      1.082783   239A      1.085662  
     240A      1.087074   241A      1.089083   242A      1.094564  
     243A      1.107580   244A      1.113804   245A      1.119682  
     246A      1.124398   247A      1.132162   248A      1.137389  
     249A      1.139509   250A      1.143308   251A      1.152872  
     252A      1.158206   253A      1.165141   254A      1.170299  
     255A      1.176874   256A      1.186272   257A      1.188616  
     258A      1.198120   259A      1.200519   260A      1.205092  
     261A      1.210382   262A      1.211766   263A      1.219892  
     264A      1.230889   265A      1.234992   266A      1.241162  
     267A      1.246440   268A      1.250750   269A      1.266217  
     270A      1.275378   271A      1.277169   272A      1.288335  
     273A      1.291927   274A      1.308443   275A      1.313348  
     276A      1.325741   277A      1.333012   278A      1.333215  
     279A      1.340970   280A      1.345953   281A      1.351488  
     282A      1.363440   283A      1.374433   284A      1.391576  
     285A      1.396233   286A      1.401515   287A      1.414403  
     288A      1.419514   289A      1.430532   290A      1.436471  
     291A      1.448808   292A      1.454308   293A      1.466149  
     294A      1.476706   295A      1.484043   296A      1.484748  
     297A      1.495715   298A      1.498335   299A      1.505425  
     300A      1.520551   301A      1.531241   302A      1.537982  
     303A      1.552247   304A      1.553482   305A      1.565285  
     306A      1.570963   307A      1.586759   308A      1.590597  
     309A      1.603374   310A      1.607321   311A      1.608055  
     312A      1.617150   313A      1.628180   314A      1.641041  
     315A      1.645815   316A      1.653221   317A      1.660656  
     318A      1.668890   319A      1.673819   320A      1.687567  
     321A      1.691043   322A      1.695564   323A      1.703918  
     324A      1.716063   325A      1.725851   326A      1.730873  
     327A      1.733270   328A      1.751441   329A      1.754556  
     330A      1.759907   331A      1.776133   332A      1.789741  
     333A      1.797506   334A      1.803701   335A      1.809205  
     336A      1.820058   337A      1.842074   338A      1.847236  
     339A      1.850962   340A      1.862768   341A      1.876075  
     342A      1.881472   343A      1.886222   344A      1.901894  
     345A      1.919957   346A      1.924789   347A      1.932825  
     348A      1.938334   349A      1.945938   350A      1.957825  
     351A      1.966931   352A      1.979621   353A      1.986196  
     354A      2.001752   355A      2.006709   356A      2.012310  
     357A      2.028178   358A      2.042552   359A      2.058203  
     360A      2.062111   361A      2.074306   362A      2.078967  
     363A      2.080212   364A      2.089927   365A      2.103465  
     366A      2.118395   367A      2.128568   368A      2.135061  
     369A      2.153647   370A      2.171163   371A      2.179223  
     372A      2.183659   373A      2.193767   374A      2.199713  
     375A      2.206100   376A      2.220247   377A      2.224959  
     378A      2.230343   379A      2.236157   380A      2.239456  
     381A      2.244569   382A      2.267977   383A      2.284738  
     384A      2.292735   385A      2.305118   386A      2.307512  
     387A      2.334377   388A      2.339881   389A      2.355581  
     390A      2.368524   391A      2.380468   392A      2.389401  
     393A      2.406392   394A      2.416284   395A      2.420529  
     396A      2.445385   397A      2.455097   398A      2.456093  
     399A      2.464411   400A      2.472669   401A      2.494776  
     402A      2.505909   403A      2.512284   404A      2.520846  
     405A      2.543836   406A      2.564041   407A      2.573144  
     408A      2.588286   409A      2.596064   410A      2.616857  
     411A      2.620024   412A      2.639695   413A      2.646584  
     414A      2.664131   415A      2.684527   416A      2.688285  
     417A      2.709790   418A      2.730711   419A      2.737200  
     420A      2.761889   421A      2.779611   422A      2.793228  
     423A      2.848846   424A      2.850941   425A      2.864976  
     426A      2.889135   427A      2.906226   428A      2.915431  
     429A      2.949486   430A      2.983145   431A      3.024324  
     432A      3.042692   433A      3.049953   434A      3.062406  
     435A      3.100546   436A      3.103195   437A      3.139465  
     438A      3.187914   439A      3.210464   440A      3.228045  
     441A      3.244460   442A      3.262764   443A      3.272050  
     444A      3.289657   445A      3.314617   446A      3.333218  
     447A      3.356379   448A      3.365460   449A      3.371033  
     450A      3.378076   451A      3.397317   452A      3.399970  
     453A      3.424157   454A      3.430932   455A      3.442596  
     456A      3.463423   457A      3.477678   458A      3.490608  
     459A      3.505400   460A      3.515639   461A      3.540734  
     462A      3.553580   463A      3.560441   464A      3.573825  
     465A      3.587477   466A      3.603428   467A      3.606544  
     468A      3.623726   469A      3.642963   470A      3.649238  
     471A      3.660132   472A      3.667991   473A      3.676262  
     474A      3.686049   475A      3.703055   476A      3.726450  
     477A      3.729573   478A      3.741751   479A      3.745471  
     480A      3.751298   481A      3.768369   482A      3.779295  
     483A      3.784671   484A      3.797408   485A      3.801837  
     486A      3.810758   487A      3.830772   488A      3.847184  
     489A      3.852897   490A      3.866972   491A      3.882906  
     492A      3.888042   493A      3.903312   494A      3.919990  
     495A      3.936375   496A      3.941502   497A      3.943141  
     498A      3.953414   499A      3.955260   500A      3.972701  
     501A      3.987194   502A      3.993970   503A      4.015795  
     504A      4.023469   505A      4.036020   506A      4.040846  
     507A      4.057239   508A      4.062157   509A      4.081081  
     510A      4.095282   511A      4.096242   512A      4.109341  
     513A      4.119203   514A      4.129068   515A      4.136367  
     516A      4.139227   517A      4.146485   518A      4.159740  
     519A      4.171730   520A      4.180692   521A      4.184540  
     522A      4.215644   523A      4.229681   524A      4.238023  
     525A      4.244906   526A      4.253273   527A      4.268611  
     528A      4.285190   529A      4.296560   530A      4.311770  
     531A      4.326227   532A      4.340816   533A      4.345610  
     534A      4.355504   535A      4.374236   536A      4.396409  
     537A      4.408301   538A      4.426869   539A      4.434432  
     540A      4.460273   541A      4.472829   542A      4.483756  
     543A      4.497836   544A      4.520829   545A      4.530311  
     546A      4.540800   547A      4.557071   548A      4.570101  
     549A      4.575882   550A      4.608369   551A      4.614803  
     552A      4.631154   553A      4.643430   554A      4.651452  
     555A      4.660781   556A      4.673547   557A      4.702210  
     558A      4.711211   559A      4.727941   560A      4.734424  
     561A      4.755955   562A      4.771763   563A      4.799883  
     564A      4.808367   565A      4.824040   566A      4.829169  
     567A      4.842312   568A      4.858211   569A      4.878219  
     570A      4.891289   571A      4.900949   572A      4.915327  
     573A      4.944727   574A      4.975256   575A      4.984487  
     576A      4.999648   577A      5.014060   578A      5.025831  
     579A      5.041014   580A      5.053190   581A      5.063069  
     582A      5.076979   583A      5.088679   584A      5.108796  
     585A      5.117438   586A      5.139516   587A      5.178503  
     588A      5.184584   589A      5.208250   590A      5.215688  
     591A      5.231681   592A      5.262171   593A      5.274383  
     594A      5.282950   595A      5.300729   596A      5.336899  
     597A      5.349479   598A      5.387918   599A      5.408630  
     600A      5.419811   601A      5.445637   602A      5.464559  
     603A      5.486796   604A      5.532342   605A      5.536393  
     606A      5.573993   607A      5.580898   608A      5.591533  
     609A      5.607641   610A      5.630706   611A      5.678440  
     612A      5.683192   613A      5.721344   614A      5.748416  
     615A      5.771728   616A      5.792966   617A      5.816570  
     618A      5.824323   619A      5.837761   620A      5.887973  
     621A      5.915040   622A      5.983281   623A      6.020565  
     624A      6.065457   625A      6.095261   626A      6.108728  
     627A      6.153975   628A      6.159982   629A      6.163406  
     630A      6.202159   631A      6.204879   632A      6.239115  
     633A      6.260689   634A      6.338790   635A      6.383785  
     636A      6.467861   637A      6.507992   638A      6.589665  
     639A      6.686539   640A      6.736489   641A      6.747043  
     642A      6.756589   643A      6.765590   644A      6.775229  
     645A      6.800341   646A      6.816769   647A      6.834464  
     648A      6.877007   649A      6.896129   650A      6.920847  
     651A      7.056955   652A      7.202122   653A      7.231008  
     654A      7.432525   655A      7.450060   656A      7.605333  
     657A      7.709591   658A      7.734964   659A      7.776486  
     660A      7.923367   661A      8.020768   662A      9.262810  
     663A     15.403751   664A     16.255400   665A     16.711309  
     666A     17.442434   667A     18.005951   668A     18.440779  
     669A     19.231280   670A     19.888276   671A     20.323600  

    Final Occupation by Irrep:
              A 
    DOCC [    41 ]

  @DF-RHF Final Energy:  -797.31995815853088

   => Energetics <=

    Nuclear Repulsion Energy =            588.2316219333346226
    One-Electron Energy =               -2260.9280458145362900
    Two-Electron Energy =                 875.3764657226706731
    Total Energy =                       -797.3199581585308806

Computation Completed

*** tstop() called on c459-032.stampede2.tacc.utexas.edu at Sun Mar  7 06:05:46 2021
Module time:
	user time   =     780.81 seconds =      13.01 minutes
	system time =      84.16 seconds =       1.40 minutes
	total time  =         44 seconds =       0.73 minutes
Total time:
	user time   =     780.81 seconds =      13.01 minutes
	system time =      84.16 seconds =       1.40 minutes
	total time  =         44 seconds =       0.73 minutes
   => Loading Basis Set <=

    Name: (AUG-CC-PVTZ AUX)
    Role: RIFIT
    Keyword: DF_BASIS_MP2
    atoms 1     entry S          line   666 file /home1/07844/xy3866/miniconda3/envs/p4env/share/psi4/basis/aug-cc-pvtz-ri.gbs 
    atoms 2     entry O          line   264 file /home1/07844/xy3866/miniconda3/envs/p4env/share/psi4/basis/aug-cc-pvtz-ri.gbs 
    atoms 3     entry N          line   206 file /home1/07844/xy3866/miniconda3/envs/p4env/share/psi4/basis/aug-cc-pvtz-ri.gbs 
    atoms 4-10  entry C          line   148 file /home1/07844/xy3866/miniconda3/envs/p4env/share/psi4/basis/aug-cc-pvtz-ri.gbs 
    atoms 11-19 entry H          line    30 file /home1/07844/xy3866/miniconda3/envs/p4env/share/psi4/basis/aug-cc-pvtz-ri.gbs 


*** tstart() called on c459-032.stampede2.tacc.utexas.edu
*** at Sun Mar  7 06:05:47 2021


  //>>>>>>>>>>>>>>>>>>>>>>>>>>>>>>>>>>>//
  //               DFMP2               //
  //<<<<<<<<<<<<<<<<<<<<<<<<<<<<<<<<<<<//

	 --------------------------------------------------------
	                          DF-MP2                         
	      2nd-Order Density-Fitted Moller-Plesset Theory     
	              RMP2 Wavefunction,  32 Threads             
	                                                         
	        Rob Parrish, Justin Turney, Andy Simmonett,      
	           Ed Hohenstein, and C. David Sherrill          
	 --------------------------------------------------------

   => Auxiliary Basis Set <=

  Basis Set: (AUG-CC-PVTZ AUX)
    Blend: AUG-CC-PVTZ-RI
    Number of shells: 415
    Number of basis functions: 1515
    Number of Cartesian functions: 1910
    Spherical Harmonics?: true
    Max angular momentum: 4

	 --------------------------------------------------------
	                 NBF =   671, NAUX =  1515
	 --------------------------------------------------------
	   CLASS    FOCC     OCC    AOCC    AVIR     VIR    FVIR
	   PAIRS       0      41      41     630     630       0
	 --------------------------------------------------------

  DFHelper Memory: AOs need 4.771 GiB; user supplied 22.352 GiB. Using in-core AOs.


         ------------------------------------------------------------
                                     CPHF                           
                                  Rob Parrish                       
         ------------------------------------------------------------

  ==> Geometry <==

    Molecular point group: c1
    Full point group: C1

    Geometry (in Angstrom), charge = 0, multiplicity = 1:

       Center              X                  Y                   Z               Mass       
    ------------   -----------------  -----------------  -----------------  -----------------
         S           -0.809650600544     1.534953989847    -0.144112903380    31.972071174400
         O            2.142152399456     1.193040989847     0.381606096620    15.994914619570
         N            2.200707399456    -1.040835010153    -0.115244903380    14.003074004430
         C           -2.139253400544    -0.651904010153     0.016253596620    12.000000000000
         C            0.073938399456     0.067540989847     0.030796096620    12.000000000000
         C           -0.773780600544    -1.023329010153     0.117084096620    12.000000000000
         C           -2.301259600544     0.689565989847    -0.130710903380    12.000000000000
         C            1.550075399456     0.142097989847     0.110784096620    12.000000000000
         C           -3.277912600544    -1.660143010153     0.087399096620    12.000000000000
         C            3.653234399456    -1.061747010153    -0.160680903380    12.000000000000
         H           -0.423163600544    -2.038852010153     0.285769096620     1.007825032230
         H           -3.232750600544     1.234859989847    -0.232578903380     1.007825032230
         H           -3.275005600544    -2.199382010153     1.039884096620     1.007825032230
         H           -4.241112600544    -1.152305010153    -0.008715903380     1.007825032230
         H           -3.206435600544    -2.401840010153    -0.714354903380     1.007825032230
         H            1.696736399456    -1.759329010153    -0.618135903380     1.007825032230
         H            4.045193399456    -0.619537010153    -1.083161903380     1.007825032230
         H            3.993255399456    -2.095415010153    -0.079235903380     1.007825032230
         H            4.033543399456    -0.486410010153     0.682737096620     1.007825032230

  Nuclear repulsion =  588.231621933334623
  Reference energy  = -797.319958158530881

  ==> Basis Set <==

  Basis Set: AUG-CC-PVTZ
    Blend: AUG-CC-PVTZ
    Number of shells: 223
    Number of basis functions: 671
    Number of Cartesian functions: 779
    Spherical Harmonics?: true
    Max angular momentum: 3

  ==> CGRSolver (by Rob Parrish) <==

   Number of roots    =         1
   Preconditioning    =    JACOBI
   Convergence cutoff =     1E-06
   Maximum iterations =       100

  ==> CPHFRHamiltonian (by Rob Parrish) <== 

  ==> MemDFJK: Density-Fitted J/K Matrices <==

    J tasked:                   Yes
    K tasked:                   Yes
    wK tasked:                   No
    OpenMP threads:              32
    Memory [MiB]:             22888
    Algorithm:                 Core
    Schwarz Cutoff:           1E-12
    Mask sparsity (%):       9.1986
    Fitting Condition:        1E-10

   => Auxiliary Basis Set <=

  Basis Set: (AUG-CC-PVTZ AUX)
    Blend: AUG-CC-PVTZ-JKFIT
    Number of shells: 438
    Number of basis functions: 1496
    Number of Cartesian functions: 1854
    Spherical Harmonics?: true
    Max angular momentum: 4

  ==> CPHF Iterations <==

  => Iterations <=

             Iter  Converged  Remaining    Residual
  CGR           1          0          1   1.313E-01
  CGR           2          0          1   4.448E-02
  CGR           3          0          1   2.307E-02
  CGR           4          0          1   7.931E-03
  CGR           5          0          1   3.323E-03
  CGR           6          0          1   1.312E-03
  CGR           7          0          1   5.076E-04
  CGR           8          0          1   1.666E-04
  CGR           9          0          1   6.781E-05
  CGR          10          0          1   3.221E-05
  CGR          11          0          1   1.313E-05
  CGR          12          0          1   4.779E-06
  CGR          13          0          1   1.826E-06
  CGR          14          1          0   6.217E-07

    CGRSolver converged.

	-----------------------------------------------------------
	 ==================> DF-MP2 Energies <==================== 
	-----------------------------------------------------------
	 Reference Energy          =    -797.3199581585308806 [Eh]
	 Singles Energy            =      -0.0000000000000000 [Eh]
	 Same-Spin Energy          =      -0.4864789160554803 [Eh]
	 Opposite-Spin Energy      =      -1.5031234913699261 [Eh]
	 Correlation Energy        =      -1.9896024074254064 [Eh]
	 Total Energy              =    -799.3095605659563034 [Eh]
	-----------------------------------------------------------
	 ================> DF-SCS-MP2 Energies <================== 
	-----------------------------------------------------------
	 SCS Same-Spin Scale       =       0.3333333333333333 [-]
	 SCS Opposite-Spin Scale   =       1.2000000000000000 [-]
	 SCS Same-Spin Energy      =      -0.1621596386851601 [Eh]
	 SCS Opposite-Spin Energy  =      -1.8037481896439111 [Eh]
	 SCS Correlation Energy    =      -1.9659078283290712 [Eh]
	 SCS Total Energy          =    -799.2858659868599034 [Eh]
	-----------------------------------------------------------



Properties will be evaluated at   0.000000,  -0.000000,  -0.000000 [a0]

Properties computed using the MP2 density matrix

  Nuclear Dipole Moment: [e a0]
     X:    -0.5891      Y:   -10.7487      Z:    -0.6839

  Electronic Dipole Moment: [e a0]
     X:     0.0129      Y:     9.2762      Z:     0.2337

  Dipole Moment: [e a0]
     X:    -0.5762      Y:    -1.4725      Z:    -0.4502     Total:     1.6440

  Dipole Moment: [D]
     X:    -1.4644      Y:    -3.7427      Z:    -1.1443     Total:     4.1787


*** tstop() called on c459-032.stampede2.tacc.utexas.edu at Sun Mar  7 06:10:31 2021
Module time:
	user time   =    2229.51 seconds =      37.16 minutes
	system time =     116.82 seconds =       1.95 minutes
	total time  =        284 seconds =       4.73 minutes
Total time:
	user time   =    3011.26 seconds =      50.19 minutes
	system time =     201.00 seconds =       3.35 minutes
	total time  =        329 seconds =       5.48 minutes

    Psi4 stopped on: Sunday, 07 March 2021 06:10AM
    Psi4 wall time for execution: 0:05:30.85

*** Psi4 exiting successfully. Buy a developer a beer!
