
    -----------------------------------------------------------------------
          Psi4: An Open-Source Ab Initio Electronic Structure Package
                               Psi4 1.4a3.dev225 

                         Git: Rev {master} 7105e37 


    D. G. A. Smith, L. A. Burns, A. C. Simmonett, R. M. Parrish,
    M. C. Schieber, R. Galvelis, P. Kraus, H. Kruse, R. Di Remigio,
    A. Alenaizan, A. M. James, S. Lehtola, J. P. Misiewicz, M. Scheurer,
    R. A. Shaw, J. B. Schriber, Y. Xie, Z. L. Glick, D. A. Sirianni,
    J. S. O'Brien, J. M. Waldrop, A. Kumar, E. G. Hohenstein,
    B. P. Pritchard, B. R. Brooks, H. F. Schaefer III, A. Yu. Sokolov,
    K. Patkowski, A. E. DePrince III, U. Bozkaya, R. A. King,
    F. A. Evangelista, J. M. Turney, T. D. Crawford, C. D. Sherrill,
    J. Chem. Phys. 152(18) 184108 (2020). https://doi.org/10.1063/5.0006002

                            Additional Code Authors
    E. T. Seidl, C. L. Janssen, E. F. Valeev, M. L. Leininger,
    J. F. Gonthier, R. M. Richard, H. R. McAlexander, M. Saitow, X. Wang,
    P. Verma, and M. H. Lechner

             Previous Authors, Complete List of Code Contributors,
                       and Citations for Specific Modules
    https://github.com/psi4/psi4/blob/master/codemeta.json
    https://github.com/psi4/psi4/graphs/contributors
    http://psicode.org/psi4manual/master/introduction.html#citing-psifour

    -----------------------------------------------------------------------


    Psi4 started on: Friday, 02 April 2021 09:38AM

    Process ID: 24782
    Host:       c440-044.stampede2.tacc.utexas.edu
    PSIDATADIR: /home1/07844/xy3866/miniconda3/envs/p4env/share/psi4
    Memory:     500.0 MiB
    Threads:    8
    
  ==> Input File <==

--------------------------------------------------------------------------
#psi4
#
memory 32 gb

molecule  {
0 1
  S       -0.8053760     1.6060500    -0.1399530
  O        2.1464270     1.2641370     0.3857660
  N        2.2049820    -0.9697390    -0.1110850
  C       -2.1414430    -0.6044570     0.0238790
  C        0.0782130     0.1386370     0.0349560
  C       -0.7695060    -0.9522330     0.1212440
  C       -2.2969850     0.7606620    -0.1265510
  C        1.5543500     0.2131940     0.1149440
  C       -3.2736380    -1.5890470     0.0915590
  C        3.6575090    -0.9906510    -0.1565210
  H       -0.4188890    -1.9677560     0.2899290
  H       -3.2284760     1.3059560    -0.2284190
  H       -3.2707310    -2.1282860     1.0440440
  H       -4.2368380    -1.0812090    -0.0045560
  H       -3.2021610    -2.3307440    -0.7101950
  H        1.7259232    -1.6527165    -0.5891172
  H        4.0494680    -0.5484410    -1.0790020
  H        3.9975300    -2.0243190    -0.0750760
  H        4.0378180    -0.4153140     0.6868970
units angstrom
no_reorient  #important for SAPT in psi4, default
symmetry c1  #important for SAPT in psi4, default
}

set PROPERTIES_ORIGIN ["COM"]
properties('MP2/aug-cc-pvtz', properties = ['dipole'])
--------------------------------------------------------------------------

  Memory set to  29.802 GiB by Python driver.
    SCF Algorithm Type (re)set to DF.

*** tstart() called on c440-044.stampede2.tacc.utexas.edu
*** at Fri Apr  2 09:38:35 2021

   => Loading Basis Set <=

    Name: AUG-CC-PVTZ
    Role: ORBITAL
    Keyword: BASIS
    atoms 1     entry S          line   906 file /home1/07844/xy3866/miniconda3/envs/p4env/share/psi4/basis/aug-cc-pvtz.gbs 
    atoms 2     entry O          line   331 file /home1/07844/xy3866/miniconda3/envs/p4env/share/psi4/basis/aug-cc-pvtz.gbs 
    atoms 3     entry N          line   285 file /home1/07844/xy3866/miniconda3/envs/p4env/share/psi4/basis/aug-cc-pvtz.gbs 
    atoms 4-10  entry C          line   239 file /home1/07844/xy3866/miniconda3/envs/p4env/share/psi4/basis/aug-cc-pvtz.gbs 
    atoms 11-19 entry H          line    40 file /home1/07844/xy3866/miniconda3/envs/p4env/share/psi4/basis/aug-cc-pvtz.gbs 


         ---------------------------------------------------------
                                   SCF
               by Justin Turney, Rob Parrish, Andy Simmonett
                          and Daniel G. A. Smith
                              RHF Reference
                        8 Threads,  30517 MiB Core
         ---------------------------------------------------------

  ==> Geometry <==

    Molecular point group: c1
    Full point group: C1

    Geometry (in Angstrom), charge = 0, multiplicity = 1:

       Center              X                  Y                   Z               Mass       
    ------------   -----------------  -----------------  -----------------  -----------------
         S           -0.809312216275     1.536553530651    -0.144542722217    31.972071174400
         O            2.142490783725     1.194640530651     0.381176277783    15.994914619570
         N            2.201045783725    -1.039235469349    -0.115674722217    14.003074004430
         C           -2.145379216275    -0.673953469349     0.019289277783    12.000000000000
         C            0.074276783725     0.069140530651     0.030366277783    12.000000000000
         C           -0.773442216275    -1.021729469349     0.116654277783    12.000000000000
         C           -2.300921216275     0.691165530651    -0.131140722217    12.000000000000
         C            1.550413783725     0.143697530651     0.110354277783    12.000000000000
         C           -3.277574216275    -1.658543469349     0.086969277783    12.000000000000
         C            3.653572783725    -1.060147469349    -0.161110722217    12.000000000000
         H           -0.422825216275    -2.037252469349     0.285339277783     1.007825032230
         H           -3.232412216275     1.236459530651    -0.233008722217     1.007825032230
         H           -3.274667216275    -2.197782469349     1.039454277783     1.007825032230
         H           -4.240774216275    -1.150705469349    -0.009145722217     1.007825032230
         H           -3.206097216275    -2.400240469349    -0.714784722217     1.007825032230
         H            1.721986983725    -1.722212969349    -0.593706922217     1.007825032230
         H            4.045531783725    -0.617937469349    -1.083591722217     1.007825032230
         H            3.993593783725    -2.093815469349    -0.079665722217     1.007825032230
         H            4.033881783725    -0.484810469349     0.682307277783     1.007825032230

  Running in c1 symmetry.

  Rotational constants: A =      0.07748  B =      0.02355  C =      0.01837 [cm^-1]
  Rotational constants: A =   2322.94167  B =    705.86191  C =    550.62218 [MHz]
  Nuclear repulsion =  588.212851412450732

  Charge       = 0
  Multiplicity = 1
  Electrons    = 82
  Nalpha       = 41
  Nbeta        = 41

  ==> Algorithm <==

  SCF Algorithm Type is DF.
  DIIS enabled.
  MOM disabled.
  Fractional occupation disabled.
  Guess Type is SAD.
  Energy threshold   = 1.00e-10
  Density threshold  = 1.00e-10
  Integral threshold = 1.00e-12

  ==> Primary Basis <==

  Basis Set: AUG-CC-PVTZ
    Blend: AUG-CC-PVTZ
    Number of shells: 223
    Number of basis functions: 671
    Number of Cartesian functions: 779
    Spherical Harmonics?: true
    Max angular momentum: 3

   => Loading Basis Set <=

    Name: (AUG-CC-PVTZ AUX)
    Role: JKFIT
    Keyword: DF_BASIS_SCF
    atoms 1     entry S          line   730 file /home1/07844/xy3866/miniconda3/envs/p4env/share/psi4/basis/aug-cc-pvtz-jkfit.gbs 
    atoms 2     entry O          line   286 file /home1/07844/xy3866/miniconda3/envs/p4env/share/psi4/basis/aug-cc-pvtz-jkfit.gbs 
    atoms 3     entry N          line   224 file /home1/07844/xy3866/miniconda3/envs/p4env/share/psi4/basis/aug-cc-pvtz-jkfit.gbs 
    atoms 4-10  entry C          line   162 file /home1/07844/xy3866/miniconda3/envs/p4env/share/psi4/basis/aug-cc-pvtz-jkfit.gbs 
    atoms 11-19 entry H          line    70 file /home1/07844/xy3866/miniconda3/envs/p4env/share/psi4/basis/aug-cc-pvtz-jkfit.gbs 

  ==> Integral Setup <==

  DFHelper Memory: AOs need 4.475 GiB; user supplied 22.352 GiB. Using in-core AOs.

  ==> MemDFJK: Density-Fitted J/K Matrices <==

    J tasked:                   Yes
    K tasked:                   Yes
    wK tasked:                   No
    OpenMP threads:               8
    Memory [MiB]:             22888
    Algorithm:                 Core
    Schwarz Cutoff:           1E-12
    Mask sparsity (%):      13.4972
    Fitting Condition:        1E-10

   => Auxiliary Basis Set <=

  Basis Set: (AUG-CC-PVTZ AUX)
    Blend: AUG-CC-PVTZ-JKFIT
    Number of shells: 438
    Number of basis functions: 1496
    Number of Cartesian functions: 1854
    Spherical Harmonics?: true
    Max angular momentum: 4

  Minimum eigenvalue in the overlap matrix is 2.2996078295E-06.
  Reciprocal condition number of the overlap matrix is 1.3162164337E-07.
    Using symmetric orthogonalization.

  ==> Pre-Iterations <==

  SCF Guess: Superposition of Atomic Densities via on-the-fly atomic UHF (no occupation information).

   -------------------------
    Irrep   Nso     Nmo    
   -------------------------
     A        671     671 
   -------------------------
    Total     671     671
   -------------------------

  ==> Iterations <==

                           Total Energy        Delta E     RMS |[F,P]|

   @DF-RHF iter SAD:  -796.80369494324600   -7.96804e+02   0.00000e+00 
   @DF-RHF iter   1:  -796.97513418454014   -1.71439e-01   1.16693e-03 DIIS
   @DF-RHF iter   2:  -797.21050665059840   -2.35372e-01   7.20714e-04 DIIS
   @DF-RHF iter   3:  -797.31152934584975   -1.01023e-01   1.35380e-04 DIIS
   @DF-RHF iter   4:  -797.31773488657154   -6.20554e-03   5.60269e-05 DIIS
   @DF-RHF iter   5:  -797.31888540529349   -1.15052e-03   1.69727e-05 DIIS
   @DF-RHF iter   6:  -797.31907708182882   -1.91677e-04   8.52895e-06 DIIS
   @DF-RHF iter   7:  -797.31914445785219   -6.73760e-05   4.12519e-06 DIIS
   @DF-RHF iter   8:  -797.31916112567023   -1.66678e-05   1.48095e-06 DIIS
   @DF-RHF iter   9:  -797.31916316862510   -2.04295e-06   4.63311e-07 DIIS
   @DF-RHF iter  10:  -797.31916333731181   -1.68687e-07   1.67031e-07 DIIS
   @DF-RHF iter  11:  -797.31916335440417   -1.70924e-08   7.47823e-08 DIIS
   @DF-RHF iter  12:  -797.31916335705637   -2.65220e-09   2.65546e-08 DIIS
   @DF-RHF iter  13:  -797.31916335766937   -6.12999e-10   8.68063e-09 DIIS
   @DF-RHF iter  14:  -797.31916335773496   -6.55973e-11   4.26501e-09 DIIS
   @DF-RHF iter  15:  -797.31916335775145   -1.64846e-11   1.88592e-09 DIIS
   @DF-RHF iter  16:  -797.31916335775588   -4.43379e-12   9.80499e-10 DIIS
   @DF-RHF iter  17:  -797.31916335775236    3.52429e-12   3.91039e-10 DIIS
   @DF-RHF iter  18:  -797.31916335775452   -2.16005e-12   1.60494e-10 DIIS
   @DF-RHF iter  19:  -797.31916335775281    1.70530e-12   6.73722e-11 DIIS
  Energy and wave function converged.


  ==> Post-Iterations <==

    Orbital Energies [Eh]
    ---------------------

    Doubly Occupied:                                                      

       1A    -91.990527     2A    -20.521987     3A    -15.584533  
       4A    -11.361001     5A    -11.275095     6A    -11.269322  
       7A    -11.260724     8A    -11.257480     9A    -11.254093  
      10A    -11.238343    11A     -8.990275    12A     -6.671142  
      13A     -6.670592    14A     -6.669880    15A     -1.376905  
      16A     -1.238100    17A     -1.183829    18A     -1.046791  
      19A     -1.007477    20A     -0.954864    21A     -0.923526  
      22A     -0.833729    23A     -0.776338    24A     -0.750319  
      25A     -0.709074    26A     -0.645251    27A     -0.629467  
      28A     -0.621194    29A     -0.594192    30A     -0.590951  
      31A     -0.568518    32A     -0.553890    33A     -0.549518  
      34A     -0.534700    35A     -0.523753    36A     -0.500906  
      37A     -0.478419    38A     -0.435016    39A     -0.399687  
      40A     -0.348404    41A     -0.328088  

    Virtual:                                                              

      42A      0.021576    43A      0.028404    44A      0.035440  
      45A      0.038286    46A      0.043784    47A      0.049389  
      48A      0.053865    49A      0.064053    50A      0.068027  
      51A      0.074654    52A      0.081723    53A      0.085382  
      54A      0.095757    55A      0.098770    56A      0.110340  
      57A      0.110870    58A      0.113019    59A      0.114075  
      60A      0.121448    61A      0.125400    62A      0.128295  
      63A      0.135645    64A      0.137160    65A      0.139155  
      66A      0.140736    67A      0.144333    68A      0.150155  
      69A      0.154395    70A      0.159274    71A      0.162638  
      72A      0.170957    73A      0.178330    74A      0.182132  
      75A      0.186816    76A      0.187909    77A      0.193139  
      78A      0.200708    79A      0.206350    80A      0.216851  
      81A      0.223571    82A      0.227204    83A      0.232776  
      84A      0.237265    85A      0.241371    86A      0.244485  
      87A      0.251122    88A      0.254091    89A      0.259931  
      90A      0.269790    91A      0.271875    92A      0.272866  
      93A      0.279862    94A      0.286919    95A      0.290257  
      96A      0.294031    97A      0.306680    98A      0.308237  
      99A      0.309973   100A      0.317527   101A      0.320375  
     102A      0.322532   103A      0.323228   104A      0.339852  
     105A      0.342993   106A      0.346292   107A      0.350151  
     108A      0.353363   109A      0.355574   110A      0.358503  
     111A      0.367256   112A      0.370322   113A      0.373546  
     114A      0.386174   115A      0.387461   116A      0.396421  
     117A      0.400116   118A      0.400276   119A      0.403799  
     120A      0.411185   121A      0.411534   122A      0.417634  
     123A      0.420168   124A      0.423443   125A      0.427603  
     126A      0.439374   127A      0.439808   128A      0.442490  
     129A      0.450230   130A      0.454881   131A      0.455945  
     132A      0.462905   133A      0.470151   134A      0.473116  
     135A      0.476869   136A      0.481005   137A      0.482704  
     138A      0.489303   139A      0.491237   140A      0.494477  
     141A      0.498602   142A      0.504022   143A      0.506276  
     144A      0.511505   145A      0.516105   146A      0.525601  
     147A      0.530291   148A      0.532730   149A      0.537872  
     150A      0.540621   151A      0.546274   152A      0.548048  
     153A      0.553187   154A      0.558055   155A      0.562990  
     156A      0.576618   157A      0.579918   158A      0.583123  
     159A      0.590612   160A      0.593015   161A      0.596813  
     162A      0.602587   163A      0.614417   164A      0.615089  
     165A      0.627385   166A      0.635046   167A      0.642746  
     168A      0.645956   169A      0.657092   170A      0.661722  
     171A      0.676790   172A      0.680776   173A      0.689894  
     174A      0.693696   175A      0.697604   176A      0.718550  
     177A      0.725101   178A      0.735895   179A      0.742390  
     180A      0.754362   181A      0.757186   182A      0.763603  
     183A      0.773077   184A      0.781650   185A      0.801017  
     186A      0.803718   187A      0.808069   188A      0.810170  
     189A      0.820272   190A      0.825449   191A      0.830966  
     192A      0.842699   193A      0.846454   194A      0.851742  
     195A      0.855939   196A      0.862202   197A      0.863949  
     198A      0.866518   199A      0.877319   200A      0.882575  
     201A      0.886012   202A      0.891857   203A      0.903093  
     204A      0.905856   205A      0.908597   206A      0.913569  
     207A      0.920011   208A      0.926226   209A      0.929038  
     210A      0.931395   211A      0.933224   212A      0.940397  
     213A      0.950670   214A      0.951446   215A      0.959944  
     216A      0.969251   217A      0.973953   218A      0.980940  
     219A      0.982829   220A      0.985916   221A      0.990769  
     222A      0.995265   223A      0.997357   224A      1.001260  
     225A      1.012116   226A      1.019778   227A      1.027406  
     228A      1.030534   229A      1.032645   230A      1.037613  
     231A      1.049235   232A      1.050400   233A      1.059413  
     234A      1.063886   235A      1.067302   236A      1.069330  
     237A      1.080090   238A      1.082379   239A      1.086230  
     240A      1.087079   241A      1.089662   242A      1.095021  
     243A      1.107307   244A      1.114198   245A      1.119679  
     246A      1.124949   247A      1.133215   248A      1.137055  
     249A      1.139589   250A      1.143711   251A      1.152650  
     252A      1.157588   253A      1.165941   254A      1.171480  
     255A      1.176118   256A      1.186193   257A      1.190347  
     258A      1.198697   259A      1.201423   260A      1.207039  
     261A      1.211324   262A      1.211993   263A      1.220351  
     264A      1.233496   265A      1.234256   266A      1.240201  
     267A      1.247442   268A      1.253165   269A      1.266047  
     270A      1.276007   271A      1.276151   272A      1.290253  
     273A      1.293705   274A      1.308986   275A      1.312742  
     276A      1.326529   277A      1.333919   278A      1.338862  
     279A      1.341668   280A      1.347273   281A      1.350794  
     282A      1.365587   283A      1.375652   284A      1.389258  
     285A      1.394286   286A      1.400768   287A      1.414499  
     288A      1.420533   289A      1.432052   290A      1.435027  
     291A      1.449361   292A      1.454895   293A      1.465185  
     294A      1.475001   295A      1.483155   296A      1.486494  
     297A      1.494588   298A      1.498756   299A      1.505576  
     300A      1.520383   301A      1.533043   302A      1.538007  
     303A      1.551203   304A      1.555407   305A      1.565532  
     306A      1.572670   307A      1.588499   308A      1.590812  
     309A      1.602944   310A      1.606492   311A      1.610045  
     312A      1.618155   313A      1.626403   314A      1.641503  
     315A      1.647085   316A      1.653203   317A      1.659882  
     318A      1.669497   319A      1.674405   320A      1.687702  
     321A      1.690221   322A      1.696596   323A      1.703640  
     324A      1.718225   325A      1.726720   326A      1.733051  
     327A      1.735260   328A      1.753876   329A      1.755687  
     330A      1.760727   331A      1.778197   332A      1.790104  
     333A      1.800744   334A      1.803956   335A      1.810145  
     336A      1.821894   337A      1.844136   338A      1.847286  
     339A      1.851877   340A      1.862217   341A      1.876021  
     342A      1.882807   343A      1.887665   344A      1.902521  
     345A      1.920767   346A      1.924859   347A      1.935587  
     348A      1.939881   349A      1.947173   350A      1.958254  
     351A      1.969867   352A      1.982432   353A      1.989073  
     354A      2.001588   355A      2.006144   356A      2.014265  
     357A      2.027478   358A      2.043669   359A      2.061036  
     360A      2.065189   361A      2.076139   362A      2.079485  
     363A      2.083314   364A      2.092300   365A      2.102612  
     366A      2.121624   367A      2.129593   368A      2.137377  
     369A      2.157304   370A      2.169254   371A      2.183549  
     372A      2.184831   373A      2.197213   374A      2.200195  
     375A      2.210623   376A      2.220580   377A      2.226869  
     378A      2.231031   379A      2.235023   380A      2.241299  
     381A      2.244893   382A      2.280863   383A      2.285104  
     384A      2.293485   385A      2.306226   386A      2.307847  
     387A      2.334121   388A      2.345127   389A      2.358391  
     390A      2.366248   391A      2.380500   392A      2.393895  
     393A      2.406405   394A      2.415373   395A      2.420348  
     396A      2.446747   397A      2.454406   398A      2.457043  
     399A      2.464365   400A      2.471191   401A      2.496269  
     402A      2.507801   403A      2.510657   404A      2.522844  
     405A      2.544282   406A      2.561816   407A      2.576724  
     408A      2.594302   409A      2.602427   410A      2.617636  
     411A      2.620660   412A      2.636170   413A      2.649291  
     414A      2.671844   415A      2.683991   416A      2.687449  
     417A      2.710030   418A      2.731393   419A      2.740428  
     420A      2.766869   421A      2.780042   422A      2.794988  
     423A      2.851690   424A      2.855824   425A      2.864240  
     426A      2.879774   427A      2.909324   428A      2.919211  
     429A      2.948755   430A      2.982570   431A      3.031009  
     432A      3.042567   433A      3.054566   434A      3.066800  
     435A      3.102157   436A      3.109465   437A      3.141129  
     438A      3.192209   439A      3.211940   440A      3.231175  
     441A      3.248319   442A      3.265759   443A      3.278682  
     444A      3.291555   445A      3.314393   446A      3.333491  
     447A      3.354983   448A      3.366431   449A      3.374306  
     450A      3.382633   451A      3.392893   452A      3.394615  
     453A      3.420696   454A      3.428824   455A      3.442191  
     456A      3.461868   457A      3.477503   458A      3.487113  
     459A      3.507093   460A      3.514910   461A      3.541828  
     462A      3.551996   463A      3.562512   464A      3.573500  
     465A      3.588545   466A      3.600778   467A      3.605481  
     468A      3.622773   469A      3.640357   470A      3.648966  
     471A      3.657856   472A      3.669037   473A      3.675215  
     474A      3.684998   475A      3.705008   476A      3.725433  
     477A      3.731476   478A      3.740426   479A      3.748104  
     480A      3.749286   481A      3.767089   482A      3.779971  
     483A      3.784139   484A      3.797430   485A      3.804112  
     486A      3.812049   487A      3.829895   488A      3.848576  
     489A      3.853798   490A      3.862219   491A      3.884023  
     492A      3.886468   493A      3.904661   494A      3.918956  
     495A      3.936213   496A      3.940486   497A      3.945989  
     498A      3.953717   499A      3.959575   500A      3.976775  
     501A      3.989083   502A      3.993445   503A      4.016171  
     504A      4.023240   505A      4.034466   506A      4.045170  
     507A      4.055409   508A      4.067754   509A      4.083223  
     510A      4.096482   511A      4.100816   512A      4.115411  
     513A      4.119015   514A      4.131532   515A      4.137463  
     516A      4.139087   517A      4.148279   518A      4.164118  
     519A      4.175501   520A      4.183409   521A      4.186429  
     522A      4.217528   523A      4.228285   524A      4.238719  
     525A      4.250335   526A      4.259121   527A      4.272730  
     528A      4.287883   529A      4.300977   530A      4.311704  
     531A      4.326638   532A      4.339174   533A      4.348667  
     534A      4.354425   535A      4.372523   536A      4.398054  
     537A      4.408809   538A      4.427564   539A      4.431359  
     540A      4.466078   541A      4.475090   542A      4.480357  
     543A      4.497756   544A      4.519012   545A      4.529785  
     546A      4.542640   547A      4.562530   548A      4.569499  
     549A      4.578741   550A      4.620599   551A      4.627969  
     552A      4.638751   553A      4.648167   554A      4.658153  
     555A      4.663488   556A      4.678038   557A      4.709085  
     558A      4.720318   559A      4.726728   560A      4.741920  
     561A      4.759706   562A      4.784002   563A      4.794460  
     564A      4.813871   565A      4.822454   566A      4.827339  
     567A      4.853393   568A      4.864201   569A      4.884336  
     570A      4.892240   571A      4.896472   572A      4.923997  
     573A      4.949746   574A      4.975152   575A      4.988812  
     576A      5.006262   577A      5.010814   578A      5.028355  
     579A      5.045109   580A      5.061297   581A      5.076241  
     582A      5.085139   583A      5.092807   584A      5.116528  
     585A      5.123992   586A      5.144589   587A      5.177420  
     588A      5.195860   589A      5.213351   590A      5.223480  
     591A      5.232343   592A      5.270241   593A      5.277831  
     594A      5.299532   595A      5.322519   596A      5.343841  
     597A      5.363822   598A      5.402313   599A      5.413153  
     600A      5.421754   601A      5.454492   602A      5.471110  
     603A      5.497016   604A      5.527755   605A      5.543840  
     606A      5.572338   607A      5.580927   608A      5.593145  
     609A      5.629615   610A      5.639483   611A      5.681346  
     612A      5.690149   613A      5.730991   614A      5.752131  
     615A      5.775540   616A      5.792896   617A      5.816746  
     618A      5.831071   619A      5.843866   620A      5.898926  
     621A      5.916675   622A      5.989949   623A      6.033256  
     624A      6.068360   625A      6.098984   626A      6.118980  
     627A      6.165019   628A      6.166503   629A      6.170097  
     630A      6.209816   631A      6.242282   632A      6.285533  
     633A      6.339383   634A      6.365944   635A      6.390399  
     636A      6.473019   637A      6.506329   638A      6.597946  
     639A      6.710292   640A      6.736280   641A      6.748733  
     642A      6.763409   643A      6.772979   644A      6.795821  
     645A      6.813208   646A      6.832266   647A      6.870342  
     648A      6.878676   649A      6.911050   650A      7.011584  
     651A      7.079983   652A      7.209419   653A      7.235574  
     654A      7.436724   655A      7.455045   656A      7.657163  
     657A      7.716977   658A      7.744448   659A      7.781906  
     660A      7.924958   661A      8.024573   662A      9.249946  
     663A     15.375449   664A     16.117022   665A     17.031451  
     666A     17.488928   667A     17.965258   668A     18.464712  
     669A     19.328159   670A     19.931614   671A     20.583741  

    Final Occupation by Irrep:
              A 
    DOCC [    41 ]

  @DF-RHF Final Energy:  -797.31916335775281

   => Energetics <=

    Nuclear Repulsion Energy =            588.2128514124507319
    One-Electron Energy =               -2260.8282357238331315
    Two-Electron Energy =                 875.2962209536296996
    Total Energy =                       -797.3191633577528137

Computation Completed

*** tstop() called on c440-044.stampede2.tacc.utexas.edu at Fri Apr  2 09:39:50 2021
Module time:
	user time   =     455.90 seconds =       7.60 minutes
	system time =      12.78 seconds =       0.21 minutes
	total time  =         75 seconds =       1.25 minutes
Total time:
	user time   =     455.90 seconds =       7.60 minutes
	system time =      12.78 seconds =       0.21 minutes
	total time  =         75 seconds =       1.25 minutes
   => Loading Basis Set <=

    Name: (AUG-CC-PVTZ AUX)
    Role: RIFIT
    Keyword: DF_BASIS_MP2
    atoms 1     entry S          line   666 file /home1/07844/xy3866/miniconda3/envs/p4env/share/psi4/basis/aug-cc-pvtz-ri.gbs 
    atoms 2     entry O          line   264 file /home1/07844/xy3866/miniconda3/envs/p4env/share/psi4/basis/aug-cc-pvtz-ri.gbs 
    atoms 3     entry N          line   206 file /home1/07844/xy3866/miniconda3/envs/p4env/share/psi4/basis/aug-cc-pvtz-ri.gbs 
    atoms 4-10  entry C          line   148 file /home1/07844/xy3866/miniconda3/envs/p4env/share/psi4/basis/aug-cc-pvtz-ri.gbs 
    atoms 11-19 entry H          line    30 file /home1/07844/xy3866/miniconda3/envs/p4env/share/psi4/basis/aug-cc-pvtz-ri.gbs 


*** tstart() called on c440-044.stampede2.tacc.utexas.edu
*** at Fri Apr  2 09:39:51 2021


  //>>>>>>>>>>>>>>>>>>>>>>>>>>>>>>>>>>>//
  //               DFMP2               //
  //<<<<<<<<<<<<<<<<<<<<<<<<<<<<<<<<<<<//

	 --------------------------------------------------------
	                          DF-MP2                         
	      2nd-Order Density-Fitted Moller-Plesset Theory     
	              RMP2 Wavefunction,   8 Threads             
	                                                         
	        Rob Parrish, Justin Turney, Andy Simmonett,      
	           Ed Hohenstein, and C. David Sherrill          
	 --------------------------------------------------------

   => Auxiliary Basis Set <=

  Basis Set: (AUG-CC-PVTZ AUX)
    Blend: AUG-CC-PVTZ-RI
    Number of shells: 415
    Number of basis functions: 1515
    Number of Cartesian functions: 1910
    Spherical Harmonics?: true
    Max angular momentum: 4

	 --------------------------------------------------------
	                 NBF =   671, NAUX =  1515
	 --------------------------------------------------------
	   CLASS    FOCC     OCC    AOCC    AVIR     VIR    FVIR
	   PAIRS       0      41      41     630     630       0
	 --------------------------------------------------------

  DFHelper Memory: AOs need 4.691 GiB; user supplied 22.352 GiB. Using in-core AOs.


         ------------------------------------------------------------
                                     CPHF                           
                                  Rob Parrish                       
         ------------------------------------------------------------

  ==> Geometry <==

    Molecular point group: c1
    Full point group: C1

    Geometry (in Angstrom), charge = 0, multiplicity = 1:

       Center              X                  Y                   Z               Mass       
    ------------   -----------------  -----------------  -----------------  -----------------
         S           -0.809312216275     1.536553530651    -0.144542722217    31.972071174400
         O            2.142490783725     1.194640530651     0.381176277783    15.994914619570
         N            2.201045783725    -1.039235469349    -0.115674722217    14.003074004430
         C           -2.145379216275    -0.673953469349     0.019289277783    12.000000000000
         C            0.074276783725     0.069140530651     0.030366277783    12.000000000000
         C           -0.773442216275    -1.021729469349     0.116654277783    12.000000000000
         C           -2.300921216275     0.691165530651    -0.131140722217    12.000000000000
         C            1.550413783725     0.143697530651     0.110354277783    12.000000000000
         C           -3.277574216275    -1.658543469349     0.086969277783    12.000000000000
         C            3.653572783725    -1.060147469349    -0.161110722217    12.000000000000
         H           -0.422825216275    -2.037252469349     0.285339277783     1.007825032230
         H           -3.232412216275     1.236459530651    -0.233008722217     1.007825032230
         H           -3.274667216275    -2.197782469349     1.039454277783     1.007825032230
         H           -4.240774216275    -1.150705469349    -0.009145722217     1.007825032230
         H           -3.206097216275    -2.400240469349    -0.714784722217     1.007825032230
         H            1.721986983725    -1.722212969349    -0.593706922217     1.007825032230
         H            4.045531783725    -0.617937469349    -1.083591722217     1.007825032230
         H            3.993593783725    -2.093815469349    -0.079665722217     1.007825032230
         H            4.033881783725    -0.484810469349     0.682307277783     1.007825032230

  Nuclear repulsion =  588.212851412450732
  Reference energy  = -797.319163357752814

  ==> Basis Set <==

  Basis Set: AUG-CC-PVTZ
    Blend: AUG-CC-PVTZ
    Number of shells: 223
    Number of basis functions: 671
    Number of Cartesian functions: 779
    Spherical Harmonics?: true
    Max angular momentum: 3

  ==> CGRSolver (by Rob Parrish) <==

   Number of roots    =         1
   Preconditioning    =    JACOBI
   Convergence cutoff =     1E-06
   Maximum iterations =       100

  ==> CPHFRHamiltonian (by Rob Parrish) <== 

  ==> MemDFJK: Density-Fitted J/K Matrices <==

    J tasked:                   Yes
    K tasked:                   Yes
    wK tasked:                   No
    OpenMP threads:               8
    Memory [MiB]:             22888
    Algorithm:                 Core
    Schwarz Cutoff:           1E-12
    Mask sparsity (%):       9.2035
    Fitting Condition:        1E-10

   => Auxiliary Basis Set <=

  Basis Set: (AUG-CC-PVTZ AUX)
    Blend: AUG-CC-PVTZ-JKFIT
    Number of shells: 438
    Number of basis functions: 1496
    Number of Cartesian functions: 1854
    Spherical Harmonics?: true
    Max angular momentum: 4

  ==> CPHF Iterations <==

  => Iterations <=

             Iter  Converged  Remaining    Residual
  CGR           1          0          1   1.305E-01
  CGR           2          0          1   4.428E-02
  CGR           3          0          1   2.320E-02
  CGR           4          0          1   8.111E-03
  CGR           5          0          1   3.414E-03
  CGR           6          0          1   1.348E-03
  CGR           7          0          1   5.275E-04
  CGR           8          0          1   1.761E-04
  CGR           9          0          1   7.291E-05
  CGR          10          0          1   3.568E-05
  CGR          11          0          1   1.379E-05
  CGR          12          0          1   4.770E-06
  CGR          13          0          1   1.647E-06
  CGR          14          1          0   6.066E-07

    CGRSolver converged.

	-----------------------------------------------------------
	 ==================> DF-MP2 Energies <==================== 
	-----------------------------------------------------------
	 Reference Energy          =    -797.3191633577528137 [Eh]
	 Singles Energy            =      -0.0000000000000000 [Eh]
	 Same-Spin Energy          =      -0.4866242922510232 [Eh]
	 Opposite-Spin Energy      =      -1.5029243498086742 [Eh]
	 Correlation Energy        =      -1.9895486420596973 [Eh]
	 Total Energy              =    -799.3087119998125445 [Eh]
	-----------------------------------------------------------
	 ================> DF-SCS-MP2 Energies <================== 
	-----------------------------------------------------------
	 SCS Same-Spin Scale       =       0.3333333333333333 [-]
	 SCS Opposite-Spin Scale   =       1.2000000000000000 [-]
	 SCS Same-Spin Energy      =      -0.1622080974170077 [Eh]
	 SCS Opposite-Spin Energy  =      -1.8035092197704090 [Eh]
	 SCS Correlation Energy    =      -1.9657173171874167 [Eh]
	 SCS Total Energy          =    -799.2848806749402684 [Eh]
	-----------------------------------------------------------



Properties will be evaluated at   0.000000,   0.000000,   0.000000 [a0]

Properties computed using the MP2 density matrix

  Nuclear Dipole Moment: [e a0]
     X:    -0.5629      Y:   -10.7019      Z:    -0.6643

  Electronic Dipole Moment: [e a0]
     X:    -0.0231      Y:     9.2387      Z:     0.2212

  Dipole Moment: [e a0]
     X:    -0.5860      Y:    -1.4632      Z:    -0.4430     Total:     1.6373

  Dipole Moment: [D]
     X:    -1.4894      Y:    -3.7191      Z:    -1.1260     Total:     4.1615


*** tstop() called on c440-044.stampede2.tacc.utexas.edu at Fri Apr  2 09:44:46 2021
Module time:
	user time   =    1743.74 seconds =      29.06 minutes
	system time =      27.87 seconds =       0.46 minutes
	total time  =        295 seconds =       4.92 minutes
Total time:
	user time   =    2200.57 seconds =      36.68 minutes
	system time =      40.68 seconds =       0.68 minutes
	total time  =        371 seconds =       6.18 minutes

    Psi4 stopped on: Friday, 02 April 2021 09:44AM
    Psi4 wall time for execution: 0:06:12.82

*** Psi4 exiting successfully. Buy a developer a beer!
