
    -----------------------------------------------------------------------
          Psi4: An Open-Source Ab Initio Electronic Structure Package
                               Psi4 1.3.2 release

                         Git: Rev {HEAD} ecbda83 


    R. M. Parrish, L. A. Burns, D. G. A. Smith, A. C. Simmonett,
    A. E. DePrince III, E. G. Hohenstein, U. Bozkaya, A. Yu. Sokolov,
    R. Di Remigio, R. M. Richard, J. F. Gonthier, A. M. James,
    H. R. McAlexander, A. Kumar, M. Saitow, X. Wang, B. P. Pritchard,
    P. Verma, H. F. Schaefer III, K. Patkowski, R. A. King, E. F. Valeev,
    F. A. Evangelista, J. M. Turney, T. D. Crawford, and C. D. Sherrill,
    J. Chem. Theory Comput. 13(7) pp 3185--3197 (2017).
    (doi: 10.1021/acs.jctc.7b00174)


                         Additional Contributions by
    P. Kraus, H. Kruse, M. H. Lechner, M. C. Schieber, R. A. Shaw,
    A. Alenaizan, R. Galvelis, Z. L. Glick, S. Lehtola, and J. P. Misiewicz

    -----------------------------------------------------------------------


    Psi4 started on: Tuesday, 02 February 2021 11:02PM

    Process ID: 65924
    Host:       node142.bme.utexas.edu
    PSIDATADIR: /home/xy3866/psi4conda/share/psi4
    Memory:     500.0 MiB
    Threads:    8
    
  ==> Input File <==

--------------------------------------------------------------------------
#psi4
#
memory 32 gb

molecule  {
0 1
  C        0.7388790     0.0000080     0.0000160
  C       -0.7388790     0.0000070    -0.0000030
  C        1.5045958     1.1974883    -0.4910393
  C       -1.4536820     1.1178570     0.4583930
  C        1.4536730    -1.1178550     0.4583870
  C       -1.4536670    -1.1178570    -0.4583770
  C        2.8487180     1.1182580    -0.4560040
  C       -2.8487240     1.1182560     0.4559960
  C        2.8487140    -1.1182560     0.4560110
  C       -2.8487090    -1.1182580    -0.4560170
  C        3.5507430    -0.0000070    -0.0000130
  C       -3.5507430    -0.0000100    -0.0000010
  H        0.9093800     1.9786560    -0.8416800
  H       -0.9093900     1.9786530     0.8417000
  H        0.9093690    -1.9786310     0.8417230
  H       -0.9093580    -1.9786330    -0.8417070
  H        3.3890490     1.9888130    -0.8209640
  H       -3.3890590     1.9888070     0.8209600
  H        3.3890420    -1.9888210     0.8209520
  H       -3.3890330    -1.9888240    -0.8209630
  H        4.6380810    -0.0000130    -0.0000190
  H       -4.6380810    -0.0000130    -0.0000170
units angstrom
no_reorient  #important for SAPT in psi4, default
symmetry c1  #important for SAPT in psi4, default
}

set PROPERTIES_ORIGIN ["COM"]
properties('MP2/aug-cc-pvtz', properties = ['dipole'])
--------------------------------------------------------------------------

  Memory set to  29.802 GiB by Python driver.
    SCF Algorithm Type (re)set to DF.

*** tstart() called on node142.bme.utexas.edu
*** at Tue Feb  2 23:02:20 2021

   => Loading Basis Set <=

    Name: AUG-CC-PVTZ
    Role: ORBITAL
    Keyword: BASIS
    atoms 1-12  entry C          line   235 file /home/xy3866/psi4conda/share/psi4/basis/aug-cc-pvtz.gbs 
    atoms 13-22 entry H          line    36 file /home/xy3866/psi4conda/share/psi4/basis/aug-cc-pvtz.gbs 


         ---------------------------------------------------------
                                   SCF
               by Justin Turney, Rob Parrish, Andy Simmonett
                          and Daniel G. A. Smith
                              RHF Reference
                        8 Threads,  30517 MiB Core
         ---------------------------------------------------------

  ==> Geometry <==

    Molecular point group: c1
    Full point group: C1

    Geometry (in Angstrom), charge = 0, multiplicity = 1:

       Center              X                  Y                   Z               Mass       
    ------------   -----------------  -----------------  -----------------  -----------------
         C            0.734913316338    -0.006193845822     0.002559063129    12.000000000000
         C           -0.742844683662    -0.006194845822     0.002540063129    12.000000000000
         C            1.500630116338     1.191286454178    -0.488496236871    12.000000000000
         C           -1.457647683662     1.111655154178     0.460936063129    12.000000000000
         C            1.449707316338    -1.124056845822     0.460930063129    12.000000000000
         C           -1.457632683662    -1.124058845822    -0.455833936871    12.000000000000
         C            2.844752316338     1.112056154178    -0.453460936871    12.000000000000
         C           -2.852689683662     1.112054154178     0.458539063129    12.000000000000
         C            2.844748316338    -1.124457845822     0.458554063129    12.000000000000
         C           -2.852674683662    -1.124459845822    -0.453473936871    12.000000000000
         C            3.546777316338    -0.006208845822     0.002530063129    12.000000000000
         C           -3.554708683662    -0.006211845822     0.002542063129    12.000000000000
         H            0.905414316338     1.972454154178    -0.839136936871     1.007825032230
         H           -0.913355683662     1.972451154178     0.844243063129     1.007825032230
         H            0.905403316338    -1.984832845822     0.844266063129     1.007825032230
         H           -0.913323683662    -1.984834845822    -0.839163936871     1.007825032230
         H            3.385083316338     1.982611154178    -0.818420936871     1.007825032230
         H           -3.393024683662     1.982605154178     0.823503063129     1.007825032230
         H            3.385076316338    -1.995022845822     0.823495063129     1.007825032230
         H           -3.392998683662    -1.995025845822    -0.818419936871     1.007825032230
         H            4.634115316338    -0.006214845822     0.002524063129     1.007825032230
         H           -4.642046683662    -0.006214845822     0.002526063129     1.007825032230

  Running in c1 symmetry.

  Rotational constants: A =      0.09368  B =      0.01818  C =      0.01597 [cm^-1]
  Rotational constants: A =   2808.54219  B =    544.90537  C =    478.85153 [MHz]
  Nuclear repulsion =  597.974061887575772

  Charge       = 0
  Multiplicity = 1
  Electrons    = 82
  Nalpha       = 41
  Nbeta        = 41

  ==> Algorithm <==

  SCF Algorithm Type is DF.
  DIIS enabled.
  MOM disabled.
  Fractional occupation disabled.
  Guess Type is SAD.
  Energy threshold   = 1.00e-10
  Density threshold  = 1.00e-10
  Integral threshold = 0.00e+00

  ==> Primary Basis <==

  Basis Set: AUG-CC-PVTZ
    Blend: AUG-CC-PVTZ
    Number of shells: 258
    Number of basis function: 782
    Number of Cartesian functions: 910
    Spherical Harmonics?: true
    Max angular momentum: 3

   => Loading Basis Set <=

    Name: (AUG-CC-PVTZ AUX)
    Role: JKFIT
    Keyword: DF_BASIS_SCF
    atoms 1-12  entry C          line   162 file /home/xy3866/psi4conda/share/psi4/basis/aug-cc-pvtz-jkfit.gbs 
    atoms 13-22 entry H          line    70 file /home/xy3866/psi4conda/share/psi4/basis/aug-cc-pvtz-jkfit.gbs 

  ==> Pre-Iterations <==

   -------------------------------------------------------
    Irrep   Nso     Nmo     Nalpha   Nbeta   Ndocc  Nsocc
   -------------------------------------------------------
     A        782     782       0       0       0       0
   -------------------------------------------------------
    Total     782     782      41      41      41       0
   -------------------------------------------------------

  ==> Integral Setup <==

  DFHelper Memory: AOs need 7.280 GiB; user supplied 22.352 GiB. Using in-core AOs.

  ==> MemDFJK: Density-Fitted J/K Matrices <==

    J tasked:                   Yes
    K tasked:                   Yes
    wK tasked:                   No
    OpenMP threads:               8
    Memory [MiB]:             22888
    Algorithm:                 Disk
    Schwarz Cutoff:           1E-12
    Mask sparsity (%):       8.7813
    Fitting Condition:        1E-10

   => Auxiliary Basis Set <=

  Basis Set: (AUG-CC-PVTZ AUX)
    Blend: AUG-CC-PVTZ-JKFIT
    Number of shells: 500
    Number of basis function: 1708
    Number of Cartesian functions: 2122
    Spherical Harmonics?: true
    Max angular momentum: 4

  Minimum eigenvalue in the overlap matrix is 2.9755439116E-07.
  Using Symmetric Orthogonalization.

  SCF Guess: Superposition of Atomic Densities via on-the-fly atomic UHF.

  ==> Iterations <==

                           Total Energy        Delta E     RMS |[F,P]|

   @DF-RHF iter SAD:  -459.77923161022494   -4.59779e+02   0.00000e+00 
   @DF-RHF iter   1:  -460.07444145995305   -2.95210e-01   9.05913e-04 DIIS
   @DF-RHF iter   2:  -460.33417083145571   -2.59729e-01   4.05287e-04 DIIS
   @DF-RHF iter   3:  -460.38582263664233   -5.16518e-02   7.60999e-05 DIIS
   @DF-RHF iter   4:  -460.38873983928028   -2.91720e-03   1.16952e-05 DIIS
   @DF-RHF iter   5:  -460.38881182354277   -7.19843e-05   4.79544e-06 DIIS
   @DF-RHF iter   6:  -460.38882221473699   -1.03912e-05   1.79213e-06 DIIS
   @DF-RHF iter   7:  -460.38882501080968   -2.79607e-06   7.57648e-07 DIIS
   @DF-RHF iter   8:  -460.38882580034362   -7.89534e-07   4.27780e-07 DIIS
   @DF-RHF iter   9:  -460.38882617886838   -3.78525e-07   1.26199e-07 DIIS
   @DF-RHF iter  10:  -460.38882621427138   -3.54030e-08   4.75977e-08 DIIS
   @DF-RHF iter  11:  -460.38882621629966   -2.02829e-09   1.38664e-08 DIIS
   @DF-RHF iter  12:  -460.38882621653784   -2.38174e-10   5.30653e-09 DIIS
   @DF-RHF iter  13:  -460.38882621656506   -2.72280e-11   2.62241e-09 DIIS
   @DF-RHF iter  14:  -460.38882621656842   -3.35376e-12   1.13355e-09 DIIS
   @DF-RHF iter  15:  -460.38882621657029   -1.87583e-12   5.85322e-10 DIIS
   @DF-RHF iter  16:  -460.38882621657115   -8.52651e-13   2.52002e-10 DIIS
   @DF-RHF iter  17:  -460.38882621656899    2.16005e-12   7.82340e-11 DIIS
  Energy and wave function converged.


  ==> Post-Iterations <==

    Orbital Energies [Eh]
    ---------------------

    Doubly Occupied:                                                      

       1A    -11.256110     2A    -11.247829     3A    -11.239879  
       4A    -11.239520     5A    -11.239233     6A    -11.237927  
       7A    -11.237383     8A    -11.237179     9A    -11.236797  
      10A    -11.236572    11A    -11.235838    12A    -11.233557  
      13A     -1.166088    14A     -1.139416    15A     -1.051660  
      16A     -1.024193    17A     -1.014200    18A     -0.976709  
      19A     -0.855943    20A     -0.839424    21A     -0.811342  
      22A     -0.787535    23A     -0.716572    24A     -0.685363  
      25A     -0.658405    26A     -0.638749    27A     -0.617088  
      28A     -0.607448    29A     -0.594499    30A     -0.585959  
      31A     -0.579535    32A     -0.527144    33A     -0.513866  
      34A     -0.503033    35A     -0.490615    36A     -0.489334  
      37A     -0.472530    38A     -0.364430    39A     -0.345301  
      40A     -0.338969    41A     -0.297814  

    Virtual:                                                              

      42A      0.028235    43A      0.030793    44A      0.031918  
      45A      0.039475    46A      0.041276    47A      0.048472  
      48A      0.051181    49A      0.056283    50A      0.060715  
      51A      0.063977    52A      0.081519    53A      0.090931  
      54A      0.093108    55A      0.094891    56A      0.102036  
      57A      0.103733    58A      0.106134    59A      0.112779  
      60A      0.114522    61A      0.115356    62A      0.116093  
      63A      0.122314    64A      0.124842    65A      0.125751  
      66A      0.128649    67A      0.130269    68A      0.134549  
      69A      0.135473    70A      0.139729    71A      0.147443  
      72A      0.148416    73A      0.149908    74A      0.155089  
      75A      0.155954    76A      0.156435    77A      0.159287  
      78A      0.161047    79A      0.162048    80A      0.175350  
      81A      0.179632    82A      0.183872    83A      0.192100  
      84A      0.194251    85A      0.198110    86A      0.207480  
      87A      0.210132    88A      0.216937    89A      0.231916  
      90A      0.235630    91A      0.239672    92A      0.242621  
      93A      0.245763    94A      0.254341    95A      0.256993  
      96A      0.260293    97A      0.265443    98A      0.267712  
      99A      0.272236   100A      0.274578   101A      0.276869  
     102A      0.290463   103A      0.294071   104A      0.295172  
     105A      0.299753   106A      0.300963   107A      0.304740  
     108A      0.307828   109A      0.308940   110A      0.313321  
     111A      0.313510   112A      0.320962   113A      0.322154  
     114A      0.329222   115A      0.330235   116A      0.331572  
     117A      0.337531   118A      0.339343   119A      0.341584  
     120A      0.350853   121A      0.360442   122A      0.363449  
     123A      0.368068   124A      0.370271   125A      0.372165  
     126A      0.375930   127A      0.378019   128A      0.390488  
     129A      0.394759   130A      0.415834   131A      0.419261  
     132A      0.420407   133A      0.423563   134A      0.430395  
     135A      0.434347   136A      0.438028   137A      0.443359  
     138A      0.445812   139A      0.449451   140A      0.451920  
     141A      0.453961   142A      0.456281   143A      0.466722  
     144A      0.470454   145A      0.475101   146A      0.478453  
     147A      0.483432   148A      0.484045   149A      0.484647  
     150A      0.486812   151A      0.490998   152A      0.491902  
     153A      0.494637   154A      0.498090   155A      0.498602  
     156A      0.503001   157A      0.505528   158A      0.511729  
     159A      0.518832   160A      0.519135   161A      0.523439  
     162A      0.525922   163A      0.527995   164A      0.529601  
     165A      0.533471   166A      0.535918   167A      0.536690  
     168A      0.538895   169A      0.544335   170A      0.546704  
     171A      0.547616   172A      0.557283   173A      0.557958  
     174A      0.563091   175A      0.571740   176A      0.582562  
     177A      0.587209   178A      0.590264   179A      0.595019  
     180A      0.600142   181A      0.608472   182A      0.611250  
     183A      0.617854   184A      0.629791   185A      0.632821  
     186A      0.644276   187A      0.644878   188A      0.645842  
     189A      0.657745   190A      0.661239   191A      0.672432  
     192A      0.673431   193A      0.692090   194A      0.695786  
     195A      0.698589   196A      0.702658   197A      0.706439  
     198A      0.709676   199A      0.711966   200A      0.714574  
     201A      0.719883   202A      0.724683   203A      0.729806  
     204A      0.731503   205A      0.743862   206A      0.749644  
     207A      0.753157   208A      0.757691   209A      0.767067  
     210A      0.769814   211A      0.777845   212A      0.784763  
     213A      0.792307   214A      0.799174   215A      0.810181  
     216A      0.813528   217A      0.819659   218A      0.833638  
     219A      0.837719   220A      0.847880   221A      0.851011  
     222A      0.857452   223A      0.863356   224A      0.868200  
     225A      0.872526   226A      0.873643   227A      0.876769  
     228A      0.883309   229A      0.883984   230A      0.890011  
     231A      0.890915   232A      0.898225   233A      0.899464  
     234A      0.902674   235A      0.909155   236A      0.912875  
     237A      0.918439   238A      0.921639   239A      0.923245  
     240A      0.924964   241A      0.929845   242A      0.933445  
     243A      0.938557   244A      0.942436   245A      0.953729  
     246A      0.958452   247A      0.961513   248A      0.967547  
     249A      0.969517   250A      0.973185   251A      0.990632  
     252A      0.994450   253A      0.997793   254A      1.002455  
     255A      1.006437   256A      1.010948   257A      1.012435  
     258A      1.020949   259A      1.026717   260A      1.032923  
     261A      1.038719   262A      1.039276   263A      1.047369  
     264A      1.053543   265A      1.054619   266A      1.059050  
     267A      1.063874   268A      1.067590   269A      1.072144  
     270A      1.079662   271A      1.081309   272A      1.082432  
     273A      1.086600   274A      1.088503   275A      1.097178  
     276A      1.100110   277A      1.103903   278A      1.109675  
     279A      1.118283   280A      1.122967   281A      1.128637  
     282A      1.131871   283A      1.136309   284A      1.137952  
     285A      1.142379   286A      1.151753   287A      1.157160  
     288A      1.163955   289A      1.169864   290A      1.173228  
     291A      1.173920   292A      1.175023   293A      1.183057  
     294A      1.184629   295A      1.187883   296A      1.192948  
     297A      1.193113   298A      1.200669   299A      1.203847  
     300A      1.214510   301A      1.221414   302A      1.228556  
     303A      1.230666   304A      1.237853   305A      1.242210  
     306A      1.247027   307A      1.249286   308A      1.250568  
     309A      1.256174   310A      1.265114   311A      1.268573  
     312A      1.272754   313A      1.276896   314A      1.287005  
     315A      1.298176   316A      1.306944   317A      1.313933  
     318A      1.315052   319A      1.321158   320A      1.337162  
     321A      1.345559   322A      1.349469   323A      1.361406  
     324A      1.368575   325A      1.374611   326A      1.380030  
     327A      1.381719   328A      1.392323   329A      1.399209  
     330A      1.402439   331A      1.410689   332A      1.412222  
     333A      1.420010   334A      1.423919   335A      1.438502  
     336A      1.442549   337A      1.447460   338A      1.454396  
     339A      1.468943   340A      1.481826   341A      1.482117  
     342A      1.484576   343A      1.489639   344A      1.497079  
     345A      1.512314   346A      1.524361   347A      1.527835  
     348A      1.529147   349A      1.537787   350A      1.552658  
     351A      1.560210   352A      1.564917   353A      1.573279  
     354A      1.579885   355A      1.581515   356A      1.587812  
     357A      1.595462   358A      1.609613   359A      1.613917  
     360A      1.634198   361A      1.640745   362A      1.641899  
     363A      1.662253   364A      1.681605   365A      1.695526  
     366A      1.701231   367A      1.704721   368A      1.707768  
     369A      1.719876   370A      1.726597   371A      1.728958  
     372A      1.735804   373A      1.740595   374A      1.743025  
     375A      1.760511   376A      1.763076   377A      1.766599  
     378A      1.768232   379A      1.794800   380A      1.808336  
     381A      1.813045   382A      1.820836   383A      1.827681  
     384A      1.831207   385A      1.836497   386A      1.839759  
     387A      1.843648   388A      1.847455   389A      1.853823  
     390A      1.856222   391A      1.878326   392A      1.886301  
     393A      1.898426   394A      1.898811   395A      1.905044  
     396A      1.913587   397A      1.917925   398A      1.929078  
     399A      1.936901   400A      1.942386   401A      1.947249  
     402A      1.966093   403A      1.978100   404A      1.980921  
     405A      1.988242   406A      1.991973   407A      2.003741  
     408A      2.015206   409A      2.017118   410A      2.025168  
     411A      2.030313   412A      2.034008   413A      2.035455  
     414A      2.043358   415A      2.046755   416A      2.054931  
     417A      2.060985   418A      2.073719   419A      2.076773  
     420A      2.084636   421A      2.093591   422A      2.097439  
     423A      2.099500   424A      2.121005   425A      2.123457  
     426A      2.128071   427A      2.133637   428A      2.150310  
     429A      2.156169   430A      2.167865   431A      2.170460  
     432A      2.177684   433A      2.183540   434A      2.191346  
     435A      2.196573   436A      2.225492   437A      2.238531  
     438A      2.248556   439A      2.255657   440A      2.259470  
     441A      2.268604   442A      2.294154   443A      2.297643  
     444A      2.304848   445A      2.316824   446A      2.328363  
     447A      2.334653   448A      2.339206   449A      2.350391  
     450A      2.371448   451A      2.378899   452A      2.382999  
     453A      2.391534   454A      2.401722   455A      2.402329  
     456A      2.410604   457A      2.415949   458A      2.421266  
     459A      2.429801   460A      2.438075   461A      2.456644  
     462A      2.465686   463A      2.490794   464A      2.496660  
     465A      2.520470   466A      2.523195   467A      2.535922  
     468A      2.554756   469A      2.564665   470A      2.566797  
     471A      2.595794   472A      2.598507   473A      2.608404  
     474A      2.623267   475A      2.638914   476A      2.650472  
     477A      2.663875   478A      2.681888   479A      2.700136  
     480A      2.734032   481A      2.749406   482A      2.771377  
     483A      2.781580   484A      2.785280   485A      2.819111  
     486A      2.828813   487A      2.837802   488A      2.852059  
     489A      2.871512   490A      2.879244   491A      2.929028  
     492A      2.954506   493A      2.974190   494A      3.035963  
     495A      3.054272   496A      3.065211   497A      3.080254  
     498A      3.165400   499A      3.177843   500A      3.184799  
     501A      3.187381   502A      3.199487   503A      3.217260  
     504A      3.220612   505A      3.244670   506A      3.259665  
     507A      3.281162   508A      3.285398   509A      3.313419  
     510A      3.318628   511A      3.335649   512A      3.355443  
     513A      3.363283   514A      3.371678   515A      3.376282  
     516A      3.382666   517A      3.389002   518A      3.393478  
     519A      3.402110   520A      3.411401   521A      3.435296  
     522A      3.442651   523A      3.449203   524A      3.453402  
     525A      3.454566   526A      3.460633   527A      3.474894  
     528A      3.478918   529A      3.490267   530A      3.500213  
     531A      3.506186   532A      3.520369   533A      3.528186  
     534A      3.535650   535A      3.537943   536A      3.552174  
     537A      3.557452   538A      3.563317   539A      3.568034  
     540A      3.577931   541A      3.585074   542A      3.587955  
     543A      3.591014   544A      3.606489   545A      3.614412  
     546A      3.624373   547A      3.630882   548A      3.635423  
     549A      3.639939   550A      3.652596   551A      3.666492  
     552A      3.691152   553A      3.696701   554A      3.701693  
     555A      3.715372   556A      3.717268   557A      3.739067  
     558A      3.752993   559A      3.755525   560A      3.772802  
     561A      3.786410   562A      3.797495   563A      3.802495  
     564A      3.809372   565A      3.818262   566A      3.822707  
     567A      3.829563   568A      3.833936   569A      3.844855  
     570A      3.859017   571A      3.860162   572A      3.867742  
     573A      3.875807   574A      3.891104   575A      3.896845  
     576A      3.914758   577A      3.917895   578A      3.930954  
     579A      3.935283   580A      3.941099   581A      3.947836  
     582A      3.962311   583A      3.965092   584A      3.972258  
     585A      3.975458   586A      3.984812   587A      3.994833  
     588A      4.004891   589A      4.025010   590A      4.025910  
     591A      4.030211   592A      4.033288   593A      4.042117  
     594A      4.048397   595A      4.055503   596A      4.059852  
     597A      4.072373   598A      4.083440   599A      4.087014  
     600A      4.103979   601A      4.111464   602A      4.118514  
     603A      4.125098   604A      4.129652   605A      4.136653  
     606A      4.161009   607A      4.169234   608A      4.181742  
     609A      4.188867   610A      4.192958   611A      4.202106  
     612A      4.219183   613A      4.222447   614A      4.236428  
     615A      4.251423   616A      4.257538   617A      4.264775  
     618A      4.279516   619A      4.286185   620A      4.294708  
     621A      4.298939   622A      4.318672   623A      4.329296  
     624A      4.335554   625A      4.339277   626A      4.352112  
     627A      4.357929   628A      4.368569   629A      4.377229  
     630A      4.387868   631A      4.390704   632A      4.398160  
     633A      4.408300   634A      4.422069   635A      4.432888  
     636A      4.441196   637A      4.442005   638A      4.444962  
     639A      4.454657   640A      4.457155   641A      4.468683  
     642A      4.473486   643A      4.484373   644A      4.487940  
     645A      4.492850   646A      4.499530   647A      4.517343  
     648A      4.526406   649A      4.534205   650A      4.544588  
     651A      4.550060   652A      4.593915   653A      4.618232  
     654A      4.622490   655A      4.632601   656A      4.640203  
     657A      4.676515   658A      4.687046   659A      4.704046  
     660A      4.717123   661A      4.721244   662A      4.730472  
     663A      4.749416   664A      4.759493   665A      4.761671  
     666A      4.771984   667A      4.772536   668A      4.783246  
     669A      4.798475   670A      4.806234   671A      4.830538  
     672A      4.853611   673A      4.875985   674A      4.889000  
     675A      4.908169   676A      4.919452   677A      4.936368  
     678A      4.962818   679A      4.977090   680A      4.985914  
     681A      4.991206   682A      5.000770   683A      5.014507  
     684A      5.019249   685A      5.031152   686A      5.047673  
     687A      5.058956   688A      5.072843   689A      5.083427  
     690A      5.085108   691A      5.103325   692A      5.106936  
     693A      5.124983   694A      5.126275   695A      5.140788  
     696A      5.145384   697A      5.162161   698A      5.167133  
     699A      5.173194   700A      5.175145   701A      5.181387  
     702A      5.184049   703A      5.205875   704A      5.221799  
     705A      5.224942   706A      5.232849   707A      5.253028  
     708A      5.285706   709A      5.291179   710A      5.302955  
     711A      5.306160   712A      5.325696   713A      5.334747  
     714A      5.342587   715A      5.360583   716A      5.368390  
     717A      5.376161   718A      5.402960   719A      5.426328  
     720A      5.434690   721A      5.440290   722A      5.476922  
     723A      5.491275   724A      5.511305   725A      5.526387  
     726A      5.538452   727A      5.554254   728A      5.610219  
     729A      5.626946   730A      5.652419   731A      5.685488  
     732A      5.750018   733A      5.754437   734A      5.787370  
     735A      5.801388   736A      5.820475   737A      5.829323  
     738A      5.840633   739A      5.846625   740A      5.923049  
     741A      5.977540   742A      6.038247   743A      6.147188  
     744A      6.164774   745A      6.171876   746A      6.190125  
     747A      6.218833   748A      6.220896   749A      6.259959  
     750A      6.271853   751A      6.300389   752A      6.344697  
     753A      6.377609   754A      6.384974   755A      6.456522  
     756A      6.470381   757A      6.555959   758A      6.575096  
     759A      6.610652   760A      6.623835   761A      6.750529  
     762A      6.791373   763A      6.873834   764A      6.905789  
     765A      6.975428   766A      7.008076   767A      7.122673  
     768A      7.196776   769A      7.299254   770A      7.370009  
     771A     15.993120   772A     16.156661   773A     16.505914  
     774A     16.723756   775A     18.491634   776A     18.931444  
     777A     18.992465   778A     19.187573   779A     19.913060  
     780A     20.005163   781A     20.142851   782A     21.471238  

    Final Occupation by Irrep:
              A 
    DOCC [    41 ]

  @DF-RHF Final Energy:  -460.38882621656899

   => Energetics <=

    Nuclear Repulsion Energy =            597.9740618875757718
    One-Electron Energy =               -1807.5838057125192790
    Two-Electron Energy =                 749.2209176083745206
    Total Energy =                       -460.3888262165689866

Computation Completed

*** tstop() called on node142.bme.utexas.edu at Tue Feb  2 23:05:12 2021
Module time:
	user time   =     718.79 seconds =      11.98 minutes
	system time =      96.94 seconds =       1.62 minutes
	total time  =        172 seconds =       2.87 minutes
Total time:
	user time   =     718.79 seconds =      11.98 minutes
	system time =      96.94 seconds =       1.62 minutes
	total time  =        172 seconds =       2.87 minutes
   => Loading Basis Set <=

    Name: (AUG-CC-PVTZ AUX)
    Role: RIFIT
    Keyword: DF_BASIS_MP2
    atoms 1-12  entry C          line   148 file /home/xy3866/psi4conda/share/psi4/basis/aug-cc-pvtz-ri.gbs 
    atoms 13-22 entry H          line    30 file /home/xy3866/psi4conda/share/psi4/basis/aug-cc-pvtz-ri.gbs 


*** tstart() called on node142.bme.utexas.edu
*** at Tue Feb  2 23:05:12 2021


  //>>>>>>>>>>>>>>>>>>>>>>>>>>>>>>>>>>>//
  //               DFMP2               //
  //<<<<<<<<<<<<<<<<<<<<<<<<<<<<<<<<<<<//

	 --------------------------------------------------------
	                          DF-MP2                         
	      2nd-Order Density-Fitted Moller-Plesset Theory     
	              RMP2 Wavefunction,   8 Threads             
	                                                         
	        Rob Parrish, Justin Turney, Andy Simmonett,      
	           Ed Hohenstein, and C. David Sherrill          
	 --------------------------------------------------------

   => Auxiliary Basis Set <=

  Basis Set: (AUG-CC-PVTZ AUX)
    Blend: AUG-CC-PVTZ-RI
    Number of shells: 476
    Number of basis function: 1732
    Number of Cartesian functions: 2182
    Spherical Harmonics?: true
    Max angular momentum: 4

	 --------------------------------------------------------
	                 NBF =   782, NAUX =  1732
	 --------------------------------------------------------
	   CLASS    FOCC     OCC    AOCC    AVIR     VIR    FVIR
	   PAIRS       0      41      41     741     741       0
	 --------------------------------------------------------

  DFHelper Memory: AOs need 7.280 GiB; user supplied 22.352 GiB. Using in-core AOs.


         ------------------------------------------------------------
                                     CPHF                           
                                  Rob Parrish                       
         ------------------------------------------------------------

  ==> Geometry <==

    Molecular point group: c1
    Full point group: C1

    Geometry (in Angstrom), charge = 0, multiplicity = 1:

       Center              X                  Y                   Z               Mass       
    ------------   -----------------  -----------------  -----------------  -----------------
         C            0.734913316338    -0.006193845822     0.002559063129    12.000000000000
         C           -0.742844683662    -0.006194845822     0.002540063129    12.000000000000
         C            1.500630116338     1.191286454178    -0.488496236871    12.000000000000
         C           -1.457647683662     1.111655154178     0.460936063129    12.000000000000
         C            1.449707316338    -1.124056845822     0.460930063129    12.000000000000
         C           -1.457632683662    -1.124058845822    -0.455833936871    12.000000000000
         C            2.844752316338     1.112056154178    -0.453460936871    12.000000000000
         C           -2.852689683662     1.112054154178     0.458539063129    12.000000000000
         C            2.844748316338    -1.124457845822     0.458554063129    12.000000000000
         C           -2.852674683662    -1.124459845822    -0.453473936871    12.000000000000
         C            3.546777316338    -0.006208845822     0.002530063129    12.000000000000
         C           -3.554708683662    -0.006211845822     0.002542063129    12.000000000000
         H            0.905414316338     1.972454154178    -0.839136936871     1.007825032230
         H           -0.913355683662     1.972451154178     0.844243063129     1.007825032230
         H            0.905403316338    -1.984832845822     0.844266063129     1.007825032230
         H           -0.913323683662    -1.984834845822    -0.839163936871     1.007825032230
         H            3.385083316338     1.982611154178    -0.818420936871     1.007825032230
         H           -3.393024683662     1.982605154178     0.823503063129     1.007825032230
         H            3.385076316338    -1.995022845822     0.823495063129     1.007825032230
         H           -3.392998683662    -1.995025845822    -0.818419936871     1.007825032230
         H            4.634115316338    -0.006214845822     0.002524063129     1.007825032230
         H           -4.642046683662    -0.006214845822     0.002526063129     1.007825032230

  Nuclear repulsion =  597.974061887575772
  Reference energy  = -460.388826216568987

  ==> Basis Set <==

  Basis Set: AUG-CC-PVTZ
    Blend: AUG-CC-PVTZ
    Number of shells: 258
    Number of basis function: 782
    Number of Cartesian functions: 910
    Spherical Harmonics?: true
    Max angular momentum: 3

  ==> CGRSolver (by Rob Parrish) <==

   Number of roots    =         1
   Preconditioning    =    JACOBI
   Convergence cutoff =     1E-06
   Maximum iterations =       100

  ==> CPHFRHamiltonian (by Rob Parrish) <== 

  ==> MemDFJK: Density-Fitted J/K Matrices <==

    J tasked:                   Yes
    K tasked:                   Yes
    wK tasked:                   No
    OpenMP threads:               8
    Memory [MiB]:             22888
    Algorithm:                 Disk
    Schwarz Cutoff:           1E-12
    Mask sparsity (%):       8.7813
    Fitting Condition:        1E-10

   => Auxiliary Basis Set <=

  Basis Set: (AUG-CC-PVTZ AUX)
    Blend: AUG-CC-PVTZ-JKFIT
    Number of shells: 500
    Number of basis function: 1708
    Number of Cartesian functions: 2122
    Spherical Harmonics?: true
    Max angular momentum: 4

  ==> CPHF Iterations <==

  => Iterations <=

             Iter  Converged  Remaining    Residual
  CGR           1          0          1   7.469E-02
  CGR           2          0          1   1.794E-02
  CGR           3          0          1   1.084E-02
  CGR           4          0          1   6.556E-03
  CGR           5          0          1   1.744E-03
  CGR           6          0          1   4.767E-04
  CGR           7          0          1   1.969E-04
  CGR           8          0          1   8.231E-05
  CGR           9          0          1   3.303E-05
  CGR          10          0          1   1.608E-05
  CGR          11          0          1   4.506E-06
  CGR          12          0          1   1.575E-06
  CGR          13          1          0   6.519E-07

    CGRSolver converged.

	-----------------------------------------------------------
	 ==================> DF-MP2 Energies <==================== 
	-----------------------------------------------------------
	 Reference Energy          =    -460.3888262165689866 [Eh]
	 Singles Energy            =      -0.0000000000000000 [Eh]
	 Same-Spin Energy          =      -0.5211637131785859 [Eh]
	 Opposite-Spin Energy      =      -1.6238803734160694 [Eh]
	 Correlation Energy        =      -2.1450440865946554 [Eh]
	 Total Energy              =    -462.5338703031636669 [Eh]
	-----------------------------------------------------------
	 ================> DF-SCS-MP2 Energies <================== 
	-----------------------------------------------------------
	 SCS Same-Spin Scale       =       0.3333333333333333 [-]
	 SCS Opposite-Spin Scale   =       1.2000000000000000 [-]
	 SCS Same-Spin Energy      =      -0.1737212377261953 [Eh]
	 SCS Opposite-Spin Energy  =      -1.9486564480992832 [Eh]
	 SCS Correlation Energy    =      -2.1223776858254784 [Eh]
	 SCS Total Energy          =    -462.5112039023944703 [Eh]
	-----------------------------------------------------------



Properties will be evaluated at  -0.000000,   0.000000,  -0.000000 [a0]

Properties computed using the MP2 density matrix

  Nuclear Dipole Moment: [e a0]
     X:    -0.0372      Y:    -0.0581      Z:     0.0238

  Electronic Dipole Moment: [e a0]
     X:     0.0225      Y:     0.0540      Z:    -0.0237

  Dipole Moment: [e a0]
     X:    -0.0147      Y:    -0.0041      Z:     0.0001     Total:     0.0153

  Dipole Moment: [D]
     X:    -0.0374      Y:    -0.0105      Z:     0.0002     Total:     0.0388


*** tstop() called on node142.bme.utexas.edu at Tue Feb  2 23:12:30 2021
Module time:
	user time   =    2726.41 seconds =      45.44 minutes
	system time =     107.65 seconds =       1.79 minutes
	total time  =        438 seconds =       7.30 minutes
Total time:
	user time   =    3445.45 seconds =      57.42 minutes
	system time =     204.59 seconds =       3.41 minutes
	total time  =        610 seconds =      10.17 minutes

    Psi4 stopped on: Tuesday, 02 February 2021 11:12PM
    Psi4 wall time for execution: 0:10:10.59

*** Psi4 exiting successfully. Buy a developer a beer!
