
    -----------------------------------------------------------------------
          Psi4: An Open-Source Ab Initio Electronic Structure Package
                               Psi4 1.4a3.dev225 

                         Git: Rev {master} 7105e37 


    D. G. A. Smith, L. A. Burns, A. C. Simmonett, R. M. Parrish,
    M. C. Schieber, R. Galvelis, P. Kraus, H. Kruse, R. Di Remigio,
    A. Alenaizan, A. M. James, S. Lehtola, J. P. Misiewicz, M. Scheurer,
    R. A. Shaw, J. B. Schriber, Y. Xie, Z. L. Glick, D. A. Sirianni,
    J. S. O'Brien, J. M. Waldrop, A. Kumar, E. G. Hohenstein,
    B. P. Pritchard, B. R. Brooks, H. F. Schaefer III, A. Yu. Sokolov,
    K. Patkowski, A. E. DePrince III, U. Bozkaya, R. A. King,
    F. A. Evangelista, J. M. Turney, T. D. Crawford, C. D. Sherrill,
    J. Chem. Phys. 152(18) 184108 (2020). https://doi.org/10.1063/5.0006002

                            Additional Code Authors
    E. T. Seidl, C. L. Janssen, E. F. Valeev, M. L. Leininger,
    J. F. Gonthier, R. M. Richard, H. R. McAlexander, M. Saitow, X. Wang,
    P. Verma, and M. H. Lechner

             Previous Authors, Complete List of Code Contributors,
                       and Citations for Specific Modules
    https://github.com/psi4/psi4/blob/master/codemeta.json
    https://github.com/psi4/psi4/graphs/contributors
    http://psicode.org/psi4manual/master/introduction.html#citing-psifour

    -----------------------------------------------------------------------


    Psi4 started on: Friday, 19 March 2021 05:09PM

    Process ID: 122207
    Host:       c434-071.stampede2.tacc.utexas.edu
    PSIDATADIR: /home1/07844/xy3866/miniconda3/envs/p4env/share/psi4
    Memory:     500.0 MiB
    Threads:    32
    
  ==> Input File <==

--------------------------------------------------------------------------
#psi4
#
memory 32 gb

molecule  {
0 1
  O        1.6854460    -0.6082710    -0.1241230
  O        0.5718390     1.2863960     0.0693880
  N        0.6408540     0.0479940     0.0121840
  C       -0.6686900    -0.7675294     0.1686792
  C       -1.8590430     0.0884940    -0.1214310
  H       -0.5100180    -1.5902840    -0.5111790
  H       -0.6037960    -1.1170010     1.1903640
  H       -1.9383190     0.9233440     0.5742920
  H       -1.8358000     0.4853590    -1.1379580
  H       -2.7432880    -0.5459410    -0.0161300
units angstrom
no_reorient  #important for SAPT in psi4, default
symmetry c1  #important for SAPT in psi4, default
}

set PROPERTIES_ORIGIN ["COM"]
properties('MP2/aug-cc-pvtz', properties = ['dipole'])
--------------------------------------------------------------------------

  Memory set to  29.802 GiB by Python driver.
    SCF Algorithm Type (re)set to DF.

*** tstart() called on c434-071.stampede2.tacc.utexas.edu
*** at Fri Mar 19 17:09:37 2021

   => Loading Basis Set <=

    Name: AUG-CC-PVTZ
    Role: ORBITAL
    Keyword: BASIS
    atoms 1-2  entry O          line   331 file /home1/07844/xy3866/miniconda3/envs/p4env/share/psi4/basis/aug-cc-pvtz.gbs 
    atoms 3    entry N          line   285 file /home1/07844/xy3866/miniconda3/envs/p4env/share/psi4/basis/aug-cc-pvtz.gbs 
    atoms 4-5  entry C          line   239 file /home1/07844/xy3866/miniconda3/envs/p4env/share/psi4/basis/aug-cc-pvtz.gbs 
    atoms 6-10 entry H          line    40 file /home1/07844/xy3866/miniconda3/envs/p4env/share/psi4/basis/aug-cc-pvtz.gbs 


         ---------------------------------------------------------
                                   SCF
               by Justin Turney, Rob Parrish, Andy Simmonett
                          and Daniel G. A. Smith
                              RHF Reference
                       32 Threads,  30517 MiB Core
         ---------------------------------------------------------

  ==> Geometry <==

    Molecular point group: c1
    Full point group: C1

    Geometry (in Angstrom), charge = 0, multiplicity = 1:

       Center              X                  Y                   Z               Mass       
    ------------   -----------------  -----------------  -----------------  -----------------
         O            1.591415818026    -0.628412182244    -0.123620240356    15.994914619570
         O            0.477808818026     1.266254817756     0.069890759644    15.994914619570
         N            0.546823818026     0.027852817756     0.012686759644    14.003074004430
         C           -0.762720181974    -0.787670582244     0.169181959644    12.000000000000
         C           -1.953073181974     0.068352817756    -0.120928240356    12.000000000000
         H           -0.604048181974    -1.610425182244    -0.510676240356     1.007825032230
         H           -0.697826181974    -1.137142182244     1.190866759644     1.007825032230
         H           -2.032349181974     0.903202817756     0.574794759644     1.007825032230
         H           -1.929830181974     0.465217817756    -1.137455240356     1.007825032230
         H           -2.837318181974    -0.566082182244    -0.015627240356     1.007825032230

  Running in c1 symmetry.

  Rotational constants: A =      0.34457  B =      0.13800  C =      0.10358 [cm^-1]
  Rotational constants: A =  10329.95617  B =   4137.05133  C =   3105.17232 [MHz]
  Nuclear repulsion =  181.879412056030503

  Charge       = 0
  Multiplicity = 1
  Electrons    = 40
  Nalpha       = 20
  Nbeta        = 20

  ==> Algorithm <==

  SCF Algorithm Type is DF.
  DIIS enabled.
  MOM disabled.
  Fractional occupation disabled.
  Guess Type is SAD.
  Energy threshold   = 1.00e-10
  Density threshold  = 1.00e-10
  Integral threshold = 1.00e-12

  ==> Primary Basis <==

  Basis Set: AUG-CC-PVTZ
    Blend: AUG-CC-PVTZ
    Number of shells: 115
    Number of basis functions: 345
    Number of Cartesian functions: 400
    Spherical Harmonics?: true
    Max angular momentum: 3

   => Loading Basis Set <=

    Name: (AUG-CC-PVTZ AUX)
    Role: JKFIT
    Keyword: DF_BASIS_SCF
    atoms 1-2  entry O          line   286 file /home1/07844/xy3866/miniconda3/envs/p4env/share/psi4/basis/aug-cc-pvtz-jkfit.gbs 
    atoms 3    entry N          line   224 file /home1/07844/xy3866/miniconda3/envs/p4env/share/psi4/basis/aug-cc-pvtz-jkfit.gbs 
    atoms 4-5  entry C          line   162 file /home1/07844/xy3866/miniconda3/envs/p4env/share/psi4/basis/aug-cc-pvtz-jkfit.gbs 
    atoms 6-10 entry H          line    70 file /home1/07844/xy3866/miniconda3/envs/p4env/share/psi4/basis/aug-cc-pvtz-jkfit.gbs 

  ==> Integral Setup <==

  DFHelper Memory: AOs need 0.709 GiB; user supplied 22.352 GiB. Using in-core AOs.

  ==> MemDFJK: Density-Fitted J/K Matrices <==

    J tasked:                   Yes
    K tasked:                   Yes
    wK tasked:                   No
    OpenMP threads:              32
    Memory [MiB]:             22888
    Algorithm:                 Core
    Schwarz Cutoff:           1E-12
    Mask sparsity (%):       1.8399
    Fitting Condition:        1E-10

   => Auxiliary Basis Set <=

  Basis Set: (AUG-CC-PVTZ AUX)
    Blend: AUG-CC-PVTZ-JKFIT
    Number of shells: 220
    Number of basis functions: 750
    Number of Cartesian functions: 930
    Spherical Harmonics?: true
    Max angular momentum: 4

  Minimum eigenvalue in the overlap matrix is 1.4554618937E-05.
  Reciprocal condition number of the overlap matrix is 9.6604311976E-07.
    Using symmetric orthogonalization.

  ==> Pre-Iterations <==

  SCF Guess: Superposition of Atomic Densities via on-the-fly atomic UHF (no occupation information).

   -------------------------
    Irrep   Nso     Nmo    
   -------------------------
     A        345     345 
   -------------------------
    Total     345     345
   -------------------------

  ==> Iterations <==

                           Total Energy        Delta E     RMS |[F,P]|

   @DF-RHF iter SAD:  -281.96968869912519   -2.81970e+02   0.00000e+00 
   @DF-RHF iter   1:  -282.57433997584945   -6.04651e-01   2.08833e-03 DIIS
   @DF-RHF iter   2:  -282.70126239139512   -1.26922e-01   1.61112e-03 DIIS
   @DF-RHF iter   3:  -282.80022293462520   -9.89605e-02   2.13514e-04 DIIS
   @DF-RHF iter   4:  -282.80373459969644   -3.51167e-03   8.10008e-05 DIIS
   @DF-RHF iter   5:  -282.80434191498478   -6.07315e-04   1.88272e-05 DIIS
   @DF-RHF iter   6:  -282.80438098871900   -3.90737e-05   6.66532e-06 DIIS
   @DF-RHF iter   7:  -282.80438487124502   -3.88253e-06   3.26135e-06 DIIS
   @DF-RHF iter   8:  -282.80438563893523   -7.67690e-07   1.14427e-06 DIIS
   @DF-RHF iter   9:  -282.80438578730400   -1.48369e-07   4.20741e-07 DIIS
   @DF-RHF iter  10:  -282.80438581602237   -2.87184e-08   1.27862e-07 DIIS
   @DF-RHF iter  11:  -282.80438581914569   -3.12332e-09   3.75159e-08 DIIS
   @DF-RHF iter  12:  -282.80438581952217   -3.76474e-10   1.84474e-08 DIIS
   @DF-RHF iter  13:  -282.80438581962767   -1.05501e-10   9.19002e-09 DIIS
   @DF-RHF iter  14:  -282.80438581966024   -3.25713e-11   4.36626e-09 DIIS
   @DF-RHF iter  15:  -282.80438581966553   -5.28644e-12   1.40301e-09 DIIS
   @DF-RHF iter  16:  -282.80438581966644   -9.09495e-13   4.01194e-10 DIIS
   @DF-RHF iter  17:  -282.80438581966598    4.54747e-13   1.11593e-10 DIIS
   @DF-RHF iter  18:  -282.80438581966678   -7.95808e-13   5.09667e-11 DIIS
  Energy and wave function converged.


  ==> Post-Iterations <==

    Orbital Energies [Eh]
    ---------------------

    Doubly Occupied:                                                      

       1A    -20.607578     2A    -20.605046     3A    -15.844792  
       4A    -11.317219     5A    -11.250689     6A     -1.582554  
       7A     -1.385679     8A     -1.119714     9A     -0.964257  
      10A     -0.842029    11A     -0.745617    12A     -0.727858  
      13A     -0.716224    14A     -0.638542    15A     -0.593780  
      16A     -0.572363    17A     -0.541677    18A     -0.493731  
      19A     -0.479012    20A     -0.450640  

    Virtual:                                                              

      21A      0.022260    22A      0.035620    23A      0.038229  
      24A      0.045896    25A      0.061058    26A      0.084004  
      27A      0.090474    28A      0.095224    29A      0.109954  
      30A      0.115472    31A      0.124237    32A      0.128286  
      33A      0.138421    34A      0.146992    35A      0.151926  
      36A      0.166918    37A      0.176172    38A      0.206959  
      39A      0.210865    40A      0.213597    41A      0.218870  
      42A      0.233394    43A      0.241183    44A      0.248708  
      45A      0.266535    46A      0.272212    47A      0.279249  
      48A      0.284632    49A      0.296341    50A      0.309493  
      51A      0.327100    52A      0.334250    53A      0.341813  
      54A      0.347134    55A      0.351049    56A      0.362447  
      57A      0.370019    58A      0.378741    59A      0.382349  
      60A      0.386535    61A      0.398825    62A      0.407620  
      63A      0.415748    64A      0.424684    65A      0.428316  
      66A      0.440170    67A      0.451899    68A      0.465224  
      69A      0.476615    70A      0.491046    71A      0.500850  
      72A      0.507129    73A      0.512588    74A      0.520169  
      75A      0.529598    76A      0.538339    77A      0.553950  
      78A      0.567985    79A      0.583492    80A      0.610817  
      81A      0.627108    82A      0.647852    83A      0.679273  
      84A      0.689892    85A      0.715519    86A      0.744878  
      87A      0.754528    88A      0.762864    89A      0.783828  
      90A      0.794619    91A      0.801581    92A      0.808510  
      93A      0.821492    94A      0.835832    95A      0.841013  
      96A      0.849776    97A      0.858286    98A      0.870679  
      99A      0.881530   100A      0.893722   101A      0.896608  
     102A      0.900727   103A      0.907765   104A      0.920192  
     105A      0.927280   106A      0.934750   107A      0.947935  
     108A      0.958112   109A      0.986368   110A      0.989263  
     111A      1.006387   112A      1.032437   113A      1.045377  
     114A      1.048094   115A      1.058678   116A      1.062741  
     117A      1.071763   118A      1.087021   119A      1.101718  
     120A      1.123032   121A      1.128799   122A      1.157987  
     123A      1.159125   124A      1.166414   125A      1.182502  
     126A      1.189413   127A      1.213671   128A      1.235619  
     129A      1.240972   130A      1.246096   131A      1.278768  
     132A      1.293386   133A      1.308989   134A      1.319963  
     135A      1.346749   136A      1.362856   137A      1.383864  
     138A      1.395195   139A      1.408565   140A      1.419864  
     141A      1.434816   142A      1.465631   143A      1.489233  
     144A      1.515329   145A      1.542323   146A      1.551995  
     147A      1.578972   148A      1.583342   149A      1.604429  
     150A      1.620474   151A      1.630866   152A      1.642577  
     153A      1.652307   154A      1.659636   155A      1.669919  
     156A      1.680395   157A      1.695514   158A      1.718349  
     159A      1.734971   160A      1.761614   161A      1.784087  
     162A      1.787704   163A      1.816509   164A      1.861003  
     165A      1.863986   166A      1.875105   167A      1.896538  
     168A      1.918246   169A      1.923768   170A      1.940609  
     171A      1.971591   172A      1.998652   173A      2.014446  
     174A      2.042710   175A      2.060195   176A      2.085814  
     177A      2.129119   178A      2.150931   179A      2.171257  
     180A      2.184161   181A      2.203585   182A      2.208230  
     183A      2.218974   184A      2.230042   185A      2.246616  
     186A      2.262946   187A      2.293272   188A      2.326721  
     189A      2.334577   190A      2.367801   191A      2.392609  
     192A      2.404020   193A      2.424501   194A      2.430652  
     195A      2.460623   196A      2.491390   197A      2.551231  
     198A      2.560296   199A      2.574629   200A      2.599182  
     201A      2.622131   202A      2.655824   203A      2.675596  
     204A      2.689453   205A      2.740409   206A      2.766086  
     207A      2.818438   208A      2.877531   209A      2.907567  
     210A      2.912467   211A      2.941204   212A      3.000296  
     213A      3.130565   214A      3.164166   215A      3.193292  
     216A      3.218723   217A      3.234629   218A      3.330666  
     219A      3.366749   220A      3.396203   221A      3.419637  
     222A      3.439873   223A      3.484108   224A      3.508954  
     225A      3.527740   226A      3.558525   227A      3.596523  
     228A      3.615921   229A      3.636061   230A      3.682910  
     231A      3.693986   232A      3.713015   233A      3.722822  
     234A      3.760120   235A      3.784427   236A      3.820695  
     237A      3.824105   238A      3.872498   239A      3.914885  
     240A      3.928234   241A      3.937499   242A      3.958062  
     243A      3.971102   244A      4.005672   245A      4.035449  
     246A      4.061368   247A      4.086211   248A      4.129615  
     249A      4.145493   250A      4.170346   251A      4.181461  
     252A      4.225704   253A      4.240028   254A      4.284473  
     255A      4.294973   256A      4.389781   257A      4.407098  
     258A      4.450247   259A      4.460060   260A      4.538333  
     261A      4.584363   262A      4.617919   263A      4.630798  
     264A      4.733566   265A      4.748979   266A      4.793545  
     267A      4.805827   268A      4.815810   269A      4.852807  
     270A      4.871821   271A      4.902616   272A      4.918307  
     273A      4.930252   274A      4.977669   275A      4.998933  
     276A      5.029689   277A      5.060587   278A      5.088735  
     279A      5.107766   280A      5.161577   281A      5.189200  
     282A      5.223921   283A      5.254169   284A      5.270580  
     285A      5.313463   286A      5.335828   287A      5.366207  
     288A      5.382334   289A      5.411106   290A      5.440983  
     291A      5.494321   292A      5.532983   293A      5.544899  
     294A      5.600200   295A      5.621547   296A      5.656292  
     297A      5.668832   298A      5.716739   299A      5.778056  
     300A      5.805469   301A      5.875941   302A      5.916259  
     303A      5.964085   304A      5.971267   305A      6.060950  
     306A      6.089126   307A      6.149879   308A      6.182256  
     309A      6.228261   310A      6.272341   311A      6.403620  
     312A      6.516955   313A      6.611479   314A      6.638886  
     315A      6.659645   316A      6.688226   317A      6.696513  
     318A      6.729774   319A      6.775442   320A      6.790164  
     321A      6.817482   322A      6.878051   323A      6.908536  
     324A      6.964096   325A      7.112851   326A      7.245558  
     327A      7.331886   328A      7.339818   329A      7.342294  
     330A      7.369310   331A      7.390870   332A      7.614226  
     333A      7.689657   334A      7.699222   335A      7.724150  
     336A      7.905697   337A      7.948124   338A      7.983480  
     339A      8.173985   340A      8.428110   341A     14.851792  
     342A     15.618970   343A     17.312153   344A     18.446351  
     345A     19.455798  

    Final Occupation by Irrep:
              A 
    DOCC [    20 ]

  @DF-RHF Final Energy:  -282.80438581966678

   => Energetics <=

    Nuclear Repulsion Energy =            181.8794120560305032
    One-Electron Energy =                -746.4095931955923788
    Two-Electron Energy =                 281.7257953198950418
    Total Energy =                       -282.8043858196667770

Computation Completed

*** tstop() called on c434-071.stampede2.tacc.utexas.edu at Fri Mar 19 17:09:49 2021
Module time:
	user time   =     159.53 seconds =       2.66 minutes
	system time =      14.71 seconds =       0.25 minutes
	total time  =         12 seconds =       0.20 minutes
Total time:
	user time   =     159.53 seconds =       2.66 minutes
	system time =      14.71 seconds =       0.25 minutes
	total time  =         12 seconds =       0.20 minutes
   => Loading Basis Set <=

    Name: (AUG-CC-PVTZ AUX)
    Role: RIFIT
    Keyword: DF_BASIS_MP2
    atoms 1-2  entry O          line   264 file /home1/07844/xy3866/miniconda3/envs/p4env/share/psi4/basis/aug-cc-pvtz-ri.gbs 
    atoms 3    entry N          line   206 file /home1/07844/xy3866/miniconda3/envs/p4env/share/psi4/basis/aug-cc-pvtz-ri.gbs 
    atoms 4-5  entry C          line   148 file /home1/07844/xy3866/miniconda3/envs/p4env/share/psi4/basis/aug-cc-pvtz-ri.gbs 
    atoms 6-10 entry H          line    30 file /home1/07844/xy3866/miniconda3/envs/p4env/share/psi4/basis/aug-cc-pvtz-ri.gbs 


*** tstart() called on c434-071.stampede2.tacc.utexas.edu
*** at Fri Mar 19 17:09:49 2021


  //>>>>>>>>>>>>>>>>>>>>>>>>>>>>>>>>>>>//
  //               DFMP2               //
  //<<<<<<<<<<<<<<<<<<<<<<<<<<<<<<<<<<<//

	 --------------------------------------------------------
	                          DF-MP2                         
	      2nd-Order Density-Fitted Moller-Plesset Theory     
	              RMP2 Wavefunction,  32 Threads             
	                                                         
	        Rob Parrish, Justin Turney, Andy Simmonett,      
	           Ed Hohenstein, and C. David Sherrill          
	 --------------------------------------------------------

   => Auxiliary Basis Set <=

  Basis Set: (AUG-CC-PVTZ AUX)
    Blend: AUG-CC-PVTZ-RI
    Number of shells: 210
    Number of basis functions: 760
    Number of Cartesian functions: 955
    Spherical Harmonics?: true
    Max angular momentum: 4

	 --------------------------------------------------------
	                 NBF =   345, NAUX =   760
	 --------------------------------------------------------
	   CLASS    FOCC     OCC    AOCC    AVIR     VIR    FVIR
	   PAIRS       0      20      20     325     325       0
	 --------------------------------------------------------

  DFHelper Memory: AOs need 0.715 GiB; user supplied 22.352 GiB. Using in-core AOs.


         ------------------------------------------------------------
                                     CPHF                           
                                  Rob Parrish                       
         ------------------------------------------------------------

  ==> Geometry <==

    Molecular point group: c1
    Full point group: C1

    Geometry (in Angstrom), charge = 0, multiplicity = 1:

       Center              X                  Y                   Z               Mass       
    ------------   -----------------  -----------------  -----------------  -----------------
         O            1.591415818026    -0.628412182244    -0.123620240356    15.994914619570
         O            0.477808818026     1.266254817756     0.069890759644    15.994914619570
         N            0.546823818026     0.027852817756     0.012686759644    14.003074004430
         C           -0.762720181974    -0.787670582244     0.169181959644    12.000000000000
         C           -1.953073181974     0.068352817756    -0.120928240356    12.000000000000
         H           -0.604048181974    -1.610425182244    -0.510676240356     1.007825032230
         H           -0.697826181974    -1.137142182244     1.190866759644     1.007825032230
         H           -2.032349181974     0.903202817756     0.574794759644     1.007825032230
         H           -1.929830181974     0.465217817756    -1.137455240356     1.007825032230
         H           -2.837318181974    -0.566082182244    -0.015627240356     1.007825032230

  Nuclear repulsion =  181.879412056030503
  Reference energy  = -282.804385819666777

  ==> Basis Set <==

  Basis Set: AUG-CC-PVTZ
    Blend: AUG-CC-PVTZ
    Number of shells: 115
    Number of basis functions: 345
    Number of Cartesian functions: 400
    Spherical Harmonics?: true
    Max angular momentum: 3

  ==> CGRSolver (by Rob Parrish) <==

   Number of roots    =         1
   Preconditioning    =    JACOBI
   Convergence cutoff =     1E-06
   Maximum iterations =       100

  ==> CPHFRHamiltonian (by Rob Parrish) <== 

  ==> MemDFJK: Density-Fitted J/K Matrices <==

    J tasked:                   Yes
    K tasked:                   Yes
    wK tasked:                   No
    OpenMP threads:              32
    Memory [MiB]:             22888
    Algorithm:                 Core
    Schwarz Cutoff:           1E-12
    Mask sparsity (%):       1.0670
    Fitting Condition:        1E-10

   => Auxiliary Basis Set <=

  Basis Set: (AUG-CC-PVTZ AUX)
    Blend: AUG-CC-PVTZ-JKFIT
    Number of shells: 220
    Number of basis functions: 750
    Number of Cartesian functions: 930
    Spherical Harmonics?: true
    Max angular momentum: 4

  ==> CPHF Iterations <==

  => Iterations <=

             Iter  Converged  Remaining    Residual
  CGR           1          0          1   1.698E-01
  CGR           2          0          1   5.334E-02
  CGR           3          0          1   2.306E-02
  CGR           4          0          1   5.985E-03
  CGR           5          0          1   1.799E-03
  CGR           6          0          1   7.545E-04
  CGR           7          0          1   1.976E-04
  CGR           8          0          1   7.579E-05
  CGR           9          0          1   3.219E-05
  CGR          10          0          1   1.543E-05
  CGR          11          0          1   5.454E-06
  CGR          12          0          1   2.067E-06
  CGR          13          1          0   6.768E-07

    CGRSolver converged.

	-----------------------------------------------------------
	 ==================> DF-MP2 Energies <==================== 
	-----------------------------------------------------------
	 Reference Energy          =    -282.8043858196667770 [Eh]
	 Singles Energy            =      -0.0000000000000000 [Eh]
	 Same-Spin Energy          =      -0.2810494107397596 [Eh]
	 Opposite-Spin Energy      =      -0.8691342423588249 [Eh]
	 Correlation Energy        =      -1.1501836530985845 [Eh]
	 Total Energy              =    -283.9545694727653427 [Eh]
	-----------------------------------------------------------
	 ================> DF-SCS-MP2 Energies <================== 
	-----------------------------------------------------------
	 SCS Same-Spin Scale       =       0.3333333333333333 [-]
	 SCS Opposite-Spin Scale   =       1.2000000000000000 [-]
	 SCS Same-Spin Energy      =      -0.0936831369132532 [Eh]
	 SCS Opposite-Spin Energy  =      -1.0429610908305897 [Eh]
	 SCS Correlation Energy    =      -1.1366442277438429 [Eh]
	 SCS Total Energy          =    -283.9410300474106066 [Eh]
	-----------------------------------------------------------



Properties will be evaluated at  -0.000000,   0.000000,   0.000000 [a0]

Properties computed using the MP2 density matrix

  Nuclear Dipole Moment: [e a0]
     X:    -7.5864      Y:    -1.8206      Z:     0.0952

  Electronic Dipole Moment: [e a0]
     X:     6.2770      Y:     1.1898      Z:     0.0178

  Dipole Moment: [e a0]
     X:    -1.3094      Y:    -0.6309      Z:     0.1130     Total:     1.4578

  Dipole Moment: [D]
     X:    -3.3281      Y:    -1.6035      Z:     0.2873     Total:     3.7054


*** tstop() called on c434-071.stampede2.tacc.utexas.edu at Fri Mar 19 17:10:36 2021
Module time:
	user time   =     309.24 seconds =       5.15 minutes
	system time =      13.87 seconds =       0.23 minutes
	total time  =         47 seconds =       0.78 minutes
Total time:
	user time   =     470.69 seconds =       7.84 minutes
	system time =      28.72 seconds =       0.48 minutes
	total time  =         59 seconds =       0.98 minutes

    Psi4 stopped on: Friday, 19 March 2021 05:10PM
    Psi4 wall time for execution: 0:00:59.04

*** Psi4 exiting successfully. Buy a developer a beer!
