
    -----------------------------------------------------------------------
          Psi4: An Open-Source Ab Initio Electronic Structure Package
                               Psi4 1.3.2 release

                         Git: Rev {HEAD} ecbda83 


    R. M. Parrish, L. A. Burns, D. G. A. Smith, A. C. Simmonett,
    A. E. DePrince III, E. G. Hohenstein, U. Bozkaya, A. Yu. Sokolov,
    R. Di Remigio, R. M. Richard, J. F. Gonthier, A. M. James,
    H. R. McAlexander, A. Kumar, M. Saitow, X. Wang, B. P. Pritchard,
    P. Verma, H. F. Schaefer III, K. Patkowski, R. A. King, E. F. Valeev,
    F. A. Evangelista, J. M. Turney, T. D. Crawford, and C. D. Sherrill,
    J. Chem. Theory Comput. 13(7) pp 3185--3197 (2017).
    (doi: 10.1021/acs.jctc.7b00174)


                         Additional Contributions by
    P. Kraus, H. Kruse, M. H. Lechner, M. C. Schieber, R. A. Shaw,
    A. Alenaizan, R. Galvelis, Z. L. Glick, S. Lehtola, and J. P. Misiewicz

    -----------------------------------------------------------------------


    Psi4 started on: Tuesday, 02 February 2021 05:44AM

    Process ID: 73490
    Host:       node35.bme.utexas.edu
    PSIDATADIR: /home/xy3866/psi4conda/share/psi4
    Memory:     500.0 MiB
    Threads:    8
    
  ==> Input File <==

--------------------------------------------------------------------------
#psi4
#
memory 32 gb

molecule  {
0 1
  O       -1.2482290     1.5306510     0.0000030
  N        1.4898689     0.4566417    -0.0000063
  N        0.6053200    -1.5732460     0.0000100
  N       -1.9984820    -0.6503890    -0.0000010
  C        0.3259400    -0.2627350     0.0000100
  C        2.5213300    -0.3786110    -0.0000100
  C        1.5711040     1.9546380     0.0000020
  C       -1.0383320     0.3066720     0.0000020
  C        1.9690460    -1.6456460     0.0000000
  C       -3.4103270    -0.3314980    -0.0000060
  H        3.5447240    -0.0301030    -0.0000120
  H        1.0842430     2.3633630    -0.8839110
  H        1.0842880     2.3633490     0.8839480
  H        2.6322840     2.2067670    -0.0000220
  H        2.4866360    -2.5959740    -0.0000050
  H       -1.6732310    -1.6118380    -0.0000010
  H       -3.9026090    -0.7325290     0.8908020
  H       -3.9026030    -0.7325320    -0.8908160
  H       -3.4966990     0.7550430    -0.0000090
units angstrom
no_reorient  #important for SAPT in psi4, default
symmetry c1  #important for SAPT in psi4, default
}

set PROPERTIES_ORIGIN ["COM"]
properties('MP2/aug-cc-pvtz', properties = ['dipole'])
--------------------------------------------------------------------------

  Memory set to  29.802 GiB by Python driver.
    SCF Algorithm Type (re)set to DF.

*** tstart() called on node35.bme.utexas.edu
*** at Tue Feb  2 05:44:35 2021

   => Loading Basis Set <=

    Name: AUG-CC-PVTZ
    Role: ORBITAL
    Keyword: BASIS
    atoms 1     entry O          line   327 file /home/xy3866/psi4conda/share/psi4/basis/aug-cc-pvtz.gbs 
    atoms 2-4   entry N          line   281 file /home/xy3866/psi4conda/share/psi4/basis/aug-cc-pvtz.gbs 
    atoms 5-10  entry C          line   235 file /home/xy3866/psi4conda/share/psi4/basis/aug-cc-pvtz.gbs 
    atoms 11-19 entry H          line    36 file /home/xy3866/psi4conda/share/psi4/basis/aug-cc-pvtz.gbs 


         ---------------------------------------------------------
                                   SCF
               by Justin Turney, Rob Parrish, Andy Simmonett
                          and Daniel G. A. Smith
                              RHF Reference
                        8 Threads,  30517 MiB Core
         ---------------------------------------------------------

  ==> Geometry <==

    Molecular point group: c1
    Full point group: C1

    Geometry (in Angstrom), charge = 0, multiplicity = 1:

       Center              X                  Y                   Z               Mass       
    ------------   -----------------  -----------------  -----------------  -----------------
         O           -1.266163795382     1.548956165885     0.000002744097    15.994914619570
         N            1.471934104618     0.474946865885    -0.000006555903    14.003074004430
         N            0.587385204618    -1.554940834115     0.000009744097    14.003074004430
         N           -2.016416795382    -0.632083834115    -0.000001255903    14.003074004430
         C            0.308005204618    -0.244429834115     0.000009744097    12.000000000000
         C            2.503395204618    -0.360305834115    -0.000010255903    12.000000000000
         C            1.553169204618     1.972943165885     0.000001744097    12.000000000000
         C           -1.056266795382     0.324977165885     0.000001744097    12.000000000000
         C            1.951111204618    -1.627340834115    -0.000000255903    12.000000000000
         C           -3.428261795382    -0.313192834115    -0.000006255903    12.000000000000
         H            3.526789204618    -0.011797834115    -0.000012255903     1.007825032230
         H            1.066308204618     2.381668165885    -0.883911255903     1.007825032230
         H            1.066353204618     2.381654165885     0.883947744097     1.007825032230
         H            2.614349204618     2.225072165885    -0.000022255903     1.007825032230
         H            2.468701204618    -2.577668834115    -0.000005255903     1.007825032230
         H           -1.691165795382    -1.593532834115    -0.000001255903     1.007825032230
         H           -3.920543795382    -0.714223834115     0.890801744097     1.007825032230
         H           -3.920537795382    -0.714226834115    -0.890816255903     1.007825032230
         H           -3.514633795382     0.773348165885    -0.000009255903     1.007825032230

  Running in c1 symmetry.

  Rotational constants: A =      0.08676  B =      0.03366  C =      0.02447 [cm^-1]
  Rotational constants: A =   2600.92663  B =   1009.01758  C =    733.68705 [MHz]
  Nuclear repulsion =  527.346683935984402

  Charge       = 0
  Multiplicity = 1
  Electrons    = 74
  Nalpha       = 37
  Nbeta        = 37

  ==> Algorithm <==

  SCF Algorithm Type is DF.
  DIIS enabled.
  MOM disabled.
  Fractional occupation disabled.
  Guess Type is SAD.
  Energy threshold   = 1.00e-10
  Density threshold  = 1.00e-10
  Integral threshold = 0.00e+00

  ==> Primary Basis <==

  Basis Set: AUG-CC-PVTZ
    Blend: AUG-CC-PVTZ
    Number of shells: 221
    Number of basis function: 667
    Number of Cartesian functions: 775
    Spherical Harmonics?: true
    Max angular momentum: 3

   => Loading Basis Set <=

    Name: (AUG-CC-PVTZ AUX)
    Role: JKFIT
    Keyword: DF_BASIS_SCF
    atoms 1     entry O          line   286 file /home/xy3866/psi4conda/share/psi4/basis/aug-cc-pvtz-jkfit.gbs 
    atoms 2-4   entry N          line   224 file /home/xy3866/psi4conda/share/psi4/basis/aug-cc-pvtz-jkfit.gbs 
    atoms 5-10  entry C          line   162 file /home/xy3866/psi4conda/share/psi4/basis/aug-cc-pvtz-jkfit.gbs 
    atoms 11-19 entry H          line    70 file /home/xy3866/psi4conda/share/psi4/basis/aug-cc-pvtz-jkfit.gbs 

  ==> Pre-Iterations <==

   -------------------------------------------------------
    Irrep   Nso     Nmo     Nalpha   Nbeta   Ndocc  Nsocc
   -------------------------------------------------------
     A        667     667       0       0       0       0
   -------------------------------------------------------
    Total     667     667      37      37      37       0
   -------------------------------------------------------

  ==> Integral Setup <==

  DFHelper Memory: AOs need 4.615 GiB; user supplied 22.352 GiB. Using in-core AOs.

  ==> MemDFJK: Density-Fitted J/K Matrices <==

    J tasked:                   Yes
    K tasked:                   Yes
    wK tasked:                   No
    OpenMP threads:               8
    Memory [MiB]:             22888
    Algorithm:                 Disk
    Schwarz Cutoff:           1E-12
    Mask sparsity (%):       6.9797
    Fitting Condition:        1E-10

   => Auxiliary Basis Set <=

  Basis Set: (AUG-CC-PVTZ AUX)
    Blend: AUG-CC-PVTZ-JKFIT
    Number of shells: 426
    Number of basis function: 1454
    Number of Cartesian functions: 1805
    Spherical Harmonics?: true
    Max angular momentum: 4

  Minimum eigenvalue in the overlap matrix is 1.7500608862E-06.
  Using Symmetric Orthogonalization.

  SCF Guess: Superposition of Atomic Densities via on-the-fly atomic UHF.

  ==> Iterations <==

                           Total Energy        Delta E     RMS |[F,P]|

   @DF-RHF iter SAD:  -470.25415915714365   -4.70254e+02   0.00000e+00 
   @DF-RHF iter   1:  -470.56637760465321   -3.12218e-01   1.05982e-03 DIIS
   @DF-RHF iter   2:  -470.77124918149627   -2.04872e-01   5.92331e-04 DIIS
   @DF-RHF iter   3:  -470.82746531837375   -5.62161e-02   1.40097e-04 DIIS
   @DF-RHF iter   4:  -470.83221450667708   -4.74919e-03   5.05919e-05 DIIS
   @DF-RHF iter   5:  -470.83291285896928   -6.98352e-04   1.13252e-05 DIIS
   @DF-RHF iter   6:  -470.83297494506087   -6.20861e-05   5.47659e-06 DIIS
   @DF-RHF iter   7:  -470.83299103303733   -1.60880e-05   2.08652e-06 DIIS
   @DF-RHF iter   8:  -470.83299457351558   -3.54048e-06   8.73411e-07 DIIS
   @DF-RHF iter   9:  -470.83299509947926   -5.25964e-07   4.26838e-07 DIIS
   @DF-RHF iter  10:  -470.83299519944973   -9.99705e-08   1.31761e-07 DIIS
   @DF-RHF iter  11:  -470.83299521104129   -1.15916e-08   4.98938e-08 DIIS
   @DF-RHF iter  12:  -470.83299521255685   -1.51556e-09   2.19734e-08 DIIS
   @DF-RHF iter  13:  -470.83299521288598   -3.29123e-10   7.05442e-09 DIIS
   @DF-RHF iter  14:  -470.83299521292724   -4.12683e-11   3.24907e-09 DIIS
   @DF-RHF iter  15:  -470.83299521293645   -9.20863e-12   1.58049e-09 DIIS
   @DF-RHF iter  16:  -470.83299521293844   -1.98952e-12   6.30613e-10 DIIS
   @DF-RHF iter  17:  -470.83299521293873   -2.84217e-13   2.64058e-10 DIIS
   @DF-RHF iter  18:  -470.83299521293770    1.02318e-12   7.75026e-11 DIIS
  Energy and wave function converged.


  ==> Post-Iterations <==

    Orbital Energies [Eh]
    ---------------------

    Doubly Occupied:                                                      

       1A    -20.521166     2A    -15.638433     3A    -15.584127  
       4A    -15.564939     5A    -11.362331     6A    -11.300060  
       7A    -11.279279     8A    -11.269904     9A    -11.257953  
      10A    -11.251399    11A     -1.382148    12A     -1.352802  
      13A     -1.233916    14A     -1.187284    15A     -1.038688  
      16A     -0.977435    17A     -0.949704    18A     -0.840993  
      19A     -0.816548    20A     -0.772136    21A     -0.735480  
      22A     -0.665132    23A     -0.656383    24A     -0.644771  
      25A     -0.618706    26A     -0.603398    27A     -0.588735  
      28A     -0.581344    29A     -0.567445    30A     -0.562467  
      31A     -0.545244    32A     -0.531649    33A     -0.456412  
      34A     -0.433520    35A     -0.402040    36A     -0.388978  
      37A     -0.320216  

    Virtual:                                                              

      38A      0.025491    39A      0.031913    40A      0.035782  
      41A      0.045108    42A      0.046718    43A      0.051208  
      44A      0.055008    45A      0.061419    46A      0.072277  
      47A      0.082378    48A      0.084984    49A      0.097790  
      50A      0.101665    51A      0.108991    52A      0.111211  
      53A      0.111356    54A      0.116686    55A      0.121934  
      56A      0.122865    57A      0.127337    58A      0.131172  
      59A      0.142470    60A      0.142733    61A      0.147825  
      62A      0.150275    63A      0.153900    64A      0.158061  
      65A      0.164225    66A      0.167150    67A      0.178699  
      68A      0.179915    69A      0.191064    70A      0.200346  
      71A      0.210542    72A      0.211868    73A      0.211986  
      74A      0.224497    75A      0.226776    76A      0.231406  
      77A      0.237681    78A      0.241381    79A      0.243758  
      80A      0.252783    81A      0.267923    82A      0.271724  
      83A      0.274252    84A      0.280109    85A      0.289969  
      86A      0.293358    87A      0.295586    88A      0.299623  
      89A      0.301534    90A      0.319151    91A      0.320475  
      92A      0.321603    93A      0.326480    94A      0.327284  
      95A      0.334262    96A      0.341810    97A      0.346213  
      98A      0.348479    99A      0.350294   100A      0.353018  
     101A      0.360010   102A      0.361423   103A      0.363006  
     104A      0.374346   105A      0.384074   106A      0.384466  
     107A      0.393379   108A      0.398591   109A      0.404688  
     110A      0.407046   111A      0.409228   112A      0.414906  
     113A      0.419057   114A      0.422434   115A      0.427047  
     116A      0.433067   117A      0.441825   118A      0.442793  
     119A      0.450226   120A      0.461199   121A      0.464973  
     122A      0.470232   123A      0.473190   124A      0.477944  
     125A      0.479059   126A      0.481336   127A      0.483104  
     128A      0.494143   129A      0.495764   130A      0.501486  
     131A      0.503737   132A      0.508030   133A      0.511793  
     134A      0.515574   135A      0.519765   136A      0.524720  
     137A      0.529396   138A      0.537142   139A      0.537502  
     140A      0.543061   141A      0.552137   142A      0.553423  
     143A      0.555255   144A      0.568159   145A      0.577976  
     146A      0.581190   147A      0.583471   148A      0.593013  
     149A      0.597750   150A      0.598921   151A      0.605752  
     152A      0.622655   153A      0.628799   154A      0.631131  
     155A      0.632085   156A      0.639153   157A      0.662060  
     158A      0.664870   159A      0.678655   160A      0.679858  
     161A      0.684660   162A      0.686528   163A      0.705753  
     164A      0.705994   165A      0.713500   166A      0.730564  
     167A      0.742555   168A      0.746979   169A      0.750264  
     170A      0.756583   171A      0.766646   172A      0.770462  
     173A      0.779641   174A      0.793711   175A      0.801964  
     176A      0.807035   177A      0.813128   178A      0.820629  
     179A      0.824099   180A      0.830713   181A      0.831733  
     182A      0.837975   183A      0.840272   184A      0.844238  
     185A      0.849787   186A      0.864364   187A      0.872436  
     188A      0.879287   189A      0.884711   190A      0.886831  
     191A      0.905134   192A      0.909889   193A      0.911619  
     194A      0.924746   195A      0.926471   196A      0.929386  
     197A      0.930656   198A      0.934552   199A      0.947171  
     200A      0.949814   201A      0.951242   202A      0.962375  
     203A      0.967124   204A      0.972546   205A      0.975185  
     206A      0.982957   207A      0.985391   208A      0.992732  
     209A      1.000433   210A      1.004775   211A      1.017532  
     212A      1.020418   213A      1.027808   214A      1.029231  
     215A      1.034047   216A      1.034778   217A      1.047493  
     218A      1.049641   219A      1.061134   220A      1.063322  
     221A      1.071357   222A      1.082296   223A      1.084510  
     224A      1.099908   225A      1.108863   226A      1.110318  
     227A      1.115773   228A      1.120290   229A      1.133963  
     230A      1.135160   231A      1.140157   232A      1.144838  
     233A      1.152035   234A      1.153444   235A      1.159798  
     236A      1.160935   237A      1.174635   238A      1.179611  
     239A      1.187192   240A      1.195826   241A      1.203928  
     242A      1.212307   243A      1.213830   244A      1.220841  
     245A      1.224247   246A      1.227131   247A      1.235938  
     248A      1.252954   249A      1.254715   250A      1.257765  
     251A      1.263640   252A      1.272919   253A      1.272963  
     254A      1.296714   255A      1.310562   256A      1.316049  
     257A      1.319365   258A      1.323110   259A      1.339538  
     260A      1.340267   261A      1.345725   262A      1.360080  
     263A      1.371866   264A      1.388610   265A      1.390518  
     266A      1.395198   267A      1.399839   268A      1.404735  
     269A      1.417116   270A      1.418604   271A      1.440112  
     272A      1.440878   273A      1.447426   274A      1.450653  
     275A      1.455349   276A      1.463163   277A      1.477113  
     278A      1.479901   279A      1.500517   280A      1.505836  
     281A      1.522744   282A      1.523096   283A      1.526430  
     284A      1.530066   285A      1.542474   286A      1.547555  
     287A      1.556532   288A      1.570718   289A      1.574005  
     290A      1.581327   291A      1.589317   292A      1.609844  
     293A      1.621969   294A      1.626472   295A      1.630688  
     296A      1.646449   297A      1.655874   298A      1.656701  
     299A      1.669337   300A      1.673637   301A      1.674978  
     302A      1.686739   303A      1.696051   304A      1.704866  
     305A      1.709449   306A      1.711509   307A      1.717442  
     308A      1.721205   309A      1.736510   310A      1.737174  
     311A      1.742688   312A      1.755944   313A      1.756978  
     314A      1.773314   315A      1.780128   316A      1.781102  
     317A      1.801850   318A      1.810362   319A      1.817385  
     320A      1.836000   321A      1.846788   322A      1.856243  
     323A      1.858826   324A      1.871066   325A      1.889420  
     326A      1.895483   327A      1.906751   328A      1.920093  
     329A      1.938241   330A      1.940662   331A      1.954427  
     332A      1.965751   333A      1.980777   334A      1.985303  
     335A      1.993073   336A      2.016650   337A      2.018712  
     338A      2.025313   339A      2.026605   340A      2.039502  
     341A      2.044512   342A      2.069851   343A      2.082365  
     344A      2.082669   345A      2.096343   346A      2.102610  
     347A      2.113971   348A      2.119614   349A      2.141649  
     350A      2.150597   351A      2.178284   352A      2.193551  
     353A      2.196169   354A      2.200446   355A      2.200631  
     356A      2.209371   357A      2.221520   358A      2.222365  
     359A      2.239380   360A      2.246199   361A      2.250834  
     362A      2.260433   363A      2.283360   364A      2.291546  
     365A      2.308246   366A      2.317995   367A      2.322040  
     368A      2.340461   369A      2.347247   370A      2.393744  
     371A      2.397513   372A      2.404003   373A      2.411689  
     374A      2.418506   375A      2.434069   376A      2.444618  
     377A      2.447232   378A      2.465899   379A      2.474593  
     380A      2.481924   381A      2.492530   382A      2.519222  
     383A      2.520640   384A      2.546485   385A      2.559669  
     386A      2.574592   387A      2.589958   388A      2.593548  
     389A      2.598510   390A      2.617757   391A      2.646831  
     392A      2.666168   393A      2.680909   394A      2.683196  
     395A      2.697293   396A      2.725422   397A      2.735183  
     398A      2.745588   399A      2.760955   400A      2.776368  
     401A      2.785232   402A      2.803842   403A      2.822179  
     404A      2.855099   405A      2.858647   406A      2.880389  
     407A      2.910277   408A      2.930548   409A      2.952942  
     410A      2.996602   411A      3.010901   412A      3.045175  
     413A      3.060401   414A      3.077031   415A      3.084431  
     416A      3.111859   417A      3.138834   418A      3.161402  
     419A      3.198374   420A      3.215747   421A      3.233252  
     422A      3.237399   423A      3.266349   424A      3.306490  
     425A      3.314783   426A      3.342870   427A      3.344412  
     428A      3.361803   429A      3.394000   430A      3.395030  
     431A      3.407573   432A      3.419511   433A      3.422487  
     434A      3.449234   435A      3.498974   436A      3.505381  
     437A      3.538780   438A      3.540375   439A      3.548668  
     440A      3.555347   441A      3.571880   442A      3.578942  
     443A      3.593778   444A      3.608389   445A      3.615161  
     446A      3.631105   447A      3.641842   448A      3.654384  
     449A      3.654477   450A      3.692338   451A      3.710793  
     452A      3.710875   453A      3.727088   454A      3.727997  
     455A      3.745535   456A      3.762166   457A      3.765573  
     458A      3.765620   459A      3.775767   460A      3.799002  
     461A      3.806104   462A      3.839767   463A      3.849889  
     464A      3.851988   465A      3.852773   466A      3.873055  
     467A      3.876800   468A      3.883862   469A      3.902085  
     470A      3.911853   471A      3.922270   472A      3.941942  
     473A      3.953124   474A      3.953720   475A      3.968516  
     476A      3.974248   477A      3.986454   478A      4.000648  
     479A      4.029901   480A      4.036169   481A      4.040963  
     482A      4.041625   483A      4.052854   484A      4.074690  
     485A      4.076517   486A      4.089254   487A      4.102901  
     488A      4.111235   489A      4.131567   490A      4.140033  
     491A      4.152895   492A      4.153991   493A      4.164646  
     494A      4.172707   495A      4.177927   496A      4.193408  
     497A      4.224117   498A      4.227519   499A      4.232768  
     500A      4.238132   501A      4.244164   502A      4.273317  
     503A      4.289545   504A      4.310986   505A      4.311948  
     506A      4.318029   507A      4.357298   508A      4.359740  
     509A      4.361912   510A      4.383526   511A      4.399282  
     512A      4.409159   513A      4.412425   514A      4.435066  
     515A      4.447350   516A      4.469313   517A      4.475172  
     518A      4.491230   519A      4.500691   520A      4.505022  
     521A      4.542271   522A      4.544145   523A      4.557213  
     524A      4.597504   525A      4.612470   526A      4.613199  
     527A      4.640218   528A      4.663482   529A      4.664241  
     530A      4.674483   531A      4.706171   532A      4.711745  
     533A      4.730115   534A      4.758691   535A      4.781756  
     536A      4.797255   537A      4.800800   538A      4.802033  
     539A      4.812543   540A      4.838385   541A      4.843638  
     542A      4.886050   543A      4.913797   544A      4.915944  
     545A      4.935979   546A      4.942413   547A      4.965005  
     548A      4.967855   549A      4.981268   550A      4.997789  
     551A      5.014628   552A      5.026369   553A      5.039811  
     554A      5.042623   555A      5.065885   556A      5.086922  
     557A      5.113503   558A      5.139127   559A      5.140015  
     560A      5.146305   561A      5.167112   562A      5.180199  
     563A      5.193682   564A      5.204698   565A      5.223727  
     566A      5.225645   567A      5.226295   568A      5.277713  
     569A      5.296706   570A      5.308556   571A      5.346173  
     572A      5.357832   573A      5.373715   574A      5.408466  
     575A      5.420004   576A      5.450458   577A      5.495310  
     578A      5.499695   579A      5.520567   580A      5.524192  
     581A      5.558330   582A      5.586828   583A      5.604349  
     584A      5.609525   585A      5.653040   586A      5.662239  
     587A      5.673314   588A      5.684161   589A      5.693812  
     590A      5.700661   591A      5.723725   592A      5.731456  
     593A      5.750853   594A      5.783810   595A      5.805586  
     596A      5.806079   597A      5.832625   598A      5.860327  
     599A      5.871435   600A      5.895975   601A      5.899954  
     602A      5.913637   603A      5.918606   604A      5.954169  
     605A      5.987190   606A      6.010281   607A      6.024469  
     608A      6.088919   609A      6.108475   610A      6.125762  
     611A      6.135664   612A      6.146031   613A      6.176785  
     614A      6.198326   615A      6.208947   616A      6.219033  
     617A      6.251668   618A      6.281558   619A      6.320198  
     620A      6.330086   621A      6.358843   622A      6.396606  
     623A      6.478901   624A      6.521401   625A      6.567851  
     626A      6.615860   627A      6.686863   628A      6.689585  
     629A      6.706871   630A      6.718547   631A      6.770135  
     632A      6.786175   633A      6.803593   634A      6.831489  
     635A      6.864071   636A      6.873100   637A      6.901141  
     638A      6.917697   639A      6.946768   640A      7.008645  
     641A      7.036475   642A      7.060490   643A      7.064879  
     644A      7.093008   645A      7.205558   646A      7.215377  
     647A      7.260810   648A      7.294922   649A      7.365647  
     650A      7.446314   651A      7.520177   652A      7.708634  
     653A      7.724230   654A      7.867062   655A      7.928770  
     656A      7.956029   657A      8.111441   658A     15.484886  
     659A     16.632880   660A     16.980214   661A     17.205250  
     662A     18.264182   663A     18.639781   664A     18.768633  
     665A     19.710746   666A     20.355873   667A     20.700187  

    Final Occupation by Irrep:
              A 
    DOCC [    37 ]

  @DF-RHF Final Energy:  -470.83299521293770

   => Energetics <=

    Nuclear Repulsion Energy =            527.3466839359844016
    One-Electron Energy =               -1686.5930286355112457
    Two-Electron Energy =                 688.4133494865891407
    Total Energy =                       -470.8329952129377034

Computation Completed

*** tstop() called on node35.bme.utexas.edu at Tue Feb  2 05:46:44 2021
Module time:
	user time   =     535.57 seconds =       8.93 minutes
	system time =      87.99 seconds =       1.47 minutes
	total time  =        129 seconds =       2.15 minutes
Total time:
	user time   =     535.57 seconds =       8.93 minutes
	system time =      87.99 seconds =       1.47 minutes
	total time  =        129 seconds =       2.15 minutes
   => Loading Basis Set <=

    Name: (AUG-CC-PVTZ AUX)
    Role: RIFIT
    Keyword: DF_BASIS_MP2
    atoms 1     entry O          line   264 file /home/xy3866/psi4conda/share/psi4/basis/aug-cc-pvtz-ri.gbs 
    atoms 2-4   entry N          line   206 file /home/xy3866/psi4conda/share/psi4/basis/aug-cc-pvtz-ri.gbs 
    atoms 5-10  entry C          line   148 file /home/xy3866/psi4conda/share/psi4/basis/aug-cc-pvtz-ri.gbs 
    atoms 11-19 entry H          line    30 file /home/xy3866/psi4conda/share/psi4/basis/aug-cc-pvtz-ri.gbs 


*** tstart() called on node35.bme.utexas.edu
*** at Tue Feb  2 05:46:45 2021


  //>>>>>>>>>>>>>>>>>>>>>>>>>>>>>>>>>>>//
  //               DFMP2               //
  //<<<<<<<<<<<<<<<<<<<<<<<<<<<<<<<<<<<//

	 --------------------------------------------------------
	                          DF-MP2                         
	      2nd-Order Density-Fitted Moller-Plesset Theory     
	              RMP2 Wavefunction,   8 Threads             
	                                                         
	        Rob Parrish, Justin Turney, Andy Simmonett,      
	           Ed Hohenstein, and C. David Sherrill          
	 --------------------------------------------------------

   => Auxiliary Basis Set <=

  Basis Set: (AUG-CC-PVTZ AUX)
    Blend: AUG-CC-PVTZ-RI
    Number of shells: 406
    Number of basis function: 1474
    Number of Cartesian functions: 1855
    Spherical Harmonics?: true
    Max angular momentum: 4

	 --------------------------------------------------------
	                 NBF =   667, NAUX =  1474
	 --------------------------------------------------------
	   CLASS    FOCC     OCC    AOCC    AVIR     VIR    FVIR
	   PAIRS       0      37      37     630     630       0
	 --------------------------------------------------------

  DFHelper Memory: AOs need 4.615 GiB; user supplied 22.352 GiB. Using in-core AOs.


         ------------------------------------------------------------
                                     CPHF                           
                                  Rob Parrish                       
         ------------------------------------------------------------

  ==> Geometry <==

    Molecular point group: c1
    Full point group: C1

    Geometry (in Angstrom), charge = 0, multiplicity = 1:

       Center              X                  Y                   Z               Mass       
    ------------   -----------------  -----------------  -----------------  -----------------
         O           -1.266163795382     1.548956165885     0.000002744097    15.994914619570
         N            1.471934104618     0.474946865885    -0.000006555903    14.003074004430
         N            0.587385204618    -1.554940834115     0.000009744097    14.003074004430
         N           -2.016416795382    -0.632083834115    -0.000001255903    14.003074004430
         C            0.308005204618    -0.244429834115     0.000009744097    12.000000000000
         C            2.503395204618    -0.360305834115    -0.000010255903    12.000000000000
         C            1.553169204618     1.972943165885     0.000001744097    12.000000000000
         C           -1.056266795382     0.324977165885     0.000001744097    12.000000000000
         C            1.951111204618    -1.627340834115    -0.000000255903    12.000000000000
         C           -3.428261795382    -0.313192834115    -0.000006255903    12.000000000000
         H            3.526789204618    -0.011797834115    -0.000012255903     1.007825032230
         H            1.066308204618     2.381668165885    -0.883911255903     1.007825032230
         H            1.066353204618     2.381654165885     0.883947744097     1.007825032230
         H            2.614349204618     2.225072165885    -0.000022255903     1.007825032230
         H            2.468701204618    -2.577668834115    -0.000005255903     1.007825032230
         H           -1.691165795382    -1.593532834115    -0.000001255903     1.007825032230
         H           -3.920543795382    -0.714223834115     0.890801744097     1.007825032230
         H           -3.920537795382    -0.714226834115    -0.890816255903     1.007825032230
         H           -3.514633795382     0.773348165885    -0.000009255903     1.007825032230

  Nuclear repulsion =  527.346683935984515
  Reference energy  = -470.832995212937703

  ==> Basis Set <==

  Basis Set: AUG-CC-PVTZ
    Blend: AUG-CC-PVTZ
    Number of shells: 221
    Number of basis function: 667
    Number of Cartesian functions: 775
    Spherical Harmonics?: true
    Max angular momentum: 3

  ==> CGRSolver (by Rob Parrish) <==

   Number of roots    =         1
   Preconditioning    =    JACOBI
   Convergence cutoff =     1E-06
   Maximum iterations =       100

  ==> CPHFRHamiltonian (by Rob Parrish) <== 

  ==> MemDFJK: Density-Fitted J/K Matrices <==

    J tasked:                   Yes
    K tasked:                   Yes
    wK tasked:                   No
    OpenMP threads:               8
    Memory [MiB]:             22888
    Algorithm:                 Disk
    Schwarz Cutoff:           1E-12
    Mask sparsity (%):       6.9797
    Fitting Condition:        1E-10

   => Auxiliary Basis Set <=

  Basis Set: (AUG-CC-PVTZ AUX)
    Blend: AUG-CC-PVTZ-JKFIT
    Number of shells: 426
    Number of basis function: 1454
    Number of Cartesian functions: 1805
    Spherical Harmonics?: true
    Max angular momentum: 4

  ==> CPHF Iterations <==

  => Iterations <=

             Iter  Converged  Remaining    Residual
  CGR           1          0          1   1.148E-01
  CGR           2          0          1   3.809E-02
  CGR           3          0          1   1.665E-02
  CGR           4          0          1   5.762E-03
  CGR           5          0          1   2.505E-03
  CGR           6          0          1   1.167E-03
  CGR           7          0          1   4.123E-04
  CGR           8          0          1   1.350E-04
  CGR           9          0          1   4.028E-05
  CGR          10          0          1   1.187E-05
  CGR          11          0          1   4.362E-06
  CGR          12          0          1   1.545E-06
  CGR          13          1          0   7.679E-07

    CGRSolver converged.

	-----------------------------------------------------------
	 ==================> DF-MP2 Energies <==================== 
	-----------------------------------------------------------
	 Reference Energy          =    -470.8329952129377034 [Eh]
	 Singles Energy            =      -0.0000000000000000 [Eh]
	 Same-Spin Energy          =      -0.4993575258950042 [Eh]
	 Opposite-Spin Energy      =      -1.5365110274897809 [Eh]
	 Correlation Energy        =      -2.0358685533847849 [Eh]
	 Total Energy              =    -472.8688637663224767 [Eh]
	-----------------------------------------------------------
	 ================> DF-SCS-MP2 Energies <================== 
	-----------------------------------------------------------
	 SCS Same-Spin Scale       =       0.3333333333333333 [-]
	 SCS Opposite-Spin Scale   =       1.2000000000000000 [-]
	 SCS Same-Spin Energy      =      -0.1664525086316681 [Eh]
	 SCS Opposite-Spin Energy  =      -1.8438132329877370 [Eh]
	 SCS Correlation Energy    =      -2.0102657416194050 [Eh]
	 SCS Total Energy          =    -472.8432609545570813 [Eh]
	-----------------------------------------------------------



Properties will be evaluated at  -0.000000,   0.000000,   0.000000 [a0]

Properties computed using the MP2 density matrix

  Nuclear Dipole Moment: [e a0]
     X:    -2.1665      Y:     2.0282      Z:    -0.0000

  Electronic Dipole Moment: [e a0]
     X:     2.7278      Y:    -1.9748      Z:     0.0000

  Dipole Moment: [e a0]
     X:     0.5613      Y:     0.0535      Z:    -0.0000     Total:     0.5639

  Dipole Moment: [D]
     X:     1.4268      Y:     0.1359      Z:    -0.0000     Total:     1.4333


*** tstop() called on node35.bme.utexas.edu at Tue Feb  2 05:51:06 2021
Module time:
	user time   =    1492.39 seconds =      24.87 minutes
	system time =      94.52 seconds =       1.58 minutes
	total time  =        261 seconds =       4.35 minutes
Total time:
	user time   =    2028.21 seconds =      33.80 minutes
	system time =     182.51 seconds =       3.04 minutes
	total time  =        391 seconds =       6.52 minutes

    Psi4 stopped on: Tuesday, 02 February 2021 05:51AM
    Psi4 wall time for execution: 0:06:32.15

*** Psi4 exiting successfully. Buy a developer a beer!
