
    -----------------------------------------------------------------------
          Psi4: An Open-Source Ab Initio Electronic Structure Package
                               Psi4 1.4a3.dev225 

                         Git: Rev {master} 7105e37 


    D. G. A. Smith, L. A. Burns, A. C. Simmonett, R. M. Parrish,
    M. C. Schieber, R. Galvelis, P. Kraus, H. Kruse, R. Di Remigio,
    A. Alenaizan, A. M. James, S. Lehtola, J. P. Misiewicz, M. Scheurer,
    R. A. Shaw, J. B. Schriber, Y. Xie, Z. L. Glick, D. A. Sirianni,
    J. S. O'Brien, J. M. Waldrop, A. Kumar, E. G. Hohenstein,
    B. P. Pritchard, B. R. Brooks, H. F. Schaefer III, A. Yu. Sokolov,
    K. Patkowski, A. E. DePrince III, U. Bozkaya, R. A. King,
    F. A. Evangelista, J. M. Turney, T. D. Crawford, C. D. Sherrill,
    J. Chem. Phys. 152(18) 184108 (2020). https://doi.org/10.1063/5.0006002

                            Additional Code Authors
    E. T. Seidl, C. L. Janssen, E. F. Valeev, M. L. Leininger,
    J. F. Gonthier, R. M. Richard, H. R. McAlexander, M. Saitow, X. Wang,
    P. Verma, and M. H. Lechner

             Previous Authors, Complete List of Code Contributors,
                       and Citations for Specific Modules
    https://github.com/psi4/psi4/blob/master/codemeta.json
    https://github.com/psi4/psi4/graphs/contributors
    http://psicode.org/psi4manual/master/introduction.html#citing-psifour

    -----------------------------------------------------------------------


    Psi4 started on: Saturday, 27 February 2021 08:04PM

    Process ID: 165515
    Host:       c401-011.stampede2.tacc.utexas.edu
    PSIDATADIR: /home1/07844/xy3866/miniconda3/envs/p4env/share/psi4
    Memory:     500.0 MiB
    Threads:    32
    
  ==> Input File <==

--------------------------------------------------------------------------
#psi4
#
memory 32 gb

molecule  {
0 1
  S       -0.2613620    -0.5930190    -0.1424790
  O       -0.2870700    -1.2499240     1.2262220
  C        2.3977240     0.0716980     0.1844310
  C        1.0261530     0.6905850    -0.0782140
  C       -1.6743200     0.5466190    -0.2136450
  C        2.8653030    -0.7972080    -0.9817560
  C        3.4247144     1.1121821     0.6280196
  C       -2.9771600    -0.2389800    -0.1306750
  C       -4.1937400     0.6821530    -0.1120660
  H        2.2947170    -0.5588030     1.0765090
  H        0.7552030     1.3745990     0.7353710
  H        1.0111040     1.2381230    -1.0301620
  H       -1.5863530     1.2355690     0.6350930
  H       -1.6018540     1.1165020    -1.1483330
  H        2.9531350    -0.1978260    -1.8953020
  H        3.8477320    -1.2283710    -0.7670690
  H        2.1762820    -1.6227130    -1.1817050
  H        3.5229730     1.8417250    -0.3809710
  H        4.3924350     0.7485930     0.7071400
  H        3.0997810     1.7802300     1.3402560
  H       -3.0432920    -0.9285740    -0.9804800
  H       -2.9504610    -0.8515990     0.7760110
  H       -4.1584820     1.3575060     0.7479640
  H       -4.2413300     1.2926870    -1.0190020
  H       -5.1195520     0.1037900    -0.0468840
units angstrom
no_reorient  #important for SAPT in psi4, default
symmetry c1  #important for SAPT in psi4, default
}

set PROPERTIES_ORIGIN ["COM"]
properties('MP2/aug-cc-pvtz', properties = ['dipole'])
--------------------------------------------------------------------------

  Memory set to  29.802 GiB by Python driver.
    SCF Algorithm Type (re)set to DF.

*** tstart() called on c401-011.stampede2.tacc.utexas.edu
*** at Sat Feb 27 20:04:48 2021

   => Loading Basis Set <=

    Name: AUG-CC-PVTZ
    Role: ORBITAL
    Keyword: BASIS
    atoms 1     entry S          line   906 file /home1/07844/xy3866/miniconda3/envs/p4env/share/psi4/basis/aug-cc-pvtz.gbs 
    atoms 2     entry O          line   331 file /home1/07844/xy3866/miniconda3/envs/p4env/share/psi4/basis/aug-cc-pvtz.gbs 
    atoms 3-9   entry C          line   239 file /home1/07844/xy3866/miniconda3/envs/p4env/share/psi4/basis/aug-cc-pvtz.gbs 
    atoms 10-25 entry H          line    40 file /home1/07844/xy3866/miniconda3/envs/p4env/share/psi4/basis/aug-cc-pvtz.gbs 


         ---------------------------------------------------------
                                   SCF
               by Justin Turney, Rob Parrish, Andy Simmonett
                          and Daniel G. A. Smith
                              RHF Reference
                       32 Threads,  30517 MiB Core
         ---------------------------------------------------------

  ==> Geometry <==

    Molecular point group: c1
    Full point group: C1

    Geometry (in Angstrom), charge = 0, multiplicity = 1:

       Center              X                  Y                   Z               Mass       
    ------------   -----------------  -----------------  -----------------  -----------------
         S           -0.253520708071    -0.543090591536    -0.170573065614    31.972071174400
         O           -0.279228708071    -1.199995591536     1.198127934386    15.994914619570
         C            2.405565291929     0.121626408464     0.156336934386    12.000000000000
         C            1.033994291929     0.740513408464    -0.106308065614    12.000000000000
         C           -1.666478708071     0.596547408464    -0.241739065614    12.000000000000
         C            2.873144291929    -0.747279591536    -1.009850065614    12.000000000000
         C            3.432555691929     1.162110508464     0.599925534386    12.000000000000
         C           -2.969318708071    -0.189051591536    -0.158769065614    12.000000000000
         C           -4.185898708071     0.732081408464    -0.140160065614    12.000000000000
         H            2.302558291929    -0.508874591536     1.048414934386     1.007825032230
         H            0.763044291929     1.424527408464     0.707276934386     1.007825032230
         H            1.018945291929     1.288051408464    -1.058256065614     1.007825032230
         H           -1.578511708071     1.285497408464     0.606998934386     1.007825032230
         H           -1.594012708071     1.166430408464    -1.176427065614     1.007825032230
         H            2.960976291929    -0.147897591536    -1.923396065614     1.007825032230
         H            3.855573291929    -1.178442591536    -0.795163065614     1.007825032230
         H            2.184123291929    -1.572784591536    -1.209799065614     1.007825032230
         H            3.530814291929     1.891653408464    -0.409065065614     1.007825032230
         H            4.400276291929     0.798521408464     0.679045934386     1.007825032230
         H            3.107622291929     1.830158408464     1.312161934386     1.007825032230
         H           -3.035450708071    -0.878645591536    -1.008574065614     1.007825032230
         H           -2.942619708071    -0.801670591536     0.747916934386     1.007825032230
         H           -4.150640708071     1.407434408464     0.719869934386     1.007825032230
         H           -4.233488708071     1.342615408464    -1.047096065614     1.007825032230
         H           -5.111710708071     0.153718408464    -0.074978065614     1.007825032230

  Running in c1 symmetry.

  Rotational constants: A =      0.10870  B =      0.01882  C =      0.01803 [cm^-1]
  Rotational constants: A =   3258.88660  B =    564.29279  C =    540.55939 [MHz]
  Nuclear repulsion =  574.963504871280520

  Charge       = 0
  Multiplicity = 1
  Electrons    = 82
  Nalpha       = 41
  Nbeta        = 41

  ==> Algorithm <==

  SCF Algorithm Type is DF.
  DIIS enabled.
  MOM disabled.
  Fractional occupation disabled.
  Guess Type is SAD.
  Energy threshold   = 1.00e-10
  Density threshold  = 1.00e-10
  Integral threshold = 1.00e-12

  ==> Primary Basis <==

  Basis Set: AUG-CC-PVTZ
    Blend: AUG-CC-PVTZ
    Number of shells: 272
    Number of basis functions: 786
    Number of Cartesian functions: 899
    Spherical Harmonics?: true
    Max angular momentum: 3

   => Loading Basis Set <=

    Name: (AUG-CC-PVTZ AUX)
    Role: JKFIT
    Keyword: DF_BASIS_SCF
    atoms 1     entry S          line   730 file /home1/07844/xy3866/miniconda3/envs/p4env/share/psi4/basis/aug-cc-pvtz-jkfit.gbs 
    atoms 2     entry O          line   286 file /home1/07844/xy3866/miniconda3/envs/p4env/share/psi4/basis/aug-cc-pvtz-jkfit.gbs 
    atoms 3-9   entry C          line   162 file /home1/07844/xy3866/miniconda3/envs/p4env/share/psi4/basis/aug-cc-pvtz-jkfit.gbs 
    atoms 10-25 entry H          line    70 file /home1/07844/xy3866/miniconda3/envs/p4env/share/psi4/basis/aug-cc-pvtz-jkfit.gbs 

  ==> Integral Setup <==

  DFHelper Memory: AOs need 6.903 GiB; user supplied 22.352 GiB. Using in-core AOs.

  ==> MemDFJK: Density-Fitted J/K Matrices <==

    J tasked:                   Yes
    K tasked:                   Yes
    wK tasked:                   No
    OpenMP threads:              32
    Memory [MiB]:             22888
    Algorithm:                 Core
    Schwarz Cutoff:           1E-12
    Mask sparsity (%):      16.2280
    Fitting Condition:        1E-10

   => Auxiliary Basis Set <=

  Basis Set: (AUG-CC-PVTZ AUX)
    Blend: AUG-CC-PVTZ-JKFIT
    Number of shells: 506
    Number of basis functions: 1714
    Number of Cartesian functions: 2108
    Spherical Harmonics?: true
    Max angular momentum: 4

  Minimum eigenvalue in the overlap matrix is 2.3431929081E-06.
  Reciprocal condition number of the overlap matrix is 1.1070667458E-07.
    Using symmetric orthogonalization.

  ==> Pre-Iterations <==

  SCF Guess: Superposition of Atomic Densities via on-the-fly atomic UHF (no occupation information).

   -------------------------
    Irrep   Nso     Nmo    
   -------------------------
     A        786     786 
   -------------------------
    Total     786     786
   -------------------------

  ==> Iterations <==

                           Total Energy        Delta E     RMS |[F,P]|

   @DF-RHF iter SAD:  -746.48601469390712   -7.46486e+02   0.00000e+00 
   @DF-RHF iter   1:  -746.42653300095560    5.94817e-02   1.11958e-03 DIIS
   @DF-RHF iter   2:  -746.74787527062551   -3.21342e-01   6.63044e-04 DIIS
   @DF-RHF iter   3:  -746.86048191842440   -1.12607e-01   1.44617e-04 DIIS
   @DF-RHF iter   4:  -746.86745900471419   -6.97709e-03   5.81021e-05 DIIS
   @DF-RHF iter   5:  -746.86876325360242   -1.30425e-03   1.00996e-05 DIIS
   @DF-RHF iter   6:  -746.86881275101098   -4.94974e-05   2.81933e-06 DIIS
   @DF-RHF iter   7:  -746.86881774800554   -4.99699e-06   7.50567e-07 DIIS
   @DF-RHF iter   8:  -746.86881819281871   -4.44813e-07   2.68842e-07 DIIS
   @DF-RHF iter   9:  -746.86881826702256   -7.42039e-08   1.13358e-07 DIIS
   @DF-RHF iter  10:  -746.86881827900004   -1.19775e-08   4.29404e-08 DIIS
   @DF-RHF iter  11:  -746.86881828107551   -2.07547e-09   1.30237e-08 DIIS
   @DF-RHF iter  12:  -746.86881828126775   -1.92244e-10   4.47226e-09 DIIS
   @DF-RHF iter  13:  -746.86881828128980   -2.20552e-11   1.74511e-09 DIIS
   @DF-RHF iter  14:  -746.86881828129310   -3.29692e-12   6.29490e-10 DIIS
   @DF-RHF iter  15:  -746.86881828129322   -1.13687e-13   1.96816e-10 DIIS
   @DF-RHF iter  16:  -746.86881828129287    3.41061e-13   8.50362e-11 DIIS
  Energy and wave function converged.


  ==> Post-Iterations <==

    Orbital Energies [Eh]
    ---------------------

    Doubly Occupied:                                                      

       1A    -92.058630     2A    -20.497794     3A    -11.262382  
       4A    -11.261212     5A    -11.239182     6A    -11.233953  
       7A    -11.226007     8A    -11.224095     9A    -11.219479  
      10A     -9.046032    11A     -6.727627    12A     -6.727449  
      13A     -6.726151    14A     -1.317493    15A     -1.109571  
      16A     -1.085448    17A     -1.008575    18A     -0.943492  
      19A     -0.940516    20A     -0.846671    21A     -0.800930  
      22A     -0.773325    23A     -0.664140    24A     -0.648569  
      25A     -0.631206    26A     -0.627889    27A     -0.596637  
      28A     -0.585019    29A     -0.569322    30A     -0.554253  
      31A     -0.550271    32A     -0.520522    33A     -0.515342  
      34A     -0.508512    35A     -0.500300    36A     -0.490014  
      37A     -0.486058    38A     -0.479066    39A     -0.442426  
      40A     -0.405143    41A     -0.359973  

    Virtual:                                                              

      42A      0.025619    43A      0.029197    44A      0.033667  
      45A      0.036263    46A      0.044809    47A      0.046602  
      48A      0.047442    49A      0.057644    50A      0.060024  
      51A      0.062472    52A      0.067405    53A      0.070808  
      54A      0.071901    55A      0.082378    56A      0.092056  
      57A      0.098590    58A      0.103268    59A      0.109456  
      60A      0.115529    61A      0.119288    62A      0.121654  
      63A      0.126121    64A      0.128282    65A      0.130213  
      66A      0.132490    67A      0.133974    68A      0.139553  
      69A      0.143864    70A      0.150064    71A      0.155780  
      72A      0.159302    73A      0.161897    74A      0.162934  
      75A      0.168532    76A      0.171730    77A      0.173152  
      78A      0.175168    79A      0.183007    80A      0.189772  
      81A      0.197600    82A      0.207358    83A      0.208129  
      84A      0.209891    85A      0.211830    86A      0.224240  
      87A      0.227720    88A      0.235531    89A      0.238234  
      90A      0.239376    91A      0.247363    92A      0.251099  
      93A      0.253173    94A      0.258333    95A      0.263758  
      96A      0.272739    97A      0.274463    98A      0.279746  
      99A      0.285135   100A      0.289943   101A      0.296627  
     102A      0.298077   103A      0.301522   104A      0.307944  
     105A      0.310580   106A      0.315643   107A      0.323039  
     108A      0.331422   109A      0.336369   110A      0.338345  
     111A      0.342388   112A      0.346798   113A      0.348549  
     114A      0.350108   115A      0.356410   116A      0.358162  
     117A      0.361801   118A      0.365406   119A      0.369161  
     120A      0.371111   121A      0.377343   122A      0.382002  
     123A      0.382748   124A      0.386470   125A      0.388785  
     126A      0.391350   127A      0.397649   128A      0.400895  
     129A      0.403184   130A      0.408676   131A      0.412473  
     132A      0.415083   133A      0.416767   134A      0.423572  
     135A      0.425924   136A      0.426173   137A      0.436212  
     138A      0.440960   139A      0.443153   140A      0.446492  
     141A      0.451817   142A      0.453901   143A      0.455146  
     144A      0.461234   145A      0.462371   146A      0.465908  
     147A      0.471721   148A      0.474989   149A      0.476731  
     150A      0.484170   151A      0.485909   152A      0.490894  
     153A      0.495113   154A      0.499187   155A      0.500395  
     156A      0.504909   157A      0.507607   158A      0.511930  
     159A      0.515256   160A      0.519967   161A      0.525238  
     162A      0.526740   163A      0.533334   164A      0.536030  
     165A      0.539039   166A      0.547251   167A      0.549309  
     168A      0.555197   169A      0.556445   170A      0.564571  
     171A      0.566642   172A      0.569018   173A      0.573951  
     174A      0.582402   175A      0.583316   176A      0.591268  
     177A      0.598624   178A      0.603278   179A      0.610759  
     180A      0.613723   181A      0.615847   182A      0.621138  
     183A      0.623938   184A      0.627575   185A      0.633715  
     186A      0.639890   187A      0.644738   188A      0.649489  
     189A      0.654135   190A      0.668598   191A      0.671870  
     192A      0.678324   193A      0.681081   194A      0.686510  
     195A      0.689476   196A      0.700471   197A      0.711360  
     198A      0.718696   199A      0.727196   200A      0.730731  
     201A      0.740166   202A      0.748699   203A      0.759618  
     204A      0.766814   205A      0.771792   206A      0.774689  
     207A      0.786935   208A      0.798609   209A      0.801042  
     210A      0.806075   211A      0.813744   212A      0.818144  
     213A      0.827909   214A      0.829741   215A      0.833022  
     216A      0.839737   217A      0.842120   218A      0.845298  
     219A      0.847599   220A      0.862511   221A      0.865413  
     222A      0.867359   223A      0.871762   224A      0.878129  
     225A      0.884141   226A      0.886629   227A      0.898400  
     228A      0.901451   229A      0.904457   230A      0.911146  
     231A      0.913811   232A      0.914918   233A      0.920367  
     234A      0.921893   235A      0.930032   236A      0.933562  
     237A      0.937998   238A      0.942572   239A      0.949584  
     240A      0.952876   241A      0.958365   242A      0.963651  
     243A      0.969143   244A      0.974647   245A      0.976333  
     246A      0.977540   247A      0.985276   248A      0.992632  
     249A      0.996225   250A      1.002076   251A      1.004747  
     252A      1.013045   253A      1.016743   254A      1.022958  
     255A      1.032915   256A      1.034293   257A      1.038172  
     258A      1.042636   259A      1.044605   260A      1.049388  
     261A      1.061460   262A      1.063730   263A      1.071569  
     264A      1.072233   265A      1.073400   266A      1.079061  
     267A      1.085625   268A      1.092872   269A      1.098027  
     270A      1.101241   271A      1.109931   272A      1.111279  
     273A      1.118276   274A      1.124161   275A      1.127491  
     276A      1.130698   277A      1.137395   278A      1.138752  
     279A      1.144013   280A      1.149832   281A      1.155812  
     282A      1.162671   283A      1.171730   284A      1.176958  
     285A      1.179380   286A      1.181196   287A      1.186146  
     288A      1.193074   289A      1.198355   290A      1.202283  
     291A      1.208744   292A      1.210107   293A      1.212727  
     294A      1.224438   295A      1.229435   296A      1.239557  
     297A      1.241595   298A      1.245787   299A      1.251028  
     300A      1.259403   301A      1.263682   302A      1.270327  
     303A      1.279402   304A      1.288697   305A      1.291713  
     306A      1.293469   307A      1.302509   308A      1.307019  
     309A      1.315277   310A      1.327186   311A      1.330498  
     312A      1.336137   313A      1.340940   314A      1.347879  
     315A      1.353962   316A      1.358938   317A      1.360111  
     318A      1.368330   319A      1.381157   320A      1.383645  
     321A      1.397594   322A      1.399871   323A      1.403742  
     324A      1.410407   325A      1.421801   326A      1.429224  
     327A      1.432003   328A      1.450317   329A      1.452735  
     330A      1.461272   331A      1.464855   332A      1.471316  
     333A      1.472689   334A      1.476232   335A      1.485830  
     336A      1.493874   337A      1.503233   338A      1.509822  
     339A      1.518531   340A      1.528981   341A      1.536122  
     342A      1.539892   343A      1.545939   344A      1.549782  
     345A      1.558255   346A      1.564661   347A      1.569261  
     348A      1.579611   349A      1.582130   350A      1.599721  
     351A      1.601914   352A      1.612112   353A      1.617094  
     354A      1.627626   355A      1.629077   356A      1.637610  
     357A      1.651788   358A      1.655802   359A      1.660097  
     360A      1.668978   361A      1.677995   362A      1.681356  
     363A      1.685993   364A      1.690028   365A      1.695337  
     366A      1.698946   367A      1.701610   368A      1.709720  
     369A      1.717887   370A      1.719271   371A      1.725723  
     372A      1.728958   373A      1.734876   374A      1.744628  
     375A      1.745253   376A      1.750021   377A      1.756248  
     378A      1.756944   379A      1.766199   380A      1.769796  
     381A      1.783503   382A      1.787730   383A      1.793528  
     384A      1.798378   385A      1.810442   386A      1.819103  
     387A      1.821212   388A      1.829279   389A      1.846656  
     390A      1.849106   391A      1.854740   392A      1.860330  
     393A      1.869223   394A      1.872416   395A      1.882976  
     396A      1.887517   397A      1.890326   398A      1.897369  
     399A      1.908122   400A      1.920495   401A      1.921751  
     402A      1.924778   403A      1.934294   404A      1.940791  
     405A      1.944360   406A      1.951610   407A      1.958078  
     408A      1.964140   409A      1.968702   410A      1.980825  
     411A      1.984916   412A      1.988632   413A      1.993072  
     414A      1.997816   415A      2.014659   416A      2.021570  
     417A      2.026463   418A      2.033406   419A      2.047492  
     420A      2.061241   421A      2.063220   422A      2.075553  
     423A      2.078014   424A      2.091000   425A      2.094178  
     426A      2.102925   427A      2.116291   428A      2.124319  
     429A      2.132163   430A      2.142194   431A      2.147200  
     432A      2.152412   433A      2.164702   434A      2.180501  
     435A      2.187238   436A      2.197121   437A      2.203842  
     438A      2.208863   439A      2.215964   440A      2.221439  
     441A      2.237500   442A      2.243943   443A      2.252577  
     444A      2.259777   445A      2.262442   446A      2.280241  
     447A      2.284509   448A      2.290334   449A      2.302889  
     450A      2.310855   451A      2.330946   452A      2.342066  
     453A      2.347640   454A      2.357279   455A      2.372101  
     456A      2.376928   457A      2.380029   458A      2.383469  
     459A      2.395033   460A      2.406656   461A      2.411670  
     462A      2.418325   463A      2.425534   464A      2.439643  
     465A      2.449866   466A      2.467815   467A      2.475094  
     468A      2.492987   469A      2.501474   470A      2.508415  
     471A      2.516073   472A      2.527074   473A      2.534500  
     474A      2.539404   475A      2.562056   476A      2.573720  
     477A      2.584148   478A      2.587904   479A      2.598917  
     480A      2.616368   481A      2.635163   482A      2.649737  
     483A      2.651314   484A      2.670075   485A      2.686022  
     486A      2.699373   487A      2.713297   488A      2.727384  
     489A      2.774441   490A      2.785576   491A      2.798819  
     492A      2.823933   493A      2.829894   494A      2.859842  
     495A      2.871117   496A      2.925700   497A      2.938833  
     498A      2.946284   499A      2.960971   500A      2.981611  
     501A      2.993239   502A      3.028442   503A      3.047868  
     504A      3.054258   505A      3.111229   506A      3.120639  
     507A      3.186376   508A      3.249294   509A      3.259927  
     510A      3.290637   511A      3.327126   512A      3.359138  
     513A      3.392914   514A      3.413490   515A      3.417703  
     516A      3.423505   517A      3.440587   518A      3.456811  
     519A      3.477548   520A      3.487871   521A      3.498948  
     522A      3.502292   523A      3.520164   524A      3.521343  
     525A      3.541957   526A      3.545261   527A      3.552155  
     528A      3.558355   529A      3.597354   530A      3.605454  
     531A      3.608932   532A      3.628485   533A      3.636633  
     534A      3.648590   535A      3.656016   536A      3.669550  
     537A      3.686242   538A      3.695970   539A      3.702002  
     540A      3.716001   541A      3.718445   542A      3.724644  
     543A      3.732468   544A      3.739041   545A      3.746221  
     546A      3.752891   547A      3.759594   548A      3.773250  
     549A      3.774137   550A      3.780344   551A      3.789292  
     552A      3.793664   553A      3.807571   554A      3.811447  
     555A      3.825381   556A      3.825747   557A      3.834831  
     558A      3.853628   559A      3.858253   560A      3.859019  
     561A      3.867670   562A      3.877037   563A      3.887339  
     564A      3.891074   565A      3.903038   566A      3.917075  
     567A      3.919490   568A      3.932361   569A      3.940730  
     570A      3.946083   571A      3.956632   572A      3.968395  
     573A      3.969710   574A      3.978691   575A      3.984036  
     576A      3.991888   577A      4.005238   578A      4.008477  
     579A      4.022397   580A      4.030145   581A      4.042951  
     582A      4.043495   583A      4.049398   584A      4.064317  
     585A      4.076257   586A      4.092820   587A      4.103081  
     588A      4.114303   589A      4.124373   590A      4.127356  
     591A      4.134652   592A      4.153422   593A      4.169445  
     594A      4.179901   595A      4.203790   596A      4.204619  
     597A      4.210665   598A      4.216409   599A      4.225098  
     600A      4.239815   601A      4.249888   602A      4.253726  
     603A      4.256041   604A      4.264680   605A      4.274606  
     606A      4.283145   607A      4.295103   608A      4.306432  
     609A      4.324126   610A      4.342765   611A      4.346781  
     612A      4.352416   613A      4.359365   614A      4.363881  
     615A      4.382044   616A      4.399507   617A      4.402292  
     618A      4.409292   619A      4.431550   620A      4.443788  
     621A      4.458554   622A      4.459479   623A      4.470449  
     624A      4.500872   625A      4.514677   626A      4.529898  
     627A      4.538314   628A      4.552069   629A      4.568069  
     630A      4.599585   631A      4.601863   632A      4.625107  
     633A      4.652908   634A      4.656708   635A      4.656909  
     636A      4.667101   637A      4.672960   638A      4.681347  
     639A      4.692699   640A      4.703953   641A      4.707035  
     642A      4.728229   643A      4.733568   644A      4.739803  
     645A      4.758806   646A      4.777566   647A      4.793368  
     648A      4.796193   649A      4.801922   650A      4.820885  
     651A      4.838665   652A      4.857312   653A      4.867715  
     654A      4.874541   655A      4.885430   656A      4.894335  
     657A      4.897531   658A      4.916399   659A      4.924874  
     660A      4.932611   661A      4.946647   662A      4.960863  
     663A      4.980541   664A      4.984625   665A      5.005533  
     666A      5.023525   667A      5.038178   668A      5.045254  
     669A      5.063586   670A      5.074446   671A      5.097436  
     672A      5.106382   673A      5.111658   674A      5.127096  
     675A      5.131554   676A      5.145293   677A      5.164077  
     678A      5.175135   679A      5.188980   680A      5.197189  
     681A      5.200432   682A      5.209309   683A      5.220774  
     684A      5.234703   685A      5.254953   686A      5.258239  
     687A      5.276142   688A      5.292182   689A      5.302874  
     690A      5.311305   691A      5.325451   692A      5.329933  
     693A      5.339671   694A      5.346863   695A      5.365330  
     696A      5.376098   697A      5.379241   698A      5.390956  
     699A      5.397444   700A      5.400831   701A      5.415863  
     702A      5.434125   703A      5.453495   704A      5.463154  
     705A      5.469720   706A      5.476107   707A      5.483531  
     708A      5.492855   709A      5.547488   710A      5.558574  
     711A      5.561593   712A      5.576707   713A      5.593469  
     714A      5.605159   715A      5.620338   716A      5.639662  
     717A      5.658271   718A      5.679718   719A      5.688261  
     720A      5.704264   721A      5.723343   722A      5.742430  
     723A      5.761076   724A      5.779521   725A      5.807289  
     726A      5.820237   727A      5.831117   728A      5.859926  
     729A      5.874245   730A      5.893301   731A      5.915292  
     732A      5.950459   733A      5.965402   734A      5.993216  
     735A      6.023353   736A      6.033914   737A      6.051162  
     738A      6.072385   739A      6.107785   740A      6.141413  
     741A      6.156471   742A      6.176522   743A      6.219625  
     744A      6.221849   745A      6.244666   746A      6.252565  
     747A      6.272491   748A      6.277840   749A      6.318028  
     750A      6.334303   751A      6.424949   752A      6.439654  
     753A      6.474400   754A      6.497206   755A      6.567056  
     756A      6.712147   757A      6.741699   758A      6.773213  
     759A      6.784605   760A      6.800657   761A      6.810677  
     762A      6.829962   763A      6.860007   764A      6.897359  
     765A      6.917735   766A      6.943579   767A      6.967785  
     768A      6.976102   769A      6.994861   770A      7.004806  
     771A      7.077140   772A      7.104667   773A      7.422272  
     774A      7.425599   775A      7.620236   776A      7.662148  
     777A      7.688868   778A     10.363268   779A     13.377916  
     780A     17.626418   781A     17.756204   782A     17.875286  
     783A     18.116445   784A     18.563482   785A     18.707714  
     786A     19.743906  

    Final Occupation by Irrep:
              A 
    DOCC [    41 ]

  @DF-RHF Final Energy:  -746.86881828129287

   => Energetics <=

    Nuclear Repulsion Energy =            574.9635048712805201
    One-Electron Energy =               -2164.8432945774075051
    Two-Electron Energy =                 843.0109714248341106
    Total Energy =                       -746.8688182812928744

Computation Completed

*** tstop() called on c401-011.stampede2.tacc.utexas.edu at Sat Feb 27 20:05:44 2021
Module time:
	user time   =     989.93 seconds =      16.50 minutes
	system time =      59.35 seconds =       0.99 minutes
	total time  =         56 seconds =       0.93 minutes
Total time:
	user time   =     989.93 seconds =      16.50 minutes
	system time =      59.35 seconds =       0.99 minutes
	total time  =         56 seconds =       0.93 minutes
   => Loading Basis Set <=

    Name: (AUG-CC-PVTZ AUX)
    Role: RIFIT
    Keyword: DF_BASIS_MP2
    atoms 1     entry S          line   666 file /home1/07844/xy3866/miniconda3/envs/p4env/share/psi4/basis/aug-cc-pvtz-ri.gbs 
    atoms 2     entry O          line   264 file /home1/07844/xy3866/miniconda3/envs/p4env/share/psi4/basis/aug-cc-pvtz-ri.gbs 
    atoms 3-9   entry C          line   148 file /home1/07844/xy3866/miniconda3/envs/p4env/share/psi4/basis/aug-cc-pvtz-ri.gbs 
    atoms 10-25 entry H          line    30 file /home1/07844/xy3866/miniconda3/envs/p4env/share/psi4/basis/aug-cc-pvtz-ri.gbs 


*** tstart() called on c401-011.stampede2.tacc.utexas.edu
*** at Sat Feb 27 20:05:45 2021


  //>>>>>>>>>>>>>>>>>>>>>>>>>>>>>>>>>>>//
  //               DFMP2               //
  //<<<<<<<<<<<<<<<<<<<<<<<<<<<<<<<<<<<//

	 --------------------------------------------------------
	                          DF-MP2                         
	      2nd-Order Density-Fitted Moller-Plesset Theory     
	              RMP2 Wavefunction,  32 Threads             
	                                                         
	        Rob Parrish, Justin Turney, Andy Simmonett,      
	           Ed Hohenstein, and C. David Sherrill          
	 --------------------------------------------------------

   => Auxiliary Basis Set <=

  Basis Set: (AUG-CC-PVTZ AUX)
    Blend: AUG-CC-PVTZ-RI
    Number of shells: 485
    Number of basis functions: 1731
    Number of Cartesian functions: 2159
    Spherical Harmonics?: true
    Max angular momentum: 4

	 --------------------------------------------------------
	                 NBF =   786, NAUX =  1731
	 --------------------------------------------------------
	   CLASS    FOCC     OCC    AOCC    AVIR     VIR    FVIR
	   PAIRS       0      41      41     745     745       0
	 --------------------------------------------------------

  DFHelper Memory: AOs need 7.287 GiB; user supplied 22.352 GiB. Using in-core AOs.


         ------------------------------------------------------------
                                     CPHF                           
                                  Rob Parrish                       
         ------------------------------------------------------------

  ==> Geometry <==

    Molecular point group: c1
    Full point group: C1

    Geometry (in Angstrom), charge = 0, multiplicity = 1:

       Center              X                  Y                   Z               Mass       
    ------------   -----------------  -----------------  -----------------  -----------------
         S           -0.253520708071    -0.543090591536    -0.170573065614    31.972071174400
         O           -0.279228708071    -1.199995591536     1.198127934386    15.994914619570
         C            2.405565291929     0.121626408464     0.156336934386    12.000000000000
         C            1.033994291929     0.740513408464    -0.106308065614    12.000000000000
         C           -1.666478708071     0.596547408464    -0.241739065614    12.000000000000
         C            2.873144291929    -0.747279591536    -1.009850065614    12.000000000000
         C            3.432555691929     1.162110508464     0.599925534386    12.000000000000
         C           -2.969318708071    -0.189051591536    -0.158769065614    12.000000000000
         C           -4.185898708071     0.732081408464    -0.140160065614    12.000000000000
         H            2.302558291929    -0.508874591536     1.048414934386     1.007825032230
         H            0.763044291929     1.424527408464     0.707276934386     1.007825032230
         H            1.018945291929     1.288051408464    -1.058256065614     1.007825032230
         H           -1.578511708071     1.285497408464     0.606998934386     1.007825032230
         H           -1.594012708071     1.166430408464    -1.176427065614     1.007825032230
         H            2.960976291929    -0.147897591536    -1.923396065614     1.007825032230
         H            3.855573291929    -1.178442591536    -0.795163065614     1.007825032230
         H            2.184123291929    -1.572784591536    -1.209799065614     1.007825032230
         H            3.530814291929     1.891653408464    -0.409065065614     1.007825032230
         H            4.400276291929     0.798521408464     0.679045934386     1.007825032230
         H            3.107622291929     1.830158408464     1.312161934386     1.007825032230
         H           -3.035450708071    -0.878645591536    -1.008574065614     1.007825032230
         H           -2.942619708071    -0.801670591536     0.747916934386     1.007825032230
         H           -4.150640708071     1.407434408464     0.719869934386     1.007825032230
         H           -4.233488708071     1.342615408464    -1.047096065614     1.007825032230
         H           -5.111710708071     0.153718408464    -0.074978065614     1.007825032230

  Nuclear repulsion =  574.963504871280520
  Reference energy  = -746.868818281292874

  ==> Basis Set <==

  Basis Set: AUG-CC-PVTZ
    Blend: AUG-CC-PVTZ
    Number of shells: 272
    Number of basis functions: 786
    Number of Cartesian functions: 899
    Spherical Harmonics?: true
    Max angular momentum: 3

  ==> CGRSolver (by Rob Parrish) <==

   Number of roots    =         1
   Preconditioning    =    JACOBI
   Convergence cutoff =     1E-06
   Maximum iterations =       100

  ==> CPHFRHamiltonian (by Rob Parrish) <== 

  ==> MemDFJK: Density-Fitted J/K Matrices <==

    J tasked:                   Yes
    K tasked:                   Yes
    wK tasked:                   No
    OpenMP threads:              32
    Memory [MiB]:             22888
    Algorithm:                 Core
    Schwarz Cutoff:           1E-12
    Mask sparsity (%):      11.3549
    Fitting Condition:        1E-10

   => Auxiliary Basis Set <=

  Basis Set: (AUG-CC-PVTZ AUX)
    Blend: AUG-CC-PVTZ-JKFIT
    Number of shells: 506
    Number of basis functions: 1714
    Number of Cartesian functions: 2108
    Spherical Harmonics?: true
    Max angular momentum: 4

  ==> CPHF Iterations <==

  => Iterations <=

             Iter  Converged  Remaining    Residual
  CGR           1          0          1   1.153E-01
  CGR           2          0          1   3.105E-02
  CGR           3          0          1   1.185E-02
  CGR           4          0          1   3.965E-03
  CGR           5          0          1   1.334E-03
  CGR           6          0          1   4.065E-04
  CGR           7          0          1   1.092E-04
  CGR           8          0          1   4.707E-05
  CGR           9          0          1   2.027E-05
  CGR          10          0          1   6.185E-06
  CGR          11          0          1   2.058E-06
  CGR          12          1          0   5.249E-07

    CGRSolver converged.

	-----------------------------------------------------------
	 ==================> DF-MP2 Energies <==================== 
	-----------------------------------------------------------
	 Reference Energy          =    -746.8688182812928744 [Eh]
	 Singles Energy            =      -0.0000000000000000 [Eh]
	 Same-Spin Energy          =      -0.4275404195473698 [Eh]
	 Opposite-Spin Energy      =      -1.4592475893426968 [Eh]
	 Correlation Energy        =      -1.8867880088900666 [Eh]
	 Total Energy              =    -748.7556062901829819 [Eh]
	-----------------------------------------------------------
	 ================> DF-SCS-MP2 Energies <================== 
	-----------------------------------------------------------
	 SCS Same-Spin Scale       =       0.3333333333333333 [-]
	 SCS Opposite-Spin Scale   =       1.2000000000000000 [-]
	 SCS Same-Spin Energy      =      -0.1425134731824566 [Eh]
	 SCS Opposite-Spin Energy  =      -1.7510971072112362 [Eh]
	 SCS Correlation Energy    =      -1.8936105803936929 [Eh]
	 SCS Total Energy          =    -748.7624288616865442 [Eh]
	-----------------------------------------------------------



Properties will be evaluated at   0.000000,  -0.000000,  -0.000000 [a0]

Properties computed using the MP2 density matrix

  Nuclear Dipole Moment: [e a0]
     X:     1.3771      Y:     7.0112      Z:    -2.6997

  Electronic Dipole Moment: [e a0]
     X:    -1.4223      Y:    -5.9159      Z:     1.8382

  Dipole Moment: [e a0]
     X:    -0.0453      Y:     1.0953      Z:    -0.8615     Total:     1.3942

  Dipole Moment: [D]
     X:    -0.1151      Y:     2.7840      Z:    -2.1896     Total:     3.5438


*** tstop() called on c401-011.stampede2.tacc.utexas.edu at Sat Feb 27 20:11:27 2021
Module time:
	user time   =    3196.87 seconds =      53.28 minutes
	system time =      85.46 seconds =       1.42 minutes
	total time  =        342 seconds =       5.70 minutes
Total time:
	user time   =    4188.12 seconds =      69.80 minutes
	system time =     144.85 seconds =       2.41 minutes
	total time  =        399 seconds =       6.65 minutes

    Psi4 stopped on: Saturday, 27 February 2021 08:11PM
    Psi4 wall time for execution: 0:06:40.30

*** Psi4 exiting successfully. Buy a developer a beer!
