
    -----------------------------------------------------------------------
          Psi4: An Open-Source Ab Initio Electronic Structure Package
                               Psi4 1.4a3.dev225 

                         Git: Rev {master} 7105e37 


    D. G. A. Smith, L. A. Burns, A. C. Simmonett, R. M. Parrish,
    M. C. Schieber, R. Galvelis, P. Kraus, H. Kruse, R. Di Remigio,
    A. Alenaizan, A. M. James, S. Lehtola, J. P. Misiewicz, M. Scheurer,
    R. A. Shaw, J. B. Schriber, Y. Xie, Z. L. Glick, D. A. Sirianni,
    J. S. O'Brien, J. M. Waldrop, A. Kumar, E. G. Hohenstein,
    B. P. Pritchard, B. R. Brooks, H. F. Schaefer III, A. Yu. Sokolov,
    K. Patkowski, A. E. DePrince III, U. Bozkaya, R. A. King,
    F. A. Evangelista, J. M. Turney, T. D. Crawford, C. D. Sherrill,
    J. Chem. Phys. 152(18) 184108 (2020). https://doi.org/10.1063/5.0006002

                            Additional Code Authors
    E. T. Seidl, C. L. Janssen, E. F. Valeev, M. L. Leininger,
    J. F. Gonthier, R. M. Richard, H. R. McAlexander, M. Saitow, X. Wang,
    P. Verma, and M. H. Lechner

             Previous Authors, Complete List of Code Contributors,
                       and Citations for Specific Modules
    https://github.com/psi4/psi4/blob/master/codemeta.json
    https://github.com/psi4/psi4/graphs/contributors
    http://psicode.org/psi4manual/master/introduction.html#citing-psifour

    -----------------------------------------------------------------------


    Psi4 started on: Monday, 01 March 2021 11:31AM

    Process ID: 107357
    Host:       c405-024.stampede2.tacc.utexas.edu
    PSIDATADIR: /home1/07844/xy3866/miniconda3/envs/p4env/share/psi4
    Memory:     500.0 MiB
    Threads:    32
    
  ==> Input File <==

--------------------------------------------------------------------------
#psi4
#
memory 32 gb

molecule  {
0 1
  S       -0.2613620    -0.5930190    -0.1424790
  O       -0.2870700    -1.2499240     1.2262220
  C        2.3977240     0.0716980     0.1844310
  C        1.0261530     0.6905850    -0.0782140
  C       -1.6743200     0.5466190    -0.2136450
  C        2.8653030    -0.7972080    -0.9817560
  C        3.4104270     1.1761770     0.4821660
  C       -2.9771600    -0.2389800    -0.1306750
  C       -4.1937400     0.6821530    -0.1120660
  H        2.3041048    -0.5013408     0.9952073
  H        0.7552030     1.3745990     0.7353710
  H        1.0111040     1.2381230    -1.0301620
  H       -1.5863530     1.2355690     0.6350930
  H       -1.6018540     1.1165020    -1.1483330
  H        2.9531350    -0.1978260    -1.8953020
  H        3.8477320    -1.2283710    -0.7670690
  H        2.1762820    -1.6227130    -1.1817050
  H        3.5229730     1.8417250    -0.3809710
  H        4.3924350     0.7485930     0.7071400
  H        3.0997810     1.7802300     1.3402560
  H       -3.0432920    -0.9285740    -0.9804800
  H       -2.9504610    -0.8515990     0.7760110
  H       -4.1584820     1.3575060     0.7479640
  H       -4.2413300     1.2926870    -1.0190020
  H       -5.1195520     0.1037900    -0.0468840
units angstrom
no_reorient  #important for SAPT in psi4, default
symmetry c1  #important for SAPT in psi4, default
}

set PROPERTIES_ORIGIN ["COM"]
properties('MP2/aug-cc-pvtz', properties = ['dipole'])
--------------------------------------------------------------------------

  Memory set to  29.802 GiB by Python driver.
    SCF Algorithm Type (re)set to DF.

*** tstart() called on c405-024.stampede2.tacc.utexas.edu
*** at Mon Mar  1 11:31:49 2021

   => Loading Basis Set <=

    Name: AUG-CC-PVTZ
    Role: ORBITAL
    Keyword: BASIS
    atoms 1     entry S          line   906 file /home1/07844/xy3866/miniconda3/envs/p4env/share/psi4/basis/aug-cc-pvtz.gbs 
    atoms 2     entry O          line   331 file /home1/07844/xy3866/miniconda3/envs/p4env/share/psi4/basis/aug-cc-pvtz.gbs 
    atoms 3-9   entry C          line   239 file /home1/07844/xy3866/miniconda3/envs/p4env/share/psi4/basis/aug-cc-pvtz.gbs 
    atoms 10-25 entry H          line    40 file /home1/07844/xy3866/miniconda3/envs/p4env/share/psi4/basis/aug-cc-pvtz.gbs 


         ---------------------------------------------------------
                                   SCF
               by Justin Turney, Rob Parrish, Andy Simmonett
                          and Daniel G. A. Smith
                              RHF Reference
                       32 Threads,  30517 MiB Core
         ---------------------------------------------------------

  ==> Geometry <==

    Molecular point group: c1
    Full point group: C1

    Geometry (in Angstrom), charge = 0, multiplicity = 1:

       Center              X                  Y                   Z               Mass       
    ------------   -----------------  -----------------  -----------------  -----------------
         S           -0.252426878990    -0.548667189898    -0.158201169877    31.972071174400
         O           -0.278134878990    -1.205572189898     1.210499830123    15.994914619570
         C            2.406659121010     0.116049810102     0.168708830123    12.000000000000
         C            1.035088121010     0.734936810102    -0.093936169877    12.000000000000
         C           -1.665384878990     0.590970810102    -0.229367169877    12.000000000000
         C            2.874238121010    -0.752856189898    -0.997478169877    12.000000000000
         C            3.419362121010     1.220528810102     0.466443830123    12.000000000000
         C           -2.968224878990    -0.194628189898    -0.146397169877    12.000000000000
         C           -4.184804878990     0.726504810102    -0.127788169877    12.000000000000
         H            2.313039921010    -0.456988989898     0.979485130123     1.007825032230
         H            0.764138121010     1.418950810102     0.719648830123     1.007825032230
         H            1.020039121010     1.282474810102    -1.045884169877     1.007825032230
         H           -1.577417878990     1.279920810102     0.619370830123     1.007825032230
         H           -1.592918878990     1.160853810102    -1.164055169877     1.007825032230
         H            2.962070121010    -0.153474189898    -1.911024169877     1.007825032230
         H            3.856667121010    -1.184019189898    -0.782791169877     1.007825032230
         H            2.185217121010    -1.578361189898    -1.197427169877     1.007825032230
         H            3.531908121010     1.886076810102    -0.396693169877     1.007825032230
         H            4.401370121010     0.792944810102     0.691417830123     1.007825032230
         H            3.108716121010     1.824581810102     1.324533830123     1.007825032230
         H           -3.034356878990    -0.884222189898    -0.996202169877     1.007825032230
         H           -2.941525878990    -0.807247189898     0.760288830123     1.007825032230
         H           -4.149546878990     1.401857810102     0.732241830123     1.007825032230
         H           -4.232394878990     1.337038810102    -1.034724169877     1.007825032230
         H           -5.110616878990     0.148141810102    -0.062606169877     1.007825032230

  Running in c1 symmetry.

  Rotational constants: A =      0.10886  B =      0.01889  C =      0.01802 [cm^-1]
  Rotational constants: A =   3263.44520  B =    566.41889  C =    540.09804 [MHz]
  Nuclear repulsion =  575.771807786704471

  Charge       = 0
  Multiplicity = 1
  Electrons    = 82
  Nalpha       = 41
  Nbeta        = 41

  ==> Algorithm <==

  SCF Algorithm Type is DF.
  DIIS enabled.
  MOM disabled.
  Fractional occupation disabled.
  Guess Type is SAD.
  Energy threshold   = 1.00e-10
  Density threshold  = 1.00e-10
  Integral threshold = 1.00e-12

  ==> Primary Basis <==

  Basis Set: AUG-CC-PVTZ
    Blend: AUG-CC-PVTZ
    Number of shells: 272
    Number of basis functions: 786
    Number of Cartesian functions: 899
    Spherical Harmonics?: true
    Max angular momentum: 3

   => Loading Basis Set <=

    Name: (AUG-CC-PVTZ AUX)
    Role: JKFIT
    Keyword: DF_BASIS_SCF
    atoms 1     entry S          line   730 file /home1/07844/xy3866/miniconda3/envs/p4env/share/psi4/basis/aug-cc-pvtz-jkfit.gbs 
    atoms 2     entry O          line   286 file /home1/07844/xy3866/miniconda3/envs/p4env/share/psi4/basis/aug-cc-pvtz-jkfit.gbs 
    atoms 3-9   entry C          line   162 file /home1/07844/xy3866/miniconda3/envs/p4env/share/psi4/basis/aug-cc-pvtz-jkfit.gbs 
    atoms 10-25 entry H          line    70 file /home1/07844/xy3866/miniconda3/envs/p4env/share/psi4/basis/aug-cc-pvtz-jkfit.gbs 

  ==> Integral Setup <==

  DFHelper Memory: AOs need 6.905 GiB; user supplied 22.352 GiB. Using in-core AOs.

  ==> MemDFJK: Density-Fitted J/K Matrices <==

    J tasked:                   Yes
    K tasked:                   Yes
    wK tasked:                   No
    OpenMP threads:              32
    Memory [MiB]:             22888
    Algorithm:                 Core
    Schwarz Cutoff:           1E-12
    Mask sparsity (%):      16.1953
    Fitting Condition:        1E-10

   => Auxiliary Basis Set <=

  Basis Set: (AUG-CC-PVTZ AUX)
    Blend: AUG-CC-PVTZ-JKFIT
    Number of shells: 506
    Number of basis functions: 1714
    Number of Cartesian functions: 2108
    Spherical Harmonics?: true
    Max angular momentum: 4

  Minimum eigenvalue in the overlap matrix is 2.3984758377E-06.
  Reciprocal condition number of the overlap matrix is 1.1291702180E-07.
    Using symmetric orthogonalization.

  ==> Pre-Iterations <==

  SCF Guess: Superposition of Atomic Densities via on-the-fly atomic UHF (no occupation information).

   -------------------------
    Irrep   Nso     Nmo    
   -------------------------
     A        786     786 
   -------------------------
    Total     786     786
   -------------------------

  ==> Iterations <==

                           Total Energy        Delta E     RMS |[F,P]|

   @DF-RHF iter SAD:  -746.56139196970946   -7.46561e+02   0.00000e+00 
   @DF-RHF iter   1:  -746.44446700612923    1.16925e-01   1.12347e-03 DIIS
   @DF-RHF iter   2:  -746.76556669682327   -3.21100e-01   6.62848e-04 DIIS
   @DF-RHF iter   3:  -746.87797840826602   -1.12412e-01   1.43941e-04 DIIS
   @DF-RHF iter   4:  -746.88479951250929   -6.82110e-03   5.79716e-05 DIIS
   @DF-RHF iter   5:  -746.88606504682252   -1.26553e-03   9.75560e-06 DIIS
   @DF-RHF iter   6:  -746.88611051647229   -4.54696e-05   2.58719e-06 DIIS
   @DF-RHF iter   7:  -746.88611461368237   -4.09721e-06   6.92074e-07 DIIS
   @DF-RHF iter   8:  -746.88611497580587   -3.62124e-07   2.51115e-07 DIIS
   @DF-RHF iter   9:  -746.88611504229539   -6.64895e-08   1.05705e-07 DIIS
   @DF-RHF iter  10:  -746.88611505318920   -1.08938e-08   4.00200e-08 DIIS
   @DF-RHF iter  11:  -746.88611505496601   -1.77681e-09   1.17586e-08 DIIS
   @DF-RHF iter  12:  -746.88611505511528   -1.49271e-10   4.22811e-09 DIIS
   @DF-RHF iter  13:  -746.88611505513541   -2.01226e-11   1.67507e-09 DIIS
   @DF-RHF iter  14:  -746.88611505513882   -3.41061e-12   5.77423e-10 DIIS
   @DF-RHF iter  15:  -746.88611505513745    1.36424e-12   1.71772e-10 DIIS
   @DF-RHF iter  16:  -746.88611505513916   -1.70530e-12   7.66376e-11 DIIS
  Energy and wave function converged.


  ==> Post-Iterations <==

    Orbital Energies [Eh]
    ---------------------

    Doubly Occupied:                                                      

       1A    -92.057556     2A    -20.497620     3A    -11.261683  
       4A    -11.259222     5A    -11.233449     6A    -11.226010  
       7A    -11.223731     8A    -11.220555     9A    -11.217211  
      10A     -9.045021    11A     -6.726619    12A     -6.726432  
      13A     -6.725149    14A     -1.317259    15A     -1.112898  
      16A     -1.085835    17A     -1.008073    18A     -0.941752  
      19A     -0.936873    20A     -0.846966    21A     -0.802283  
      22A     -0.785019    23A     -0.665588    24A     -0.651058  
      25A     -0.629781    26A     -0.611137    27A     -0.593530  
      28A     -0.588522    29A     -0.566400    30A     -0.554209  
      31A     -0.545045    32A     -0.533058    33A     -0.513935  
      34A     -0.506493    35A     -0.499376    36A     -0.487130  
      37A     -0.485421    38A     -0.479133    39A     -0.474355  
      40A     -0.403511    41A     -0.359385  

    Virtual:                                                              

      42A      0.025322    43A      0.028910    44A      0.033909  
      45A      0.036313    46A      0.045164    47A      0.046452  
      48A      0.047246    49A      0.057589    50A      0.059451  
      51A      0.063168    52A      0.067262    53A      0.070232  
      54A      0.072115    55A      0.083220    56A      0.091229  
      57A      0.099030    58A      0.103533    59A      0.109538  
      60A      0.115320    61A      0.118834    62A      0.122155  
      63A      0.125079    64A      0.127785    65A      0.129903  
      66A      0.133227    67A      0.134124    68A      0.140197  
      69A      0.143353    70A      0.151327    71A      0.155777  
      72A      0.159224    73A      0.162707    74A      0.165766  
      75A      0.167979    76A      0.170517    77A      0.173618  
      78A      0.175022    79A      0.184266    80A      0.188735  
      81A      0.198736    82A      0.206846    83A      0.207869  
      84A      0.211514    85A      0.212308    86A      0.226618  
      87A      0.227795    88A      0.235677    89A      0.238853  
      90A      0.239678    91A      0.248245    92A      0.253869  
      93A      0.254611    94A      0.258517    95A      0.263875  
      96A      0.271918    97A      0.276549    98A      0.280270  
      99A      0.283231   100A      0.290786   101A      0.296882  
     102A      0.298792   103A      0.301718   104A      0.309672  
     105A      0.313726   106A      0.315048   107A      0.323147  
     108A      0.330207   109A      0.338153   110A      0.341231  
     111A      0.342912   112A      0.345529   113A      0.349835  
     114A      0.351932   115A      0.356334   116A      0.358196  
     117A      0.362528   118A      0.369619   119A      0.370744  
     120A      0.372476   121A      0.377353   122A      0.382277  
     123A      0.383020   124A      0.386291   125A      0.387963  
     126A      0.391786   127A      0.397880   128A      0.400907  
     129A      0.403373   130A      0.409439   131A      0.413810  
     132A      0.414562   133A      0.419908   134A      0.425634  
     135A      0.427359   136A      0.427994   137A      0.438179  
     138A      0.442460   139A      0.445211   140A      0.446716  
     141A      0.452635   142A      0.455599   143A      0.455926  
     144A      0.461763   145A      0.464241   146A      0.467544  
     147A      0.471947   148A      0.475170   149A      0.478692  
     150A      0.483009   151A      0.486462   152A      0.491097  
     153A      0.495001   154A      0.499072   155A      0.501842  
     156A      0.504390   157A      0.510142   158A      0.513519  
     159A      0.517131   160A      0.519867   161A      0.526474  
     162A      0.528163   163A      0.531762   164A      0.538371  
     165A      0.539766   166A      0.548248   167A      0.549057  
     168A      0.553655   169A      0.557139   170A      0.565020  
     171A      0.567565   172A      0.569129   173A      0.574947  
     174A      0.582889   175A      0.587308   176A      0.590360  
     177A      0.597609   178A      0.603593   179A      0.609125  
     180A      0.615174   181A      0.617533   182A      0.621214  
     183A      0.621888   184A      0.626958   185A      0.635025  
     186A      0.640236   187A      0.647942   188A      0.649107  
     189A      0.654676   190A      0.667955   191A      0.671212  
     192A      0.680817   193A      0.682215   194A      0.687885  
     195A      0.688726   196A      0.703953   197A      0.713639  
     198A      0.722818   199A      0.728508   200A      0.730707  
     201A      0.737784   202A      0.751573   203A      0.759420  
     204A      0.763063   205A      0.773395   206A      0.779188  
     207A      0.786680   208A      0.795894   209A      0.802074  
     210A      0.805964   211A      0.816936   212A      0.819926  
     213A      0.827620   214A      0.831504   215A      0.837311  
     216A      0.839399   217A      0.841426   218A      0.847880  
     219A      0.855968   220A      0.863528   221A      0.866535  
     222A      0.870162   223A      0.871943   224A      0.881446  
     225A      0.884548   226A      0.888190   227A      0.898596  
     228A      0.903536   229A      0.910311   230A      0.914668  
     231A      0.914889   232A      0.918073   233A      0.920583  
     234A      0.923292   235A      0.929922   236A      0.935178  
     237A      0.940445   238A      0.943980   239A      0.950690  
     240A      0.952351   241A      0.960335   242A      0.965538  
     243A      0.969167   244A      0.975588   245A      0.977258  
     246A      0.981407   247A      0.983682   248A      0.996085  
     249A      0.997776   250A      1.002661   251A      1.006851  
     252A      1.013992   253A      1.017102   254A      1.024657  
     255A      1.030469   256A      1.033136   257A      1.034265  
     258A      1.040425   259A      1.045826   260A      1.048065  
     261A      1.058793   262A      1.064906   263A      1.067219  
     264A      1.072607   265A      1.075811   266A      1.077297  
     267A      1.084766   268A      1.092080   269A      1.101404  
     270A      1.103221   271A      1.109076   272A      1.114708  
     273A      1.119186   274A      1.124085   275A      1.129693  
     276A      1.132553   277A      1.140569   278A      1.142780  
     279A      1.143852   280A      1.151608   281A      1.160160  
     282A      1.163724   283A      1.172418   284A      1.178068  
     285A      1.180851   286A      1.182377   287A      1.190498  
     288A      1.195150   289A      1.201548   290A      1.205588  
     291A      1.209443   292A      1.214941   293A      1.216065  
     294A      1.224548   295A      1.226171   296A      1.237314  
     297A      1.238088   298A      1.250454   299A      1.256439  
     300A      1.258521   301A      1.265803   302A      1.267913  
     303A      1.276960   304A      1.290062   305A      1.293619  
     306A      1.295445   307A      1.306602   308A      1.309282  
     309A      1.314946   310A      1.329882   311A      1.333951  
     312A      1.341431   313A      1.348194   314A      1.351543  
     315A      1.353937   316A      1.357168   317A      1.366001  
     318A      1.371221   319A      1.380868   320A      1.383723  
     321A      1.397220   322A      1.404496   323A      1.405273  
     324A      1.417528   325A      1.422085   326A      1.428975  
     327A      1.430851   328A      1.449129   329A      1.451116  
     330A      1.461182   331A      1.468840   332A      1.474206  
     333A      1.476267   334A      1.480819   335A      1.488670  
     336A      1.499913   337A      1.502780   338A      1.510050  
     339A      1.523606   340A      1.531477   341A      1.536485  
     342A      1.545783   343A      1.547515   344A      1.554588  
     345A      1.561274   346A      1.565559   347A      1.571174  
     348A      1.577421   349A      1.584652   350A      1.590738  
     351A      1.603654   352A      1.617089   353A      1.625002  
     354A      1.629597   355A      1.635436   356A      1.640685  
     357A      1.651163   358A      1.654505   359A      1.660230  
     360A      1.669742   361A      1.678285   362A      1.682952  
     363A      1.686074   364A      1.691271   365A      1.695378  
     366A      1.699953   367A      1.702782   368A      1.712821  
     369A      1.718119   370A      1.722359   371A      1.728582  
     372A      1.731308   373A      1.736533   374A      1.745745  
     375A      1.746708   376A      1.752348   377A      1.756165  
     378A      1.759286   379A      1.767870   380A      1.768603  
     381A      1.784081   382A      1.791607   383A      1.794341  
     384A      1.802562   385A      1.808493   386A      1.820139  
     387A      1.822702   388A      1.831224   389A      1.845636  
     390A      1.853111   391A      1.855364   392A      1.862834  
     393A      1.873365   394A      1.881293   395A      1.882740  
     396A      1.888468   397A      1.899161   398A      1.904364  
     399A      1.913340   400A      1.921660   401A      1.925968  
     402A      1.927867   403A      1.937722   404A      1.940893  
     405A      1.946992   406A      1.954964   407A      1.959533  
     408A      1.967968   409A      1.972155   410A      1.980080  
     411A      1.986225   412A      1.991333   413A      2.004915  
     414A      2.011676   415A      2.017212   416A      2.026740  
     417A      2.035218   418A      2.040696   419A      2.052287  
     420A      2.066885   421A      2.067873   422A      2.071382  
     423A      2.082114   424A      2.089044   425A      2.104470  
     426A      2.106954   427A      2.113432   428A      2.128627  
     429A      2.129194   430A      2.145564   431A      2.154743  
     432A      2.159145   433A      2.182887   434A      2.190709  
     435A      2.196736   436A      2.204960   437A      2.215655  
     438A      2.221522   439A      2.231731   440A      2.233437  
     441A      2.247306   442A      2.251094   443A      2.257920  
     444A      2.273598   445A      2.279539   446A      2.283858  
     447A      2.291335   448A      2.294683   449A      2.304808  
     450A      2.316632   451A      2.330384   452A      2.332969  
     453A      2.357820   454A      2.358258   455A      2.374467  
     456A      2.381126   457A      2.392748   458A      2.397718  
     459A      2.405715   460A      2.409316   461A      2.412215  
     462A      2.423886   463A      2.432960   464A      2.440435  
     465A      2.450708   466A      2.474721   467A      2.488529  
     468A      2.493713   469A      2.500284   470A      2.509690  
     471A      2.522750   472A      2.525208   473A      2.539747  
     474A      2.550866   475A      2.567483   476A      2.576377  
     477A      2.578477   478A      2.591977   479A      2.598931  
     480A      2.620107   481A      2.635230   482A      2.647422  
     483A      2.668341   484A      2.672476   485A      2.696236  
     486A      2.700068   487A      2.711905   488A      2.729073  
     489A      2.756784   490A      2.783827   491A      2.804549  
     492A      2.827039   493A      2.831810   494A      2.863544  
     495A      2.877387   496A      2.923254   497A      2.932655  
     498A      2.948564   499A      2.968410   500A      2.987274  
     501A      2.993511   502A      3.024823   503A      3.032367  
     504A      3.061632   505A      3.112166   506A      3.115478  
     507A      3.174928   508A      3.254392   509A      3.264611  
     510A      3.286546   511A      3.331426   512A      3.361839  
     513A      3.399302   514A      3.403793   515A      3.423157  
     516A      3.425728   517A      3.443341   518A      3.466060  
     519A      3.475895   520A      3.484878   521A      3.498213  
     522A      3.500847   523A      3.517368   524A      3.525452  
     525A      3.544215   526A      3.546720   527A      3.557505  
     528A      3.559478   529A      3.578321   530A      3.604935  
     531A      3.613244   532A      3.630783   533A      3.643590  
     534A      3.657219   535A      3.662084   536A      3.672613  
     537A      3.682736   538A      3.688350   539A      3.696930  
     540A      3.705600   541A      3.719272   542A      3.730584  
     543A      3.733831   544A      3.738246   545A      3.745031  
     546A      3.756671   547A      3.757279   548A      3.767792  
     549A      3.772738   550A      3.781122   551A      3.787842  
     552A      3.800817   553A      3.810460   554A      3.820777  
     555A      3.822990   556A      3.830522   557A      3.841233  
     558A      3.847129   559A      3.855419   560A      3.861619  
     561A      3.871030   562A      3.881325   563A      3.886720  
     564A      3.891950   565A      3.914558   566A      3.918737  
     567A      3.927228   568A      3.935610   569A      3.948661  
     570A      3.950323   571A      3.966790   572A      3.969404  
     573A      3.970200   574A      3.979789   575A      3.990335  
     576A      4.003215   577A      4.007931   578A      4.020838  
     579A      4.023176   580A      4.028817   581A      4.041556  
     582A      4.043030   583A      4.046102   584A      4.054809  
     585A      4.069423   586A      4.080672   587A      4.098465  
     588A      4.105349   589A      4.114632   590A      4.131116  
     591A      4.140259   592A      4.152976   593A      4.180290  
     594A      4.201350   595A      4.204171   596A      4.205311  
     597A      4.214747   598A      4.222861   599A      4.231028  
     600A      4.247152   601A      4.249204   602A      4.256091  
     603A      4.261202   604A      4.271420   605A      4.274533  
     606A      4.285230   607A      4.296024   608A      4.305850  
     609A      4.321298   610A      4.332793   611A      4.343538  
     612A      4.352257   613A      4.361425   614A      4.363872  
     615A      4.382870   616A      4.389495   617A      4.413235  
     618A      4.430700   619A      4.434193   620A      4.449065  
     621A      4.461371   622A      4.472012   623A      4.504910  
     624A      4.506881   625A      4.516600   626A      4.540790  
     627A      4.556486   628A      4.567622   629A      4.584617  
     630A      4.613972   631A      4.636647   632A      4.641792  
     633A      4.655069   634A      4.666128   635A      4.669117  
     636A      4.674974   637A      4.680526   638A      4.698874  
     639A      4.708534   640A      4.714600   641A      4.736299  
     642A      4.745447   643A      4.752074   644A      4.763287  
     645A      4.784891   646A      4.787514   647A      4.801051  
     648A      4.819018   649A      4.823901   650A      4.830960  
     651A      4.855959   652A      4.862466   653A      4.879588  
     654A      4.887591   655A      4.890137   656A      4.909407  
     657A      4.924383   658A      4.926245   659A      4.940502  
     660A      4.943383   661A      4.954206   662A      4.972980  
     663A      4.994633   664A      5.006874   665A      5.018179  
     666A      5.034937   667A      5.042745   668A      5.053271  
     669A      5.083364   670A      5.098164   671A      5.110229  
     672A      5.120718   673A      5.128306   674A      5.138317  
     675A      5.142879   676A      5.168330   677A      5.177794  
     678A      5.181376   679A      5.197977   680A      5.205463  
     681A      5.208342   682A      5.220082   683A      5.233023  
     684A      5.246930   685A      5.270006   686A      5.274834  
     687A      5.296196   688A      5.300985   689A      5.318104  
     690A      5.332250   691A      5.344897   692A      5.345962  
     693A      5.361761   694A      5.368858   695A      5.369416  
     696A      5.375566   697A      5.389321   698A      5.404685  
     699A      5.408453   700A      5.422320   701A      5.434916  
     702A      5.455054   703A      5.464447   704A      5.476506  
     705A      5.484785   706A      5.486758   707A      5.505783  
     708A      5.552468   709A      5.560700   710A      5.567116  
     711A      5.573826   712A      5.592621   713A      5.605036  
     714A      5.614228   715A      5.631318   716A      5.645491  
     717A      5.652225   718A      5.688313   719A      5.705012  
     720A      5.712792   721A      5.731819   722A      5.745341  
     723A      5.758557   724A      5.784511   725A      5.819661  
     726A      5.830022   727A      5.841574   728A      5.865150  
     729A      5.866979   730A      5.887585   731A      5.923033  
     732A      5.977327   733A      5.990855   734A      6.020465  
     735A      6.033172   736A      6.049583   737A      6.057699  
     738A      6.093800   739A      6.125692   740A      6.149344  
     741A      6.160338   742A      6.170337   743A      6.179799  
     744A      6.230299   745A      6.245896   746A      6.253611  
     747A      6.265958   748A      6.306104   749A      6.325922  
     750A      6.346559   751A      6.439869   752A      6.457195  
     753A      6.499392   754A      6.542187   755A      6.577102  
     756A      6.739581   757A      6.764157   758A      6.776848  
     759A      6.803843   760A      6.825115   761A      6.840828  
     762A      6.855615   763A      6.870643   764A      6.905457  
     765A      6.926023   766A      6.953957   767A      6.969250  
     768A      6.986197   769A      6.993760   770A      7.006057  
     771A      7.076805   772A      7.110313   773A      7.421085  
     774A      7.424520   775A      7.620628   776A      7.661807  
     777A      7.689190   778A     10.371038   779A     13.375501  
     780A     17.654057   781A     17.789919   782A     18.142556  
     783A     18.299407   784A     18.476965   785A     18.721160  
     786A     19.691688  

    Final Occupation by Irrep:
              A 
    DOCC [    41 ]

  @DF-RHF Final Energy:  -746.88611505513916

   => Energetics <=

    Nuclear Repulsion Energy =            575.7718077867044713
    One-Electron Energy =               -2166.5072791906491148
    Two-Electron Energy =                 843.8493563488055997
    Total Energy =                       -746.8861150551391574

Computation Completed

*** tstop() called on c405-024.stampede2.tacc.utexas.edu at Mon Mar  1 11:33:29 2021
Module time:
	user time   =     992.28 seconds =      16.54 minutes
	system time =      59.84 seconds =       1.00 minutes
	total time  =        100 seconds =       1.67 minutes
Total time:
	user time   =     992.28 seconds =      16.54 minutes
	system time =      59.84 seconds =       1.00 minutes
	total time  =        100 seconds =       1.67 minutes
   => Loading Basis Set <=

    Name: (AUG-CC-PVTZ AUX)
    Role: RIFIT
    Keyword: DF_BASIS_MP2
    atoms 1     entry S          line   666 file /home1/07844/xy3866/miniconda3/envs/p4env/share/psi4/basis/aug-cc-pvtz-ri.gbs 
    atoms 2     entry O          line   264 file /home1/07844/xy3866/miniconda3/envs/p4env/share/psi4/basis/aug-cc-pvtz-ri.gbs 
    atoms 3-9   entry C          line   148 file /home1/07844/xy3866/miniconda3/envs/p4env/share/psi4/basis/aug-cc-pvtz-ri.gbs 
    atoms 10-25 entry H          line    30 file /home1/07844/xy3866/miniconda3/envs/p4env/share/psi4/basis/aug-cc-pvtz-ri.gbs 


*** tstart() called on c405-024.stampede2.tacc.utexas.edu
*** at Mon Mar  1 11:33:31 2021


  //>>>>>>>>>>>>>>>>>>>>>>>>>>>>>>>>>>>//
  //               DFMP2               //
  //<<<<<<<<<<<<<<<<<<<<<<<<<<<<<<<<<<<//

	 --------------------------------------------------------
	                          DF-MP2                         
	      2nd-Order Density-Fitted Moller-Plesset Theory     
	              RMP2 Wavefunction,  32 Threads             
	                                                         
	        Rob Parrish, Justin Turney, Andy Simmonett,      
	           Ed Hohenstein, and C. David Sherrill          
	 --------------------------------------------------------

   => Auxiliary Basis Set <=

  Basis Set: (AUG-CC-PVTZ AUX)
    Blend: AUG-CC-PVTZ-RI
    Number of shells: 485
    Number of basis functions: 1731
    Number of Cartesian functions: 2159
    Spherical Harmonics?: true
    Max angular momentum: 4

	 --------------------------------------------------------
	                 NBF =   786, NAUX =  1731
	 --------------------------------------------------------
	   CLASS    FOCC     OCC    AOCC    AVIR     VIR    FVIR
	   PAIRS       0      41      41     745     745       0
	 --------------------------------------------------------

  DFHelper Memory: AOs need 7.288 GiB; user supplied 22.352 GiB. Using in-core AOs.


         ------------------------------------------------------------
                                     CPHF                           
                                  Rob Parrish                       
         ------------------------------------------------------------

  ==> Geometry <==

    Molecular point group: c1
    Full point group: C1

    Geometry (in Angstrom), charge = 0, multiplicity = 1:

       Center              X                  Y                   Z               Mass       
    ------------   -----------------  -----------------  -----------------  -----------------
         S           -0.252426878990    -0.548667189898    -0.158201169877    31.972071174400
         O           -0.278134878990    -1.205572189898     1.210499830123    15.994914619570
         C            2.406659121010     0.116049810102     0.168708830123    12.000000000000
         C            1.035088121010     0.734936810102    -0.093936169877    12.000000000000
         C           -1.665384878990     0.590970810102    -0.229367169877    12.000000000000
         C            2.874238121010    -0.752856189898    -0.997478169877    12.000000000000
         C            3.419362121010     1.220528810102     0.466443830123    12.000000000000
         C           -2.968224878990    -0.194628189898    -0.146397169877    12.000000000000
         C           -4.184804878990     0.726504810102    -0.127788169877    12.000000000000
         H            2.313039921010    -0.456988989898     0.979485130123     1.007825032230
         H            0.764138121010     1.418950810102     0.719648830123     1.007825032230
         H            1.020039121010     1.282474810102    -1.045884169877     1.007825032230
         H           -1.577417878990     1.279920810102     0.619370830123     1.007825032230
         H           -1.592918878990     1.160853810102    -1.164055169877     1.007825032230
         H            2.962070121010    -0.153474189898    -1.911024169877     1.007825032230
         H            3.856667121010    -1.184019189898    -0.782791169877     1.007825032230
         H            2.185217121010    -1.578361189898    -1.197427169877     1.007825032230
         H            3.531908121010     1.886076810102    -0.396693169877     1.007825032230
         H            4.401370121010     0.792944810102     0.691417830123     1.007825032230
         H            3.108716121010     1.824581810102     1.324533830123     1.007825032230
         H           -3.034356878990    -0.884222189898    -0.996202169877     1.007825032230
         H           -2.941525878990    -0.807247189898     0.760288830123     1.007825032230
         H           -4.149546878990     1.401857810102     0.732241830123     1.007825032230
         H           -4.232394878990     1.337038810102    -1.034724169877     1.007825032230
         H           -5.110616878990     0.148141810102    -0.062606169877     1.007825032230

  Nuclear repulsion =  575.771807786704471
  Reference energy  = -746.886115055139157

  ==> Basis Set <==

  Basis Set: AUG-CC-PVTZ
    Blend: AUG-CC-PVTZ
    Number of shells: 272
    Number of basis functions: 786
    Number of Cartesian functions: 899
    Spherical Harmonics?: true
    Max angular momentum: 3

  ==> CGRSolver (by Rob Parrish) <==

   Number of roots    =         1
   Preconditioning    =    JACOBI
   Convergence cutoff =     1E-06
   Maximum iterations =       100

  ==> CPHFRHamiltonian (by Rob Parrish) <== 

  ==> MemDFJK: Density-Fitted J/K Matrices <==

    J tasked:                   Yes
    K tasked:                   Yes
    wK tasked:                   No
    OpenMP threads:              32
    Memory [MiB]:             22888
    Algorithm:                 Core
    Schwarz Cutoff:           1E-12
    Mask sparsity (%):      11.3461
    Fitting Condition:        1E-10

   => Auxiliary Basis Set <=

  Basis Set: (AUG-CC-PVTZ AUX)
    Blend: AUG-CC-PVTZ-JKFIT
    Number of shells: 506
    Number of basis functions: 1714
    Number of Cartesian functions: 2108
    Spherical Harmonics?: true
    Max angular momentum: 4

  ==> CPHF Iterations <==

  => Iterations <=

             Iter  Converged  Remaining    Residual
  CGR           1          0          1   1.144E-01
  CGR           2          0          1   3.058E-02
  CGR           3          0          1   1.167E-02
  CGR           4          0          1   3.896E-03
  CGR           5          0          1   1.275E-03
  CGR           6          0          1   3.947E-04
  CGR           7          0          1   1.049E-04
  CGR           8          0          1   4.170E-05
  CGR           9          0          1   1.875E-05
  CGR          10          0          1   5.685E-06
  CGR          11          0          1   1.929E-06
  CGR          12          1          0   5.156E-07

    CGRSolver converged.

	-----------------------------------------------------------
	 ==================> DF-MP2 Energies <==================== 
	-----------------------------------------------------------
	 Reference Energy          =    -746.8861150551391574 [Eh]
	 Singles Energy            =      -0.0000000000000000 [Eh]
	 Same-Spin Energy          =      -0.4270993260026260 [Eh]
	 Opposite-Spin Energy      =      -1.4575938057404878 [Eh]
	 Correlation Energy        =      -1.8846931317431137 [Eh]
	 Total Energy              =    -748.7708081868822774 [Eh]
	-----------------------------------------------------------
	 ================> DF-SCS-MP2 Energies <================== 
	-----------------------------------------------------------
	 SCS Same-Spin Scale       =       0.3333333333333333 [-]
	 SCS Opposite-Spin Scale   =       1.2000000000000000 [-]
	 SCS Same-Spin Energy      =      -0.1423664420008753 [Eh]
	 SCS Opposite-Spin Energy  =      -1.7491125668885854 [Eh]
	 SCS Correlation Energy    =      -1.8914790088894606 [Eh]
	 SCS Total Energy          =    -748.7775940640285626 [Eh]
	-----------------------------------------------------------



Properties will be evaluated at   0.000000,   0.000000,   0.000000 [a0]

Properties computed using the MP2 density matrix

  Nuclear Dipole Moment: [e a0]
     X:     1.4023      Y:     6.9812      Z:    -2.5899

  Electronic Dipole Moment: [e a0]
     X:    -1.4205      Y:    -5.8482      Z:     1.7007

  Dipole Moment: [e a0]
     X:    -0.0182      Y:     1.1330      Z:    -0.8892     Total:     1.4404

  Dipole Moment: [D]
     X:    -0.0462      Y:     2.8799      Z:    -2.2601     Total:     3.6611


*** tstop() called on c405-024.stampede2.tacc.utexas.edu at Mon Mar  1 11:44:45 2021
Module time:
	user time   =    3176.17 seconds =      52.94 minutes
	system time =      77.00 seconds =       1.28 minutes
	total time  =        674 seconds =      11.23 minutes
Total time:
	user time   =    4169.68 seconds =      69.49 minutes
	system time =     136.86 seconds =       2.28 minutes
	total time  =        776 seconds =      12.93 minutes

    Psi4 stopped on: Monday, 01 March 2021 11:44AM
    Psi4 wall time for execution: 0:12:58.08

*** Psi4 exiting successfully. Buy a developer a beer!
