54172139                                                                
Freq      RMP2-FC                                                     6-31G(d)            
Number of atoms                            I               29
Info1-9                                    I   N=           9
          41          39        1002           0           0         100
           6           2           1
Charge                                     I                0
Multiplicity                               I                1
Number of electrons                        I              106
Number of alpha electrons                  I               53
Number of beta electrons                   I               53
Number of basis functions                  I              253
Number of independent functions            I              253
Number of point charges in /Mol/           I                0
Number of translation vectors              I                0
Atomic numbers                             I   N=          29
           7           7           6           6           6           6
           6           6           6           6           6           6
           6           6           6           1           1           1
           1           1           1           1           1           1
           1           1           1           1           1
Nuclear charges                            R   N=          29
  7.00000000E+00  7.00000000E+00  6.00000000E+00  6.00000000E+00  6.00000000E+00
  6.00000000E+00  6.00000000E+00  6.00000000E+00  6.00000000E+00  6.00000000E+00
  6.00000000E+00  6.00000000E+00  6.00000000E+00  6.00000000E+00  6.00000000E+00
  1.00000000E+00  1.00000000E+00  1.00000000E+00  1.00000000E+00  1.00000000E+00
  1.00000000E+00  1.00000000E+00  1.00000000E+00  1.00000000E+00  1.00000000E+00
  1.00000000E+00  1.00000000E+00  1.00000000E+00  1.00000000E+00
Current cartesian coordinates              R   N=          87
  1.96599299E+00  3.32324334E+00  8.46723392E-01 -2.66967267E+00  6.59731298E-01
 -1.82836057E+00  2.70331441E+00  7.99017351E-01  2.85929213E-01  1.04451224E+00
 -1.27037956E+00 -2.00700342E-02 -1.73592073E+00 -9.83114431E-01 -1.06821890E-01
  5.31500583E+00  3.58461917E-01  1.12753618E-01  2.04730617E+00 -3.70670966E+00
 -3.57408631E-01 -1.14034041E-01  3.71512918E+00  2.60206615E+00  1.86961053E+00
  5.01341415E+00 -1.33250730E+00  6.28575713E+00 -2.05081795E+00 -3.08894500E-01
  4.64330960E+00 -4.10771071E+00 -5.17029298E-01 -3.29637148E+00 -2.43756379E+00
  1.46553194E+00 -5.91055694E+00 -2.20116392E+00  1.25947317E+00 -5.19702260E+00
  8.69420551E-01 -1.99204638E+00 -6.88738135E+00 -5.09496273E-01 -5.08965200E-01
  6.57082824E+00  1.95981405E+00  4.02520628E-01  7.48149557E-01 -5.28404045E+00
 -5.99718552E-01 -1.99655134E+00  3.64393642E+00  1.73009552E+00  1.21701433E-01
  5.58422785E+00  3.46469977E+00 -1.50582576E-02  2.29859255E+00  4.10174878E+00
  1.85795985E+00  6.97102593E+00 -6.58266389E-01  1.89534274E-01  4.67994411E+00
 -2.50771196E+00  3.55850350E+00  4.73177894E+00 -2.48629525E+00  8.31888004E+00
 -2.33041371E+00 -4.23120584E-01  5.37747647E+00 -6.00375397E+00 -8.13635329E-01
 -2.45202393E+00 -3.71096581E+00  2.83892570E+00 -7.15891248E+00 -3.30160923E+00
  2.46534975E+00 -5.88798842E+00  2.20646070E+00 -3.39605303E+00 -8.91191391E+00
 -2.56741006E-01 -7.39143947E-01
Force Field                                I                0
Int Atom Types                             I   N=          29
           0           0           0           0           0           0
           0           0           0           0           0           0
           0           0           0           0           0           0
           0           0           0           0           0           0
           0           0           0           0           0
MM charges                                 R   N=          29
  0.00000000E+00  0.00000000E+00  0.00000000E+00  0.00000000E+00  0.00000000E+00
  0.00000000E+00  0.00000000E+00  0.00000000E+00  0.00000000E+00  0.00000000E+00
  0.00000000E+00  0.00000000E+00  0.00000000E+00  0.00000000E+00  0.00000000E+00
  0.00000000E+00  0.00000000E+00  0.00000000E+00  0.00000000E+00  0.00000000E+00
  0.00000000E+00  0.00000000E+00  0.00000000E+00  0.00000000E+00  0.00000000E+00
  0.00000000E+00  0.00000000E+00  0.00000000E+00  0.00000000E+00
Integer atomic weights                     I   N=          29
          14          14          12          12          12          12
          12          12          12          12          12          12
          12          12          12           1           1           1
           1           1           1           1           1           1
           1           1           1           1           1
Real atomic weights                        R   N=          29
  1.40030740E+01  1.40030740E+01  1.20000000E+01  1.20000000E+01  1.20000000E+01
  1.20000000E+01  1.20000000E+01  1.20000000E+01  1.20000000E+01  1.20000000E+01
  1.20000000E+01  1.20000000E+01  1.20000000E+01  1.20000000E+01  1.20000000E+01
  1.00782504E+00  1.00782504E+00  1.00782504E+00  1.00782504E+00  1.00782504E+00
  1.00782504E+00  1.00782504E+00  1.00782504E+00  1.00782504E+00  1.00782504E+00
  1.00782504E+00  1.00782504E+00  1.00782504E+00  1.00782504E+00
Atom fragment info                         I   N=          29
           0           0           0           0           0           0
           0           0           0           0           0           0
           0           0           0           0           0           0
           0           0           0           0           0           0
           0           0           0           0           0
Atom residue num                           I   N=          29
           0           0           0           0           0           0
           0           0           0           0           0           0
           0           0           0           0           0           0
           0           0           0           0           0           0
           0           0           0           0           0
Nuclear spins                              I   N=          29
           2           2           0           0           0           0
           0           0           0           0           0           0
           0           0           0           1           1           1
           1           1           1           1           1           1
           1           1           1           1           1
Nuclear ZEff                               R   N=          29
 -4.55000000E+00 -4.55000000E+00 -3.60000000E+00 -3.60000000E+00 -3.60000000E+00
 -3.60000000E+00 -3.60000000E+00 -3.60000000E+00 -3.60000000E+00 -3.60000000E+00
 -3.60000000E+00 -3.60000000E+00 -3.60000000E+00 -3.60000000E+00 -3.60000000E+00
 -1.00000000E+00 -1.00000000E+00 -1.00000000E+00 -1.00000000E+00 -1.00000000E+00
 -1.00000000E+00 -1.00000000E+00 -1.00000000E+00 -1.00000000E+00 -1.00000000E+00
 -1.00000000E+00 -1.00000000E+00 -1.00000000E+00 -1.00000000E+00
Nuclear QMom                               R   N=          29
  2.04400000E+00  2.04400000E+00  0.00000000E+00  0.00000000E+00  0.00000000E+00
  0.00000000E+00  0.00000000E+00  0.00000000E+00  0.00000000E+00  0.00000000E+00
  0.00000000E+00  0.00000000E+00  0.00000000E+00  0.00000000E+00  0.00000000E+00
  0.00000000E+00  0.00000000E+00  0.00000000E+00  0.00000000E+00  0.00000000E+00
  0.00000000E+00  0.00000000E+00  0.00000000E+00  0.00000000E+00  0.00000000E+00
  0.00000000E+00  0.00000000E+00  0.00000000E+00  0.00000000E+00
Nuclear GFac                               R   N=          29
  4.03761000E-01  4.03761000E-01  0.00000000E+00  0.00000000E+00  0.00000000E+00
  0.00000000E+00  0.00000000E+00  0.00000000E+00  0.00000000E+00  0.00000000E+00
  0.00000000E+00  0.00000000E+00  0.00000000E+00  0.00000000E+00  0.00000000E+00
  2.79284600E+00  2.79284600E+00  2.79284600E+00  2.79284600E+00  2.79284600E+00
  2.79284600E+00  2.79284600E+00  2.79284600E+00  2.79284600E+00  2.79284600E+00
  2.79284600E+00  2.79284600E+00  2.79284600E+00  2.79284600E+00
MicOpt                                     I   N=          29
          -1          -1          -1          -1          -1          -1
          -1          -1          -1          -1          -1          -1
          -1          -1          -1          -1          -1          -1
          -1          -1          -1          -1          -1          -1
          -1          -1          -1          -1          -1
Number of contracted shells                I               88
Number of primitive shells                 I              221
Pure/Cartesian d shells                    I                1
Pure/Cartesian f shells                    I                0
Highest angular momentum                   I                2
Largest degree of contraction              I                6
Shell types                                I   N=          88
           0          -1          -1           2           0          -1
          -1           2           0          -1          -1           2
           0          -1          -1           2           0          -1
          -1           2           0          -1          -1           2
           0          -1          -1           2           0          -1
          -1           2           0          -1          -1           2
           0          -1          -1           2           0          -1
          -1           2           0          -1          -1           2
           0          -1          -1           2           0          -1
          -1           2           0          -1          -1           2
           0           0           0           0           0           0
           0           0           0           0           0           0
           0           0           0           0           0           0
           0           0           0           0           0           0
           0           0           0           0
Number of primitives per shell             I   N=          88
           6           3           1           1           6           3
           1           1           6           3           1           1
           6           3           1           1           6           3
           1           1           6           3           1           1
           6           3           1           1           6           3
           1           1           6           3           1           1
           6           3           1           1           6           3
           1           1           6           3           1           1
           6           3           1           1           6           3
           1           1           6           3           1           1
           3           1           3           1           3           1
           3           1           3           1           3           1
           3           1           3           1           3           1
           3           1           3           1           3           1
           3           1           3           1
Shell to atom map                          I   N=          88
           1           1           1           1           2           2
           2           2           3           3           3           3
           4           4           4           4           5           5
           5           5           6           6           6           6
           7           7           7           7           8           8
           8           8           9           9           9           9
          10          10          10          10          11          11
          11          11          12          12          12          12
          13          13          13          13          14          14
          14          14          15          15          15          15
          16          16          17          17          18          18
          19          19          20          20          21          21
          22          22          23          23          24          24
          25          25          26          26          27          27
          28          28          29          29
Primitive exponents                        R   N=         221
  4.17351146E+03  6.27457911E+02  1.42902093E+02  4.02343293E+01  1.28202129E+01
  4.39043701E+00  1.16263619E+01  2.71627981E+00  7.72218397E-01  2.12031498E-01
  8.00000000E-01  4.17351146E+03  6.27457911E+02  1.42902093E+02  4.02343293E+01
  1.28202129E+01  4.39043701E+00  1.16263619E+01  2.71627981E+00  7.72218397E-01
  2.12031498E-01  8.00000000E-01  3.04752488E+03  4.57369518E+02  1.03948685E+02
  2.92101553E+01  9.28666296E+00  3.16392696E+00  7.86827235E+00  1.88128854E+00
  5.44249258E-01  1.68714478E-01  8.00000000E-01  3.04752488E+03  4.57369518E+02
  1.03948685E+02  2.92101553E+01  9.28666296E+00  3.16392696E+00  7.86827235E+00
  1.88128854E+00  5.44249258E-01  1.68714478E-01  8.00000000E-01  3.04752488E+03
  4.57369518E+02  1.03948685E+02  2.92101553E+01  9.28666296E+00  3.16392696E+00
  7.86827235E+00  1.88128854E+00  5.44249258E-01  1.68714478E-01  8.00000000E-01
  3.04752488E+03  4.57369518E+02  1.03948685E+02  2.92101553E+01  9.28666296E+00
  3.16392696E+00  7.86827235E+00  1.88128854E+00  5.44249258E-01  1.68714478E-01
  8.00000000E-01  3.04752488E+03  4.57369518E+02  1.03948685E+02  2.92101553E+01
  9.28666296E+00  3.16392696E+00  7.86827235E+00  1.88128854E+00  5.44249258E-01
  1.68714478E-01  8.00000000E-01  3.04752488E+03  4.57369518E+02  1.03948685E+02
  2.92101553E+01  9.28666296E+00  3.16392696E+00  7.86827235E+00  1.88128854E+00
  5.44249258E-01  1.68714478E-01  8.00000000E-01  3.04752488E+03  4.57369518E+02
  1.03948685E+02  2.92101553E+01  9.28666296E+00  3.16392696E+00  7.86827235E+00
  1.88128854E+00  5.44249258E-01  1.68714478E-01  8.00000000E-01  3.04752488E+03
  4.57369518E+02  1.03948685E+02  2.92101553E+01  9.28666296E+00  3.16392696E+00
  7.86827235E+00  1.88128854E+00  5.44249258E-01  1.68714478E-01  8.00000000E-01
  3.04752488E+03  4.57369518E+02  1.03948685E+02  2.92101553E+01  9.28666296E+00
  3.16392696E+00  7.86827235E+00  1.88128854E+00  5.44249258E-01  1.68714478E-01
  8.00000000E-01  3.04752488E+03  4.57369518E+02  1.03948685E+02  2.92101553E+01
  9.28666296E+00  3.16392696E+00  7.86827235E+00  1.88128854E+00  5.44249258E-01
  1.68714478E-01  8.00000000E-01  3.04752488E+03  4.57369518E+02  1.03948685E+02
  2.92101553E+01  9.28666296E+00  3.16392696E+00  7.86827235E+00  1.88128854E+00
  5.44249258E-01  1.68714478E-01  8.00000000E-01  3.04752488E+03  4.57369518E+02
  1.03948685E+02  2.92101553E+01  9.28666296E+00  3.16392696E+00  7.86827235E+00
  1.88128854E+00  5.44249258E-01  1.68714478E-01  8.00000000E-01  3.04752488E+03
  4.57369518E+02  1.03948685E+02  2.92101553E+01  9.28666296E+00  3.16392696E+00
  7.86827235E+00  1.88128854E+00  5.44249258E-01  1.68714478E-01  8.00000000E-01
  1.87311370E+01  2.82539436E+00  6.40121692E-01  1.61277759E-01  1.87311370E+01
  2.82539436E+00  6.40121692E-01  1.61277759E-01  1.87311370E+01  2.82539436E+00
  6.40121692E-01  1.61277759E-01  1.87311370E+01  2.82539436E+00  6.40121692E-01
  1.61277759E-01  1.87311370E+01  2.82539436E+00  6.40121692E-01  1.61277759E-01
  1.87311370E+01  2.82539436E+00  6.40121692E-01  1.61277759E-01  1.87311370E+01
  2.82539436E+00  6.40121692E-01  1.61277759E-01  1.87311370E+01  2.82539436E+00
  6.40121692E-01  1.61277759E-01  1.87311370E+01  2.82539436E+00  6.40121692E-01
  1.61277759E-01  1.87311370E+01  2.82539436E+00  6.40121692E-01  1.61277759E-01
  1.87311370E+01  2.82539436E+00  6.40121692E-01  1.61277759E-01  1.87311370E+01
  2.82539436E+00  6.40121692E-01  1.61277759E-01  1.87311370E+01  2.82539436E+00
  6.40121692E-01  1.61277759E-01  1.87311370E+01  2.82539436E+00  6.40121692E-01
  1.61277759E-01
Contraction coefficients                   R   N=         221
  1.83477216E-03  1.39946270E-02  6.85865518E-02  2.32240873E-01  4.69069948E-01
  3.60455199E-01 -1.14961182E-01 -1.69117479E-01  1.14585195E+00  1.00000000E+00
  1.00000000E+00  1.83477216E-03  1.39946270E-02  6.85865518E-02  2.32240873E-01
  4.69069948E-01  3.60455199E-01 -1.14961182E-01 -1.69117479E-01  1.14585195E+00
  1.00000000E+00  1.00000000E+00  1.83473713E-03  1.40373228E-02  6.88426223E-02
  2.32184443E-01  4.67941348E-01  3.62311985E-01 -1.19332420E-01 -1.60854152E-01
  1.14345644E+00  1.00000000E+00  1.00000000E+00  1.83473713E-03  1.40373228E-02
  6.88426223E-02  2.32184443E-01  4.67941348E-01  3.62311985E-01 -1.19332420E-01
 -1.60854152E-01  1.14345644E+00  1.00000000E+00  1.00000000E+00  1.83473713E-03
  1.40373228E-02  6.88426223E-02  2.32184443E-01  4.67941348E-01  3.62311985E-01
 -1.19332420E-01 -1.60854152E-01  1.14345644E+00  1.00000000E+00  1.00000000E+00
  1.83473713E-03  1.40373228E-02  6.88426223E-02  2.32184443E-01  4.67941348E-01
  3.62311985E-01 -1.19332420E-01 -1.60854152E-01  1.14345644E+00  1.00000000E+00
  1.00000000E+00  1.83473713E-03  1.40373228E-02  6.88426223E-02  2.32184443E-01
  4.67941348E-01  3.62311985E-01 -1.19332420E-01 -1.60854152E-01  1.14345644E+00
  1.00000000E+00  1.00000000E+00  1.83473713E-03  1.40373228E-02  6.88426223E-02
  2.32184443E-01  4.67941348E-01  3.62311985E-01 -1.19332420E-01 -1.60854152E-01
  1.14345644E+00  1.00000000E+00  1.00000000E+00  1.83473713E-03  1.40373228E-02
  6.88426223E-02  2.32184443E-01  4.67941348E-01  3.62311985E-01 -1.19332420E-01
 -1.60854152E-01  1.14345644E+00  1.00000000E+00  1.00000000E+00  1.83473713E-03
  1.40373228E-02  6.88426223E-02  2.32184443E-01  4.67941348E-01  3.62311985E-01
 -1.19332420E-01 -1.60854152E-01  1.14345644E+00  1.00000000E+00  1.00000000E+00
  1.83473713E-03  1.40373228E-02  6.88426223E-02  2.32184443E-01  4.67941348E-01
  3.62311985E-01 -1.19332420E-01 -1.60854152E-01  1.14345644E+00  1.00000000E+00
  1.00000000E+00  1.83473713E-03  1.40373228E-02  6.88426223E-02  2.32184443E-01
  4.67941348E-01  3.62311985E-01 -1.19332420E-01 -1.60854152E-01  1.14345644E+00
  1.00000000E+00  1.00000000E+00  1.83473713E-03  1.40373228E-02  6.88426223E-02
  2.32184443E-01  4.67941348E-01  3.62311985E-01 -1.19332420E-01 -1.60854152E-01
  1.14345644E+00  1.00000000E+00  1.00000000E+00  1.83473713E-03  1.40373228E-02
  6.88426223E-02  2.32184443E-01  4.67941348E-01  3.62311985E-01 -1.19332420E-01
 -1.60854152E-01  1.14345644E+00  1.00000000E+00  1.00000000E+00  1.83473713E-03
  1.40373228E-02  6.88426223E-02  2.32184443E-01  4.67941348E-01  3.62311985E-01
 -1.19332420E-01 -1.60854152E-01  1.14345644E+00  1.00000000E+00  1.00000000E+00
  3.34946043E-02  2.34726953E-01  8.13757326E-01  1.00000000E+00  3.34946043E-02
  2.34726953E-01  8.13757326E-01  1.00000000E+00  3.34946043E-02  2.34726953E-01
  8.13757326E-01  1.00000000E+00  3.34946043E-02  2.34726953E-01  8.13757326E-01
  1.00000000E+00  3.34946043E-02  2.34726953E-01  8.13757326E-01  1.00000000E+00
  3.34946043E-02  2.34726953E-01  8.13757326E-01  1.00000000E+00  3.34946043E-02
  2.34726953E-01  8.13757326E-01  1.00000000E+00  3.34946043E-02  2.34726953E-01
  8.13757326E-01  1.00000000E+00  3.34946043E-02  2.34726953E-01  8.13757326E-01
  1.00000000E+00  3.34946043E-02  2.34726953E-01  8.13757326E-01  1.00000000E+00
  3.34946043E-02  2.34726953E-01  8.13757326E-01  1.00000000E+00  3.34946043E-02
  2.34726953E-01  8.13757326E-01  1.00000000E+00  3.34946043E-02  2.34726953E-01
  8.13757326E-01  1.00000000E+00  3.34946043E-02  2.34726953E-01  8.13757326E-01
  1.00000000E+00
P(S=P) Contraction coefficients            R   N=         221
  0.00000000E+00  0.00000000E+00  0.00000000E+00  0.00000000E+00  0.00000000E+00
  0.00000000E+00  6.75797439E-02  3.23907296E-01  7.40895140E-01  1.00000000E+00
  0.00000000E+00  0.00000000E+00  0.00000000E+00  0.00000000E+00  0.00000000E+00
  0.00000000E+00  0.00000000E+00  6.75797439E-02  3.23907296E-01  7.40895140E-01
  1.00000000E+00  0.00000000E+00  0.00000000E+00  0.00000000E+00  0.00000000E+00
  0.00000000E+00  0.00000000E+00  0.00000000E+00  6.89990666E-02  3.16423961E-01
  7.44308291E-01  1.00000000E+00  0.00000000E+00  0.00000000E+00  0.00000000E+00
  0.00000000E+00  0.00000000E+00  0.00000000E+00  0.00000000E+00  6.89990666E-02
  3.16423961E-01  7.44308291E-01  1.00000000E+00  0.00000000E+00  0.00000000E+00
  0.00000000E+00  0.00000000E+00  0.00000000E+00  0.00000000E+00  0.00000000E+00
  6.89990666E-02  3.16423961E-01  7.44308291E-01  1.00000000E+00  0.00000000E+00
  0.00000000E+00  0.00000000E+00  0.00000000E+00  0.00000000E+00  0.00000000E+00
  0.00000000E+00  6.89990666E-02  3.16423961E-01  7.44308291E-01  1.00000000E+00
  0.00000000E+00  0.00000000E+00  0.00000000E+00  0.00000000E+00  0.00000000E+00
  0.00000000E+00  0.00000000E+00  6.89990666E-02  3.16423961E-01  7.44308291E-01
  1.00000000E+00  0.00000000E+00  0.00000000E+00  0.00000000E+00  0.00000000E+00
  0.00000000E+00  0.00000000E+00  0.00000000E+00  6.89990666E-02  3.16423961E-01
  7.44308291E-01  1.00000000E+00  0.00000000E+00  0.00000000E+00  0.00000000E+00
  0.00000000E+00  0.00000000E+00  0.00000000E+00  0.00000000E+00  6.89990666E-02
  3.16423961E-01  7.44308291E-01  1.00000000E+00  0.00000000E+00  0.00000000E+00
  0.00000000E+00  0.00000000E+00  0.00000000E+00  0.00000000E+00  0.00000000E+00
  6.89990666E-02  3.16423961E-01  7.44308291E-01  1.00000000E+00  0.00000000E+00
  0.00000000E+00  0.00000000E+00  0.00000000E+00  0.00000000E+00  0.00000000E+00
  0.00000000E+00  6.89990666E-02  3.16423961E-01  7.44308291E-01  1.00000000E+00
  0.00000000E+00  0.00000000E+00  0.00000000E+00  0.00000000E+00  0.00000000E+00
  0.00000000E+00  0.00000000E+00  6.89990666E-02  3.16423961E-01  7.44308291E-01
  1.00000000E+00  0.00000000E+00  0.00000000E+00  0.00000000E+00  0.00000000E+00
  0.00000000E+00  0.00000000E+00  0.00000000E+00  6.89990666E-02  3.16423961E-01
  7.44308291E-01  1.00000000E+00  0.00000000E+00  0.00000000E+00  0.00000000E+00
  0.00000000E+00  0.00000000E+00  0.00000000E+00  0.00000000E+00  6.89990666E-02
  3.16423961E-01  7.44308291E-01  1.00000000E+00  0.00000000E+00  0.00000000E+00
  0.00000000E+00  0.00000000E+00  0.00000000E+00  0.00000000E+00  0.00000000E+00
  6.89990666E-02  3.16423961E-01  7.44308291E-01  1.00000000E+00  0.00000000E+00
  0.00000000E+00  0.00000000E+00  0.00000000E+00  0.00000000E+00  0.00000000E+00
  0.00000000E+00  0.00000000E+00  0.00000000E+00  0.00000000E+00  0.00000000E+00
  0.00000000E+00  0.00000000E+00  0.00000000E+00  0.00000000E+00  0.00000000E+00
  0.00000000E+00  0.00000000E+00  0.00000000E+00  0.00000000E+00  0.00000000E+00
  0.00000000E+00  0.00000000E+00  0.00000000E+00  0.00000000E+00  0.00000000E+00
  0.00000000E+00  0.00000000E+00  0.00000000E+00  0.00000000E+00  0.00000000E+00
  0.00000000E+00  0.00000000E+00  0.00000000E+00  0.00000000E+00  0.00000000E+00
  0.00000000E+00  0.00000000E+00  0.00000000E+00  0.00000000E+00  0.00000000E+00
  0.00000000E+00  0.00000000E+00  0.00000000E+00  0.00000000E+00  0.00000000E+00
  0.00000000E+00  0.00000000E+00  0.00000000E+00  0.00000000E+00  0.00000000E+00
  0.00000000E+00  0.00000000E+00  0.00000000E+00  0.00000000E+00  0.00000000E+00
  0.00000000E+00
Coordinates of each shell                  R   N=         264
  1.96599299E+00  3.32324334E+00  8.46723392E-01  1.96599299E+00  3.32324334E+00
  8.46723392E-01  1.96599299E+00  3.32324334E+00  8.46723392E-01  1.96599299E+00
  3.32324334E+00  8.46723392E-01 -2.66967267E+00  6.59731298E-01 -1.82836057E+00
 -2.66967267E+00  6.59731298E-01 -1.82836057E+00 -2.66967267E+00  6.59731298E-01
 -1.82836057E+00 -2.66967267E+00  6.59731298E-01 -1.82836057E+00  2.70331441E+00
  7.99017351E-01  2.85929213E-01  2.70331441E+00  7.99017351E-01  2.85929213E-01
  2.70331441E+00  7.99017351E-01  2.85929213E-01  2.70331441E+00  7.99017351E-01
  2.85929213E-01  1.04451224E+00 -1.27037956E+00 -2.00700342E-02  1.04451224E+00
 -1.27037956E+00 -2.00700342E-02  1.04451224E+00 -1.27037956E+00 -2.00700342E-02
  1.04451224E+00 -1.27037956E+00 -2.00700342E-02 -1.73592073E+00 -9.83114431E-01
 -1.06821890E-01 -1.73592073E+00 -9.83114431E-01 -1.06821890E-01 -1.73592073E+00
 -9.83114431E-01 -1.06821890E-01 -1.73592073E+00 -9.83114431E-01 -1.06821890E-01
  5.31500583E+00  3.58461917E-01  1.12753618E-01  5.31500583E+00  3.58461917E-01
  1.12753618E-01  5.31500583E+00  3.58461917E-01  1.12753618E-01  5.31500583E+00
  3.58461917E-01  1.12753618E-01  2.04730617E+00 -3.70670966E+00 -3.57408631E-01
  2.04730617E+00 -3.70670966E+00 -3.57408631E-01  2.04730617E+00 -3.70670966E+00
 -3.57408631E-01  2.04730617E+00 -3.70670966E+00 -3.57408631E-01 -1.14034041E-01
  3.71512918E+00  2.60206615E+00 -1.14034041E-01  3.71512918E+00  2.60206615E+00
 -1.14034041E-01  3.71512918E+00  2.60206615E+00 -1.14034041E-01  3.71512918E+00
  2.60206615E+00  1.86961053E+00  5.01341415E+00 -1.33250730E+00  1.86961053E+00
  5.01341415E+00 -1.33250730E+00  1.86961053E+00  5.01341415E+00 -1.33250730E+00
  1.86961053E+00  5.01341415E+00 -1.33250730E+00  6.28575713E+00 -2.05081795E+00
 -3.08894500E-01  6.28575713E+00 -2.05081795E+00 -3.08894500E-01  6.28575713E+00
 -2.05081795E+00 -3.08894500E-01  6.28575713E+00 -2.05081795E+00 -3.08894500E-01
  4.64330960E+00 -4.10771071E+00 -5.17029298E-01  4.64330960E+00 -4.10771071E+00
 -5.17029298E-01  4.64330960E+00 -4.10771071E+00 -5.17029298E-01  4.64330960E+00
 -4.10771071E+00 -5.17029298E-01 -3.29637148E+00 -2.43756379E+00  1.46553194E+00
 -3.29637148E+00 -2.43756379E+00  1.46553194E+00 -3.29637148E+00 -2.43756379E+00
  1.46553194E+00 -3.29637148E+00 -2.43756379E+00  1.46553194E+00 -5.91055694E+00
 -2.20116392E+00  1.25947317E+00 -5.91055694E+00 -2.20116392E+00  1.25947317E+00
 -5.91055694E+00 -2.20116392E+00  1.25947317E+00 -5.91055694E+00 -2.20116392E+00
  1.25947317E+00 -5.19702260E+00  8.69420551E-01 -1.99204638E+00 -5.19702260E+00
  8.69420551E-01 -1.99204638E+00 -5.19702260E+00  8.69420551E-01 -1.99204638E+00
 -5.19702260E+00  8.69420551E-01 -1.99204638E+00 -6.88738135E+00 -5.09496273E-01
 -5.08965200E-01 -6.88738135E+00 -5.09496273E-01 -5.08965200E-01 -6.88738135E+00
 -5.09496273E-01 -5.08965200E-01 -6.88738135E+00 -5.09496273E-01 -5.08965200E-01
  6.57082824E+00  1.95981405E+00  4.02520628E-01  6.57082824E+00  1.95981405E+00
  4.02520628E-01  7.48149557E-01 -5.28404045E+00 -5.99718552E-01  7.48149557E-01
 -5.28404045E+00 -5.99718552E-01 -1.99655134E+00  3.64393642E+00  1.73009552E+00
 -1.99655134E+00  3.64393642E+00  1.73009552E+00  1.21701433E-01  5.58422785E+00
  3.46469977E+00  1.21701433E-01  5.58422785E+00  3.46469977E+00 -1.50582576E-02
  2.29859255E+00  4.10174878E+00 -1.50582576E-02  2.29859255E+00  4.10174878E+00
  1.85795985E+00  6.97102593E+00 -6.58266389E-01  1.85795985E+00  6.97102593E+00
 -6.58266389E-01  1.89534274E-01  4.67994411E+00 -2.50771196E+00  1.89534274E-01
  4.67994411E+00 -2.50771196E+00  3.55850350E+00  4.73177894E+00 -2.48629525E+00
  3.55850350E+00  4.73177894E+00 -2.48629525E+00  8.31888004E+00 -2.33041371E+00
 -4.23120584E-01  8.31888004E+00 -2.33041371E+00 -4.23120584E-01  5.37747647E+00
 -6.00375397E+00 -8.13635329E-01  5.37747647E+00 -6.00375397E+00 -8.13635329E-01
 -2.45202393E+00 -3.71096581E+00  2.83892570E+00 -2.45202393E+00 -3.71096581E+00
  2.83892570E+00 -7.15891248E+00 -3.30160923E+00  2.46534975E+00 -7.15891248E+00
 -3.30160923E+00  2.46534975E+00 -5.88798842E+00  2.20646070E+00 -3.39605303E+00
 -5.88798842E+00  2.20646070E+00 -3.39605303E+00 -8.91191391E+00 -2.56741006E-01
 -7.39143947E-01 -8.91191391E+00 -2.56741006E-01 -7.39143947E-01
Constraint Structure                       R   N=          87
  1.96599299E+00  3.32324334E+00  8.46723392E-01 -2.66967267E+00  6.59731298E-01
 -1.82836057E+00  2.70331441E+00  7.99017351E-01  2.85929213E-01  1.04451224E+00
 -1.27037956E+00 -2.00700342E-02 -1.73592073E+00 -9.83114431E-01 -1.06821890E-01
  5.31500583E+00  3.58461917E-01  1.12753618E-01  2.04730617E+00 -3.70670966E+00
 -3.57408631E-01 -1.14034041E-01  3.71512918E+00  2.60206615E+00  1.86961053E+00
  5.01341415E+00 -1.33250730E+00  6.28575713E+00 -2.05081795E+00 -3.08894500E-01
  4.64330960E+00 -4.10771071E+00 -5.17029298E-01 -3.29637148E+00 -2.43756379E+00
  1.46553194E+00 -5.91055694E+00 -2.20116392E+00  1.25947317E+00 -5.19702260E+00
  8.69420551E-01 -1.99204638E+00 -6.88738135E+00 -5.09496273E-01 -5.08965200E-01
  6.57082824E+00  1.95981405E+00  4.02520628E-01  7.48149557E-01 -5.28404045E+00
 -5.99718552E-01 -1.99655134E+00  3.64393642E+00  1.73009552E+00  1.21701433E-01
  5.58422785E+00  3.46469977E+00 -1.50582576E-02  2.29859255E+00  4.10174878E+00
  1.85795985E+00  6.97102593E+00 -6.58266389E-01  1.89534274E-01  4.67994411E+00
 -2.50771196E+00  3.55850350E+00  4.73177894E+00 -2.48629525E+00  8.31888004E+00
 -2.33041371E+00 -4.23120584E-01  5.37747647E+00 -6.00375397E+00 -8.13635329E-01
 -2.45202393E+00 -3.71096581E+00  2.83892570E+00 -7.15891248E+00 -3.30160923E+00
  2.46534975E+00 -5.88798842E+00  2.20646070E+00 -3.39605303E+00 -8.91191391E+00
 -2.56741006E-01 -7.39143947E-01
Num ILSW                                   I              100
ILSW                                       I   N=         100
           0           1           0           0           2           0
           0           0           0           0           0          -1
           0           0           0           0           0           0
           0           0           0           0           1           0
           1           0           0           0           0           0
           0           0      100000           0          -1           0
           0           0           0           0           0           0
           0           0           0           1           1           0
           0           0           1           0           0           0
           0           0           4          40           0           0