
    -----------------------------------------------------------------------
          Psi4: An Open-Source Ab Initio Electronic Structure Package
                               Psi4 1.4a3.dev225 

                         Git: Rev {master} 7105e37 


    D. G. A. Smith, L. A. Burns, A. C. Simmonett, R. M. Parrish,
    M. C. Schieber, R. Galvelis, P. Kraus, H. Kruse, R. Di Remigio,
    A. Alenaizan, A. M. James, S. Lehtola, J. P. Misiewicz, M. Scheurer,
    R. A. Shaw, J. B. Schriber, Y. Xie, Z. L. Glick, D. A. Sirianni,
    J. S. O'Brien, J. M. Waldrop, A. Kumar, E. G. Hohenstein,
    B. P. Pritchard, B. R. Brooks, H. F. Schaefer III, A. Yu. Sokolov,
    K. Patkowski, A. E. DePrince III, U. Bozkaya, R. A. King,
    F. A. Evangelista, J. M. Turney, T. D. Crawford, C. D. Sherrill,
    J. Chem. Phys. 152(18) 184108 (2020). https://doi.org/10.1063/5.0006002

                            Additional Code Authors
    E. T. Seidl, C. L. Janssen, E. F. Valeev, M. L. Leininger,
    J. F. Gonthier, R. M. Richard, H. R. McAlexander, M. Saitow, X. Wang,
    P. Verma, and M. H. Lechner

             Previous Authors, Complete List of Code Contributors,
                       and Citations for Specific Modules
    https://github.com/psi4/psi4/blob/master/codemeta.json
    https://github.com/psi4/psi4/graphs/contributors
    http://psicode.org/psi4manual/master/introduction.html#citing-psifour

    -----------------------------------------------------------------------


    Psi4 started on: Thursday, 01 April 2021 11:58PM

    Process ID: 157473
    Host:       c446-022.stampede2.tacc.utexas.edu
    PSIDATADIR: /home1/07844/xy3866/miniconda3/envs/p4env/share/psi4
    Memory:     500.0 MiB
    Threads:    8
    
  ==> Input File <==

--------------------------------------------------------------------------
#psi4
#
memory 32 gb

molecule  {
0 1
  O       -2.9128620    -0.4781290     1.0138340
  O       -2.9681190     0.5148030    -1.0434710
  O       -0.3129680    -3.4309860     0.4641560
  O       -0.2589710     3.4469300    -0.4801560
  O       -1.9011930    -2.4818550    -0.7520780
  O       -1.8407060     2.5208330     0.7644950
  O        3.9597560    -1.1388570    -0.0240200
  O        3.9819620     1.0692260     0.0429750
  N       -0.8439190    -2.4637400    -0.1025570
  N       -0.7546394     2.4869986     0.0673386
  N        3.4069750    -0.0290830     0.0068360
  C       -0.8642630     0.0144850    -0.0118450
  C       -0.1342560    -1.1768520    -0.0236930
  C       -0.1092970     1.1902470     0.0051550
  C        1.9306090    -0.0137700    -0.0002960
  C        1.2541590    -1.2264030    -0.0035910
  C        1.2788880     1.2129500     0.0017720
  C       -2.3665400     0.0542110    -0.0958220
  H        1.7835260    -2.1724740     0.0038120
  H        1.8267950     2.1485240     0.0024160
  H       -3.8857970    -0.4493820     0.8874840
units angstrom
no_reorient  #important for SAPT in psi4, default
symmetry c1  #important for SAPT in psi4, default
}

set PROPERTIES_ORIGIN ["COM"]
properties('MP2/aug-cc-pvtz', properties = ['dipole'])
--------------------------------------------------------------------------

  Memory set to  29.802 GiB by Python driver.
    SCF Algorithm Type (re)set to DF.

*** tstart() called on c446-022.stampede2.tacc.utexas.edu
*** at Thu Apr  1 23:58:57 2021

   => Loading Basis Set <=

    Name: AUG-CC-PVTZ
    Role: ORBITAL
    Keyword: BASIS
    atoms 1-8   entry O          line   331 file /home1/07844/xy3866/miniconda3/envs/p4env/share/psi4/basis/aug-cc-pvtz.gbs 
    atoms 9-11  entry N          line   285 file /home1/07844/xy3866/miniconda3/envs/p4env/share/psi4/basis/aug-cc-pvtz.gbs 
    atoms 12-18 entry C          line   239 file /home1/07844/xy3866/miniconda3/envs/p4env/share/psi4/basis/aug-cc-pvtz.gbs 
    atoms 19-21 entry H          line    40 file /home1/07844/xy3866/miniconda3/envs/p4env/share/psi4/basis/aug-cc-pvtz.gbs 


         ---------------------------------------------------------
                                   SCF
               by Justin Turney, Rob Parrish, Andy Simmonett
                          and Daniel G. A. Smith
                              RHF Reference
                        8 Threads,  30517 MiB Core
         ---------------------------------------------------------

  ==> Geometry <==

    Molecular point group: c1
    Full point group: C1

    Geometry (in Angstrom), charge = 0, multiplicity = 1:

       Center              X                  Y                   Z               Mass       
    ------------   -----------------  -----------------  -----------------  -----------------
         O           -2.916283124781    -0.479884497963     1.018755331832    15.994914619570
         O           -2.971540124781     0.513047502037    -1.038549668168    15.994914619570
         O           -0.316389124781    -3.432741497963     0.469077331832    15.994914619570
         O           -0.262392124781     3.445174502037    -0.475234668168    15.994914619570
         O           -1.904614124781    -2.483610497963    -0.747156668168    15.994914619570
         O           -1.844127124781     2.519077502037     0.769416331832    15.994914619570
         O            3.956334875219    -1.140612497963    -0.019098668168    15.994914619570
         O            3.978540875219     1.067470502037     0.047896331832    15.994914619570
         N           -0.847340124781    -2.465495497963    -0.097635668168    14.003074004430
         N           -0.758060524781     2.485243102037     0.072259931832    14.003074004430
         N            3.403553875219    -0.030838497963     0.011757331832    14.003074004430
         C           -0.867684124781     0.012729502037    -0.006923668168    12.000000000000
         C           -0.137677124781    -1.178607497963    -0.018771668168    12.000000000000
         C           -0.112718124781     1.188491502037     0.010076331832    12.000000000000
         C            1.927187875219    -0.015525497963     0.004625331832    12.000000000000
         C            1.250737875219    -1.228158497963     0.001330331832    12.000000000000
         C            1.275466875219     1.211194502037     0.006693331832    12.000000000000
         C           -2.369961124781     0.052455502037    -0.090900668168    12.000000000000
         H            1.780104875219    -2.174229497963     0.008733331832     1.007825032230
         H            1.823373875219     2.146768502037     0.007337331832     1.007825032230
         H           -3.889218124781    -0.451137497963     0.892405331832     1.007825032230

  Running in c1 symmetry.

  Rotational constants: A =      0.01800  B =      0.01279  C =      0.00790 [cm^-1]
  Rotational constants: A =    539.62025  B =    383.37011  C =    236.85134 [MHz]
  Nuclear repulsion = 1345.901916090576606

  Charge       = 0
  Multiplicity = 1
  Electrons    = 130
  Nalpha       = 65
  Nbeta        = 65

  ==> Algorithm <==

  SCF Algorithm Type is DF.
  DIIS enabled.
  MOM disabled.
  Fractional occupation disabled.
  Guess Type is SAD.
  Energy threshold   = 1.00e-10
  Density threshold  = 1.00e-10
  Integral threshold = 1.00e-12

  ==> Primary Basis <==

  Basis Set: AUG-CC-PVTZ
    Blend: AUG-CC-PVTZ
    Number of shells: 279
    Number of basis functions: 897
    Number of Cartesian functions: 1065
    Spherical Harmonics?: true
    Max angular momentum: 3

   => Loading Basis Set <=

    Name: (AUG-CC-PVTZ AUX)
    Role: JKFIT
    Keyword: DF_BASIS_SCF
    atoms 1-8   entry O          line   286 file /home1/07844/xy3866/miniconda3/envs/p4env/share/psi4/basis/aug-cc-pvtz-jkfit.gbs 
    atoms 9-11  entry N          line   224 file /home1/07844/xy3866/miniconda3/envs/p4env/share/psi4/basis/aug-cc-pvtz-jkfit.gbs 
    atoms 12-18 entry C          line   162 file /home1/07844/xy3866/miniconda3/envs/p4env/share/psi4/basis/aug-cc-pvtz-jkfit.gbs 
    atoms 19-21 entry H          line    70 file /home1/07844/xy3866/miniconda3/envs/p4env/share/psi4/basis/aug-cc-pvtz-jkfit.gbs 

  ==> Integral Setup <==

  DFHelper Memory: AOs need 9.951 GiB; user supplied 22.352 GiB. Using in-core AOs.

  ==> MemDFJK: Density-Fitted J/K Matrices <==

    J tasked:                   Yes
    K tasked:                   Yes
    wK tasked:                   No
    OpenMP threads:               8
    Memory [MiB]:             22888
    Algorithm:                 Core
    Schwarz Cutoff:           1E-12
    Mask sparsity (%):      19.4057
    Fitting Condition:        1E-10

   => Auxiliary Basis Set <=

  Basis Set: (AUG-CC-PVTZ AUX)
    Blend: AUG-CC-PVTZ-JKFIT
    Number of shells: 582
    Number of basis functions: 2010
    Number of Cartesian functions: 2523
    Spherical Harmonics?: true
    Max angular momentum: 4

  Minimum eigenvalue in the overlap matrix is 2.4867738278E-07.
  Reciprocal condition number of the overlap matrix is 1.3293247471E-08.
    Using symmetric orthogonalization.

  ==> Pre-Iterations <==

  SCF Guess: Superposition of Atomic Densities via on-the-fly atomic UHF (no occupation information).

   -------------------------
    Irrep   Nso     Nmo    
   -------------------------
     A        897     897 
   -------------------------
    Total     897     897
   -------------------------

  ==> Iterations <==

                           Total Energy        Delta E     RMS |[F,P]|

   @DF-RHF iter SAD: -1027.83951370937052   -1.02784e+03   0.00000e+00 
   @DF-RHF iter   1: -1028.41652474804778   -5.77011e-01   1.39494e-03 DIIS
   @DF-RHF iter   2: -1028.69297132336851   -2.76447e-01   1.15616e-03 DIIS
   @DF-RHF iter   3: -1029.03396543684357   -3.40994e-01   1.19259e-04 DIIS
   @DF-RHF iter   4: -1029.04177413773527   -7.80870e-03   5.60582e-05 DIIS
   @DF-RHF iter   5: -1029.04333034211913   -1.55620e-03   1.84632e-05 DIIS
   @DF-RHF iter   6: -1029.04361600954576   -2.85667e-04   9.29002e-06 DIIS
   @DF-RHF iter   7: -1029.04369687060785   -8.08611e-05   4.65995e-06 DIIS
   @DF-RHF iter   8: -1029.04372687991440   -3.00093e-05   1.93623e-06 DIIS
   @DF-RHF iter   9: -1029.04373517899944   -8.29909e-06   1.10970e-06 DIIS
   @DF-RHF iter  10: -1029.04373690207808   -1.72308e-06   4.48007e-07 DIIS
   @DF-RHF iter  11: -1029.04373715379870   -2.51721e-07   1.65673e-07 DIIS
   @DF-RHF iter  12: -1029.04373719346290   -3.96642e-08   8.50916e-08 DIIS
   @DF-RHF iter  13: -1029.04373720277567   -9.31277e-09   3.95112e-08 DIIS
   @DF-RHF iter  14: -1029.04373720459057   -1.81490e-09   1.65859e-08 DIIS
   @DF-RHF iter  15: -1029.04373720493390   -3.43334e-10   8.40990e-09 DIIS
   @DF-RHF iter  16: -1029.04373720502281   -8.89031e-11   4.08157e-09 DIIS
   @DF-RHF iter  17: -1029.04373720504213   -1.93268e-11   2.19381e-09 DIIS
   @DF-RHF iter  18: -1029.04373720504827   -6.13909e-12   1.22929e-09 DIIS
   @DF-RHF iter  19: -1029.04373720505237   -4.09273e-12   6.18309e-10 DIIS
   @DF-RHF iter  20: -1029.04373720505055    1.81899e-12   2.53697e-10 DIIS
   @DF-RHF iter  21: -1029.04373720505237   -1.81899e-12   1.29874e-10 DIIS
   @DF-RHF iter  22: -1029.04373720505237    0.00000e+00   6.38906e-11 DIIS
  Energy and wave function converged.


  ==> Post-Iterations <==

    Orbital Energies [Eh]
    ---------------------

    Doubly Occupied:                                                      

       1A    -20.666362     2A    -20.655819     3A    -20.653084  
       4A    -20.652904     5A    -20.651477     6A    -20.651412  
       7A    -20.632288     8A    -20.593826     9A    -15.903223  
      10A    -15.902818    11A    -15.898325    12A    -11.451166  
      13A    -11.387484    14A    -11.385603    15A    -11.381021  
      16A    -11.377625    17A    -11.357320    18A    -11.356857  
      19A     -1.637012    20A     -1.635635    21A     -1.635003  
      22A     -1.504296    23A     -1.437032    24A     -1.435600  
      25A     -1.418333    26A     -1.403322    27A     -1.292073  
      28A     -1.186647    29A     -1.184927    30A     -1.060165  
      31A     -1.038039    32A     -1.029805    33A     -0.924054  
      34A     -0.884606    35A     -0.871415    36A     -0.837869  
      37A     -0.803896    38A     -0.790972    39A     -0.789242  
      40A     -0.777563    41A     -0.765977    42A     -0.761348  
      43A     -0.757671    44A     -0.754113    45A     -0.744134  
      46A     -0.739820    47A     -0.715203    48A     -0.691523  
      49A     -0.666276    50A     -0.646818    51A     -0.628750  
      52A     -0.608642    53A     -0.556654    54A     -0.549407  
      55A     -0.544080    56A     -0.539673    57A     -0.537360  
      58A     -0.532506    59A     -0.520368    60A     -0.507486  
      61A     -0.494810    62A     -0.492365    63A     -0.482329  
      64A     -0.448588    65A     -0.446359  

    Virtual:                                                              

      66A     -0.028279    67A     -0.017357    68A      0.019430  
      69A      0.022754    70A      0.030818    71A      0.036731  
      72A      0.058924    73A      0.067718    74A      0.073317  
      75A      0.077904    76A      0.079070    77A      0.084734  
      78A      0.090639    79A      0.091545    80A      0.096192  
      81A      0.101029    82A      0.106457    83A      0.108931  
      84A      0.110203    85A      0.114649    86A      0.120960  
      87A      0.126724    88A      0.128714    89A      0.133964  
      90A      0.136942    91A      0.138890    92A      0.146194  
      93A      0.149248    94A      0.157205    95A      0.158374  
      96A      0.160157    97A      0.170379    98A      0.176145  
      99A      0.179731   100A      0.183520   101A      0.185714  
     102A      0.198871   103A      0.200267   104A      0.203308  
     105A      0.204978   106A      0.208105   107A      0.209472  
     108A      0.212676   109A      0.221998   110A      0.224963  
     111A      0.238692   112A      0.239735   113A      0.241861  
     114A      0.244534   115A      0.248768   116A      0.250885  
     117A      0.253604   118A      0.258389   119A      0.261189  
     120A      0.267148   121A      0.269859   122A      0.272799  
     123A      0.276033   124A      0.277613   125A      0.282745  
     126A      0.285229   127A      0.288794   128A      0.296409  
     129A      0.298210   130A      0.303740   131A      0.305356  
     132A      0.308525   133A      0.314137   134A      0.318473  
     135A      0.320427   136A      0.323793   137A      0.325216  
     138A      0.328778   139A      0.330508   140A      0.333636  
     141A      0.334576   142A      0.342377   143A      0.343339  
     144A      0.348230   145A      0.358064   146A      0.363758  
     147A      0.367718   148A      0.371087   149A      0.377564  
     150A      0.378221   151A      0.387047   152A      0.395186  
     153A      0.399722   154A      0.403551   155A      0.408123  
     156A      0.413238   157A      0.414318   158A      0.416952  
     159A      0.417585   160A      0.423748   161A      0.431624  
     162A      0.432740   163A      0.439793   164A      0.441590  
     165A      0.447067   166A      0.448201   167A      0.449833  
     168A      0.458952   169A      0.460993   170A      0.467448  
     171A      0.470208   172A      0.472171   173A      0.477191  
     174A      0.478045   175A      0.491694   176A      0.492641  
     177A      0.501488   178A      0.503600   179A      0.513094  
     180A      0.517547   181A      0.522503   182A      0.526068  
     183A      0.531319   184A      0.539570   185A      0.542751  
     186A      0.544572   187A      0.549987   188A      0.556900  
     189A      0.560323   190A      0.569696   191A      0.577346  
     192A      0.585493   193A      0.591376   194A      0.594077  
     195A      0.598347   196A      0.600172   197A      0.612187  
     198A      0.612929   199A      0.626798   200A      0.634883  
     201A      0.642811   202A      0.648846   203A      0.652369  
     204A      0.658160   205A      0.661466   206A      0.665769  
     207A      0.676328   208A      0.677901   209A      0.686771  
     210A      0.692843   211A      0.696395   212A      0.707676  
     213A      0.710428   214A      0.717319   215A      0.724382  
     216A      0.729802   217A      0.733656   218A      0.741020  
     219A      0.749250   220A      0.753248   221A      0.757566  
     222A      0.761658   223A      0.770554   224A      0.777676  
     225A      0.782974   226A      0.790593   227A      0.791725  
     228A      0.800173   229A      0.806940   230A      0.810510  
     231A      0.814216   232A      0.818161   233A      0.823719  
     234A      0.824366   235A      0.829961   236A      0.835937  
     237A      0.837221   238A      0.840234   239A      0.846282  
     240A      0.850784   241A      0.853322   242A      0.868061  
     243A      0.869482   244A      0.875261   245A      0.878118  
     246A      0.880827   247A      0.886150   248A      0.888907  
     249A      0.892249   250A      0.901397   251A      0.912388  
     252A      0.913140   253A      0.914589   254A      0.920234  
     255A      0.923894   256A      0.927739   257A      0.932037  
     258A      0.935821   259A      0.942524   260A      0.949133  
     261A      0.953105   262A      0.956010   263A      0.961998  
     264A      0.967173   265A      0.972996   266A      0.976873  
     267A      0.980597   268A      0.986199   269A      0.990750  
     270A      0.996806   271A      1.003587   272A      1.009598  
     273A      1.015362   274A      1.024442   275A      1.027644  
     276A      1.032514   277A      1.036728   278A      1.039236  
     279A      1.042051   280A      1.048220   281A      1.054782  
     282A      1.057251   283A      1.062021   284A      1.063230  
     285A      1.073379   286A      1.078938   287A      1.082774  
     288A      1.086332   289A      1.091890   290A      1.097962  
     291A      1.099341   292A      1.106619   293A      1.109876  
     294A      1.116226   295A      1.122149   296A      1.136265  
     297A      1.137485   298A      1.141023   299A      1.143150  
     300A      1.151842   301A      1.155210   302A      1.164292  
     303A      1.167522   304A      1.178032   305A      1.181568  
     306A      1.187277   307A      1.192731   308A      1.200956  
     309A      1.205274   310A      1.219095   311A      1.224104  
     312A      1.227097   313A      1.234964   314A      1.240078  
     315A      1.248125   316A      1.254971   317A      1.256864  
     318A      1.266963   319A      1.268774   320A      1.276625  
     321A      1.283753   322A      1.292807   323A      1.296599  
     324A      1.311596   325A      1.317001   326A      1.320232  
     327A      1.329087   328A      1.336811   329A      1.338953  
     330A      1.349150   331A      1.354172   332A      1.359471  
     333A      1.363663   334A      1.375967   335A      1.379981  
     336A      1.386170   337A      1.391132   338A      1.395716  
     339A      1.407708   340A      1.417488   341A      1.430551  
     342A      1.432099   343A      1.442195   344A      1.453775  
     345A      1.459519   346A      1.468636   347A      1.480088  
     348A      1.484730   349A      1.497233   350A      1.501987  
     351A      1.509837   352A      1.516645   353A      1.520518  
     354A      1.534737   355A      1.536701   356A      1.546059  
     357A      1.557516   358A      1.565114   359A      1.568151  
     360A      1.574946   361A      1.582284   362A      1.586117  
     363A      1.593994   364A      1.602328   365A      1.603673  
     366A      1.614335   367A      1.621658   368A      1.623394  
     369A      1.629345   370A      1.642443   371A      1.644972  
     372A      1.653644   373A      1.655502   374A      1.668825  
     375A      1.674828   376A      1.683501   377A      1.691601  
     378A      1.698739   379A      1.708134   380A      1.724947  
     381A      1.731012   382A      1.732400   383A      1.738265  
     384A      1.741701   385A      1.748322   386A      1.760051  
     387A      1.768267   388A      1.777858   389A      1.779733  
     390A      1.793590   391A      1.797019   392A      1.806918  
     393A      1.820908   394A      1.826021   395A      1.836402  
     396A      1.839348   397A      1.849759   398A      1.859808  
     399A      1.860481   400A      1.877339   401A      1.879921  
     402A      1.891923   403A      1.895693   404A      1.909720  
     405A      1.922542   406A      1.933794   407A      1.941158  
     408A      1.955193   409A      1.959565   410A      1.964028  
     411A      1.978859   412A      1.981271   413A      1.991372  
     414A      1.997351   415A      2.004838   416A      2.010629  
     417A      2.022642   418A      2.026091   419A      2.031903  
     420A      2.035784   421A      2.045163   422A      2.051435  
     423A      2.065813   424A      2.071222   425A      2.089914  
     426A      2.100615   427A      2.106285   428A      2.111956  
     429A      2.119171   430A      2.125004   431A      2.130422  
     432A      2.137009   433A      2.162153   434A      2.175864  
     435A      2.179301   436A      2.183893   437A      2.186207  
     438A      2.193306   439A      2.203816   440A      2.219364  
     441A      2.224847   442A      2.226603   443A      2.235952  
     444A      2.254687   445A      2.260317   446A      2.261482  
     447A      2.268979   448A      2.279101   449A      2.281891  
     450A      2.291384   451A      2.299012   452A      2.304422  
     453A      2.316086   454A      2.333015   455A      2.341835  
     456A      2.347230   457A      2.351198   458A      2.354271  
     459A      2.369858   460A      2.376326   461A      2.383630  
     462A      2.386938   463A      2.389252   464A      2.402623  
     465A      2.406857   466A      2.413465   467A      2.423472  
     468A      2.434313   469A      2.442014   470A      2.445379  
     471A      2.454621   472A      2.459247   473A      2.467935  
     474A      2.474784   475A      2.488786   476A      2.494396  
     477A      2.506172   478A      2.512180   479A      2.521462  
     480A      2.523912   481A      2.534106   482A      2.537996  
     483A      2.545249   484A      2.550264   485A      2.563094  
     486A      2.569166   487A      2.569614   488A      2.571237  
     489A      2.582722   490A      2.588651   491A      2.594346  
     492A      2.596899   493A      2.601865   494A      2.611235  
     495A      2.621880   496A      2.627921   497A      2.632023  
     498A      2.635806   499A      2.639784   500A      2.654345  
     501A      2.659794   502A      2.666980   503A      2.671533  
     504A      2.674118   505A      2.685318   506A      2.698014  
     507A      2.701807   508A      2.719948   509A      2.728997  
     510A      2.739870   511A      2.744434   512A      2.748686  
     513A      2.757828   514A      2.768816   515A      2.779963  
     516A      2.783178   517A      2.802682   518A      2.812127  
     519A      2.824797   520A      2.836578   521A      2.843601  
     522A      2.849928   523A      2.855817   524A      2.864957  
     525A      2.871896   526A      2.884062   527A      2.893502  
     528A      2.899143   529A      2.910059   530A      2.929320  
     531A      2.935360   532A      2.938906   533A      2.956254  
     534A      2.963981   535A      2.969361   536A      2.978963  
     537A      2.992495   538A      2.997435   539A      3.011901  
     540A      3.014542   541A      3.027033   542A      3.041560  
     543A      3.048683   544A      3.051679   545A      3.062591  
     546A      3.075021   547A      3.085468   548A      3.097452  
     549A      3.121338   550A      3.136872   551A      3.150977  
     552A      3.168159   553A      3.169042   554A      3.182981  
     555A      3.189049   556A      3.202414   557A      3.217445  
     558A      3.229164   559A      3.234388   560A      3.240608  
     561A      3.257575   562A      3.268268   563A      3.286642  
     564A      3.304706   565A      3.313503   566A      3.331958  
     567A      3.337620   568A      3.353925   569A      3.362597  
     570A      3.367608   571A      3.383786   572A      3.401758  
     573A      3.406592   574A      3.419883   575A      3.421817  
     576A      3.423589   577A      3.451189   578A      3.459136  
     579A      3.471100   580A      3.478940   581A      3.485891  
     582A      3.486964   583A      3.496527   584A      3.509919  
     585A      3.514447   586A      3.526954   587A      3.534554  
     588A      3.545819   589A      3.550735   590A      3.562343  
     591A      3.582179   592A      3.592320   593A      3.604875  
     594A      3.615486   595A      3.627193   596A      3.636833  
     597A      3.648238   598A      3.666039   599A      3.673557  
     600A      3.677533   601A      3.700791   602A      3.715705  
     603A      3.721776   604A      3.724668   605A      3.765989  
     606A      3.768491   607A      3.775130   608A      3.783516  
     609A      3.800021   610A      3.806022   611A      3.809315  
     612A      3.829508   613A      3.862074   614A      3.867684  
     615A      3.873176   616A      3.891045   617A      3.893995  
     618A      3.897097   619A      3.905343   620A      3.917417  
     621A      3.930333   622A      3.952539   623A      3.963928  
     624A      3.968074   625A      3.987743   626A      3.996016  
     627A      4.006136   628A      4.014508   629A      4.033897  
     630A      4.046673   631A      4.064523   632A      4.067918  
     633A      4.104057   634A      4.115886   635A      4.126907  
     636A      4.136000   637A      4.141992   638A      4.151861  
     639A      4.156477   640A      4.161626   641A      4.175103  
     642A      4.185733   643A      4.206808   644A      4.218596  
     645A      4.226923   646A      4.253956   647A      4.270347  
     648A      4.290063   649A      4.294884   650A      4.309495  
     651A      4.312745   652A      4.320071   653A      4.331254  
     654A      4.338650   655A      4.349048   656A      4.360447  
     657A      4.379008   658A      4.391781   659A      4.394605  
     660A      4.417947   661A      4.428482   662A      4.445714  
     663A      4.447855   664A      4.472790   665A      4.481534  
     666A      4.503462   667A      4.540270   668A      4.554781  
     669A      4.562504   670A      4.573776   671A      4.580715  
     672A      4.608977   673A      4.618572   674A      4.627393  
     675A      4.644536   676A      4.656426   677A      4.670896  
     678A      4.675562   679A      4.692191   680A      4.708196  
     681A      4.741385   682A      4.745533   683A      4.770600  
     684A      4.780903   685A      4.799825   686A      4.829250  
     687A      4.838542   688A      4.847270   689A      4.873990  
     690A      4.891196   691A      4.900786   692A      4.914241  
     693A      4.921249   694A      4.943741   695A      4.952831  
     696A      4.964171   697A      4.972954   698A      4.991858  
     699A      5.000151   700A      5.007710   701A      5.012902  
     702A      5.024745   703A      5.028601   704A      5.065580  
     705A      5.081433   706A      5.093336   707A      5.104695  
     708A      5.114018   709A      5.140799   710A      5.148774  
     711A      5.165957   712A      5.181788   713A      5.196854  
     714A      5.219366   715A      5.230326   716A      5.238640  
     717A      5.253474   718A      5.258047   719A      5.278558  
     720A      5.298360   721A      5.312485   722A      5.320962  
     723A      5.334581   724A      5.335727   725A      5.345980  
     726A      5.350371   727A      5.368969   728A      5.381808  
     729A      5.410963   730A      5.425787   731A      5.432763  
     732A      5.444442   733A      5.451759   734A      5.457280  
     735A      5.473115   736A      5.501680   737A      5.524927  
     738A      5.566371   739A      5.574904   740A      5.586719  
     741A      5.605827   742A      5.619721   743A      5.632579  
     744A      5.645960   745A      5.681677   746A      5.692321  
     747A      5.700114   748A      5.717130   749A      5.740410  
     750A      5.767072   751A      5.782313   752A      5.799267  
     753A      5.807929   754A      5.884096   755A      5.919740  
     756A      5.947324   757A      5.964154   758A      6.011853  
     759A      6.026318   760A      6.059099   761A      6.087998  
     762A      6.109232   763A      6.132765   764A      6.141717  
     765A      6.165680   766A      6.239314   767A      6.250712  
     768A      6.325112   769A      6.355232   770A      6.385886  
     771A      6.400630   772A      6.463131   773A      6.472718  
     774A      6.494058   775A      6.535870   776A      6.558323  
     777A      6.583401   778A      6.619645   779A      6.623017  
     780A      6.646817   781A      6.649374   782A      6.659444  
     783A      6.670583   784A      6.687515   785A      6.697263  
     786A      6.706883   787A      6.714316   788A      6.728517  
     789A      6.744970   790A      6.746796   791A      6.753247  
     792A      6.755432   793A      6.769308   794A      6.780980  
     795A      6.794280   796A      6.805389   797A      6.808253  
     798A      6.845811   799A      6.857584   800A      6.864993  
     801A      6.873129   802A      6.889726   803A      6.909167  
     804A      6.913285   805A      6.927551   806A      6.943945  
     807A      6.951923   808A      6.967468   809A      6.970003  
     810A      6.997682   811A      7.001389   812A      7.061290  
     813A      7.087538   814A      7.106751   815A      7.108135  
     816A      7.124781   817A      7.129225   818A      7.190235  
     819A      7.198269   820A      7.248513   821A      7.258616  
     822A      7.286525   823A      7.298544   824A      7.306173  
     825A      7.310217   826A      7.318737   827A      7.327314  
     828A      7.328387   829A      7.331286   830A      7.342571  
     831A      7.343747   832A      7.353455   833A      7.363426  
     834A      7.367888   835A      7.381769   836A      7.383762  
     837A      7.389677   838A      7.402686   839A      7.423578  
     840A      7.453109   841A      7.483602   842A      7.521613  
     843A      7.545518   844A      7.595479   845A      7.611690  
     846A      7.632709   847A      7.649461   848A      7.671333  
     849A      7.676186   850A      7.683660   851A      7.685585  
     852A      7.695033   853A      7.701208   854A      7.713936  
     855A      7.719334   856A      7.759038   857A      7.761494  
     858A      7.832487   859A      7.845007   860A      7.848476  
     861A      7.908101   862A      7.924720   863A      7.935134  
     864A      7.937287   865A      7.953988   866A      7.959093  
     867A      7.980722   868A      8.016268   869A      8.070873  
     870A      8.085099   871A      8.111598   872A      8.221856  
     873A      8.295923   874A      8.308176   875A      8.332270  
     876A      8.436134   877A      8.463621   878A      8.511865  
     879A      8.548370   880A     14.845147   881A     15.177148  
     882A     15.339446   883A     15.554522   884A     15.736317  
     885A     16.002589   886A     16.194643   887A     16.356010  
     888A     17.061954   889A     17.213160   890A     17.624889  
     891A     18.330492   892A     19.562735   893A     19.629467  
     894A     20.097349   895A     20.473473   896A     21.068402  
     897A     21.303115  

    Final Occupation by Irrep:
              A 
    DOCC [    65 ]

  @DF-RHF Final Energy: -1029.04373720505237

   => Energetics <=

    Nuclear Repulsion Energy =           1345.9019160905766057
    One-Electron Energy =               -4083.3545522032945883
    Two-Electron Energy =                1708.4088989076658436
    Total Energy =                      -1029.0437372050523663

Computation Completed

*** tstop() called on c446-022.stampede2.tacc.utexas.edu at Fri Apr  2 00:02:05 2021
Module time:
	user time   =    1279.53 seconds =      21.33 minutes
	system time =      23.67 seconds =       0.39 minutes
	total time  =        188 seconds =       3.13 minutes
Total time:
	user time   =    1279.53 seconds =      21.33 minutes
	system time =      23.67 seconds =       0.39 minutes
	total time  =        188 seconds =       3.13 minutes
   => Loading Basis Set <=

    Name: (AUG-CC-PVTZ AUX)
    Role: RIFIT
    Keyword: DF_BASIS_MP2
    atoms 1-8   entry O          line   264 file /home1/07844/xy3866/miniconda3/envs/p4env/share/psi4/basis/aug-cc-pvtz-ri.gbs 
    atoms 9-11  entry N          line   206 file /home1/07844/xy3866/miniconda3/envs/p4env/share/psi4/basis/aug-cc-pvtz-ri.gbs 
    atoms 12-18 entry C          line   148 file /home1/07844/xy3866/miniconda3/envs/p4env/share/psi4/basis/aug-cc-pvtz-ri.gbs 
    atoms 19-21 entry H          line    30 file /home1/07844/xy3866/miniconda3/envs/p4env/share/psi4/basis/aug-cc-pvtz-ri.gbs 


*** tstart() called on c446-022.stampede2.tacc.utexas.edu
*** at Fri Apr  2 00:02:07 2021


  //>>>>>>>>>>>>>>>>>>>>>>>>>>>>>>>>>>>//
  //               DFMP2               //
  //<<<<<<<<<<<<<<<<<<<<<<<<<<<<<<<<<<<//

	 --------------------------------------------------------
	                          DF-MP2                         
	      2nd-Order Density-Fitted Moller-Plesset Theory     
	              RMP2 Wavefunction,   8 Threads             
	                                                         
	        Rob Parrish, Justin Turney, Andy Simmonett,      
	           Ed Hohenstein, and C. David Sherrill          
	 --------------------------------------------------------

   => Auxiliary Basis Set <=

  Basis Set: (AUG-CC-PVTZ AUX)
    Blend: AUG-CC-PVTZ-RI
    Number of shells: 546
    Number of basis functions: 2046
    Number of Cartesian functions: 2613
    Spherical Harmonics?: true
    Max angular momentum: 4

	 --------------------------------------------------------
	                 NBF =   897, NAUX =  2046
	 --------------------------------------------------------
	   CLASS    FOCC     OCC    AOCC    AVIR     VIR    FVIR
	   PAIRS       0      65      65     832     832       0
	 --------------------------------------------------------

  DFHelper Memory: AOs need 10.689 GiB; user supplied 22.352 GiB. Using in-core AOs.


         ------------------------------------------------------------
                                     CPHF                           
                                  Rob Parrish                       
         ------------------------------------------------------------

  ==> Geometry <==

    Molecular point group: c1
    Full point group: C1

    Geometry (in Angstrom), charge = 0, multiplicity = 1:

       Center              X                  Y                   Z               Mass       
    ------------   -----------------  -----------------  -----------------  -----------------
         O           -2.916283124781    -0.479884497963     1.018755331832    15.994914619570
         O           -2.971540124781     0.513047502037    -1.038549668168    15.994914619570
         O           -0.316389124781    -3.432741497963     0.469077331832    15.994914619570
         O           -0.262392124781     3.445174502037    -0.475234668168    15.994914619570
         O           -1.904614124781    -2.483610497963    -0.747156668168    15.994914619570
         O           -1.844127124781     2.519077502037     0.769416331832    15.994914619570
         O            3.956334875219    -1.140612497963    -0.019098668168    15.994914619570
         O            3.978540875219     1.067470502037     0.047896331832    15.994914619570
         N           -0.847340124781    -2.465495497963    -0.097635668168    14.003074004430
         N           -0.758060524781     2.485243102037     0.072259931832    14.003074004430
         N            3.403553875219    -0.030838497963     0.011757331832    14.003074004430
         C           -0.867684124781     0.012729502037    -0.006923668168    12.000000000000
         C           -0.137677124781    -1.178607497963    -0.018771668168    12.000000000000
         C           -0.112718124781     1.188491502037     0.010076331832    12.000000000000
         C            1.927187875219    -0.015525497963     0.004625331832    12.000000000000
         C            1.250737875219    -1.228158497963     0.001330331832    12.000000000000
         C            1.275466875219     1.211194502037     0.006693331832    12.000000000000
         C           -2.369961124781     0.052455502037    -0.090900668168    12.000000000000
         H            1.780104875219    -2.174229497963     0.008733331832     1.007825032230
         H            1.823373875219     2.146768502037     0.007337331832     1.007825032230
         H           -3.889218124781    -0.451137497963     0.892405331832     1.007825032230

  Nuclear repulsion = 1345.901916090576606
  Reference energy  = -1029.043737205052366

  ==> Basis Set <==

  Basis Set: AUG-CC-PVTZ
    Blend: AUG-CC-PVTZ
    Number of shells: 279
    Number of basis functions: 897
    Number of Cartesian functions: 1065
    Spherical Harmonics?: true
    Max angular momentum: 3

  ==> CGRSolver (by Rob Parrish) <==

   Number of roots    =         1
   Preconditioning    =    JACOBI
   Convergence cutoff =     1E-06
   Maximum iterations =       100

  ==> CPHFRHamiltonian (by Rob Parrish) <== 

  ==> MemDFJK: Density-Fitted J/K Matrices <==

    J tasked:                   Yes
    K tasked:                   Yes
    wK tasked:                   No
    OpenMP threads:               8
    Memory [MiB]:             22888
    Algorithm:                 Core
    Schwarz Cutoff:           1E-12
    Mask sparsity (%):      13.2845
    Fitting Condition:        1E-10

   => Auxiliary Basis Set <=

  Basis Set: (AUG-CC-PVTZ AUX)
    Blend: AUG-CC-PVTZ-JKFIT
    Number of shells: 582
    Number of basis functions: 2010
    Number of Cartesian functions: 2523
    Spherical Harmonics?: true
    Max angular momentum: 4

  ==> CPHF Iterations <==

  => Iterations <=

             Iter  Converged  Remaining    Residual
  CGR           1          0          1   1.792E-01
  CGR           2          0          1   6.530E-02
  CGR           3          0          1   3.683E-02
  CGR           4          0          1   1.495E-02
  CGR           5          0          1   7.731E-03
  CGR           6          0          1   3.316E-03
  CGR           7          0          1   1.493E-03
  CGR           8          0          1   5.972E-04
  CGR           9          0          1   2.710E-04
  CGR          10          0          1   1.049E-04
  CGR          11          0          1   4.969E-05
  CGR          12          0          1   2.642E-05
  CGR          13          0          1   1.232E-05
  CGR          14          0          1   4.155E-06
  CGR          15          0          1   2.019E-06
  CGR          16          1          0   9.609E-07

    CGRSolver converged.

	-----------------------------------------------------------
	 ==================> DF-MP2 Energies <==================== 
	-----------------------------------------------------------
	 Reference Energy          =   -1029.0437372050523663 [Eh]
	 Singles Energy            =      -0.0000000000000000 [Eh]
	 Same-Spin Energy          =      -1.0502887604662012 [Eh]
	 Opposite-Spin Energy      =      -2.9511207470070939 [Eh]
	 Correlation Energy        =      -4.0014095074732952 [Eh]
	 Total Energy              =   -1033.0451467125255931 [Eh]
	-----------------------------------------------------------
	 ================> DF-SCS-MP2 Energies <================== 
	-----------------------------------------------------------
	 SCS Same-Spin Scale       =       0.3333333333333333 [-]
	 SCS Opposite-Spin Scale   =       1.2000000000000000 [-]
	 SCS Same-Spin Energy      =      -0.3500962534887337 [Eh]
	 SCS Opposite-Spin Energy  =      -3.5413448964085128 [Eh]
	 SCS Correlation Energy    =      -3.8914411498972465 [Eh]
	 SCS Total Energy          =   -1032.9351783549495849 [Eh]
	-----------------------------------------------------------



Properties will be evaluated at   0.000000,   0.000000,   0.000000 [a0]

Properties computed using the MP2 density matrix

  Nuclear Dipole Moment: [e a0]
     X:    -0.2841      Y:    -0.4486      Z:     0.8518

  Electronic Dipole Moment: [e a0]
     X:     0.2971      Y:     0.1896      Z:    -0.4292

  Dipole Moment: [e a0]
     X:     0.0131      Y:    -0.2590      Z:     0.4226     Total:     0.4958

  Dipole Moment: [D]
     X:     0.0332      Y:    -0.6584      Z:     1.0741     Total:     1.2603


*** tstop() called on c446-022.stampede2.tacc.utexas.edu at Fri Apr  2 00:17:00 2021
Module time:
	user time   =    5830.87 seconds =      97.18 minutes
	system time =      64.87 seconds =       1.08 minutes
	total time  =        893 seconds =      14.88 minutes
Total time:
	user time   =    7111.50 seconds =     118.53 minutes
	system time =      88.56 seconds =       1.48 minutes
	total time  =       1083 seconds =      18.05 minutes

    Psi4 stopped on: Friday, 02 April 2021 12:17AM
    Psi4 wall time for execution: 0:18:05.64

*** Psi4 exiting successfully. Buy a developer a beer!
