
    -----------------------------------------------------------------------
          Psi4: An Open-Source Ab Initio Electronic Structure Package
                               Psi4 1.4a3.dev225 

                         Git: Rev {master} 7105e37 


    D. G. A. Smith, L. A. Burns, A. C. Simmonett, R. M. Parrish,
    M. C. Schieber, R. Galvelis, P. Kraus, H. Kruse, R. Di Remigio,
    A. Alenaizan, A. M. James, S. Lehtola, J. P. Misiewicz, M. Scheurer,
    R. A. Shaw, J. B. Schriber, Y. Xie, Z. L. Glick, D. A. Sirianni,
    J. S. O'Brien, J. M. Waldrop, A. Kumar, E. G. Hohenstein,
    B. P. Pritchard, B. R. Brooks, H. F. Schaefer III, A. Yu. Sokolov,
    K. Patkowski, A. E. DePrince III, U. Bozkaya, R. A. King,
    F. A. Evangelista, J. M. Turney, T. D. Crawford, C. D. Sherrill,
    J. Chem. Phys. 152(18) 184108 (2020). https://doi.org/10.1063/5.0006002

                            Additional Code Authors
    E. T. Seidl, C. L. Janssen, E. F. Valeev, M. L. Leininger,
    J. F. Gonthier, R. M. Richard, H. R. McAlexander, M. Saitow, X. Wang,
    P. Verma, and M. H. Lechner

             Previous Authors, Complete List of Code Contributors,
                       and Citations for Specific Modules
    https://github.com/psi4/psi4/blob/master/codemeta.json
    https://github.com/psi4/psi4/graphs/contributors
    http://psicode.org/psi4manual/master/introduction.html#citing-psifour

    -----------------------------------------------------------------------


    Psi4 started on: Thursday, 01 April 2021 05:02PM

    Process ID: 124299
    Host:       c446-022.stampede2.tacc.utexas.edu
    PSIDATADIR: /home1/07844/xy3866/miniconda3/envs/p4env/share/psi4
    Memory:     500.0 MiB
    Threads:    8
    
  ==> Input File <==

--------------------------------------------------------------------------
#psi4
#
memory 32 gb

molecule  {
0 1
  O       -2.9128620    -0.4781290     1.0138340
  O       -2.9681190     0.5148030    -1.0434710
  O       -0.3129680    -3.4309860     0.4641560
  O       -0.2589710     3.4469300    -0.4801560
  O       -1.9011930    -2.4818550    -0.7520780
  O       -1.8407060     2.5208330     0.7644950
  O        3.9597560    -1.1388570    -0.0240200
  O        3.9819620     1.0692260     0.0429750
  N       -0.8439190    -2.4637400    -0.1025570
  N       -0.7967020     2.4883090     0.0943390
  N        3.4069750    -0.0290830     0.0068360
  C       -0.8642630     0.0144850    -0.0118450
  C       -0.1342560    -1.1768520    -0.0236930
  C       -0.1092970     1.1902470     0.0051550
  C        1.9306090    -0.0137700    -0.0002960
  C        1.2785171    -1.1827376    -0.0034724
  C        1.2788880     1.2129500     0.0017720
  C       -2.3665400     0.0542110    -0.0958220
  H        1.7835260    -2.1724740     0.0038120
  H        1.8267950     2.1485240     0.0024160
  H       -3.8857970    -0.4493820     0.8874840
units angstrom
no_reorient  #important for SAPT in psi4, default
symmetry c1  #important for SAPT in psi4, default
}

set PROPERTIES_ORIGIN ["COM"]
properties('MP2/aug-cc-pvtz', properties = ['dipole'])
--------------------------------------------------------------------------

  Memory set to  29.802 GiB by Python driver.
    SCF Algorithm Type (re)set to DF.

*** tstart() called on c446-022.stampede2.tacc.utexas.edu
*** at Thu Apr  1 17:02:19 2021

   => Loading Basis Set <=

    Name: AUG-CC-PVTZ
    Role: ORBITAL
    Keyword: BASIS
    atoms 1-8   entry O          line   331 file /home1/07844/xy3866/miniconda3/envs/p4env/share/psi4/basis/aug-cc-pvtz.gbs 
    atoms 9-11  entry N          line   285 file /home1/07844/xy3866/miniconda3/envs/p4env/share/psi4/basis/aug-cc-pvtz.gbs 
    atoms 12-18 entry C          line   239 file /home1/07844/xy3866/miniconda3/envs/p4env/share/psi4/basis/aug-cc-pvtz.gbs 
    atoms 19-21 entry H          line    40 file /home1/07844/xy3866/miniconda3/envs/p4env/share/psi4/basis/aug-cc-pvtz.gbs 


         ---------------------------------------------------------
                                   SCF
               by Justin Turney, Rob Parrish, Andy Simmonett
                          and Daniel G. A. Smith
                              RHF Reference
                        8 Threads,  30517 MiB Core
         ---------------------------------------------------------

  ==> Geometry <==

    Molecular point group: c1
    Full point group: C1

    Geometry (in Angstrom), charge = 0, multiplicity = 1:

       Center              X                  Y                   Z               Mass       
    ------------   -----------------  -----------------  -----------------  -----------------
         O           -2.915128581120    -0.481994814232     1.017278586336    15.994914619570
         O           -2.970385581120     0.510937185768    -1.040026413664    15.994914619570
         O           -0.315234581120    -3.434851814232     0.467600586336    15.994914619570
         O           -0.261237581120     3.443064185768    -0.476711413664    15.994914619570
         O           -1.903459581120    -2.485720814232    -0.748633413664    15.994914619570
         O           -1.842972581120     2.516967185768     0.767939586336    15.994914619570
         O            3.957489418880    -1.142722814232    -0.020575413664    15.994914619570
         O            3.979695418880     1.065360185768     0.046419586336    15.994914619570
         N           -0.846185581120    -2.467605814232    -0.099112413664    14.003074004430
         N           -0.798968581120     2.484443185768     0.097783586336    14.003074004430
         N            3.404708418880    -0.032948814232     0.010280586336    14.003074004430
         C           -0.866529581120     0.010619185768    -0.008400413664    12.000000000000
         C           -0.136522581120    -1.180717814232    -0.020248413664    12.000000000000
         C           -0.111563581120     1.186381185768     0.008599586336    12.000000000000
         C            1.928342418880    -0.017635814232     0.003148586336    12.000000000000
         C            1.276250518880    -1.186603414232    -0.000027813664    12.000000000000
         C            1.276621418880     1.209084185768     0.005216586336    12.000000000000
         C           -2.368806581120     0.050345185768    -0.092377413664    12.000000000000
         H            1.781259418880    -2.176339814232     0.007256586336     1.007825032230
         H            1.824528418880     2.144658185768     0.005860586336     1.007825032230
         H           -3.888063581120    -0.453247814232     0.890928586336     1.007825032230

  Running in c1 symmetry.

  Rotational constants: A =      0.01802  B =      0.01277  C =      0.00790 [cm^-1]
  Rotational constants: A =    540.26238  B =    382.86894  C =    236.79814 [MHz]
  Nuclear repulsion = 1346.240887953324091

  Charge       = 0
  Multiplicity = 1
  Electrons    = 130
  Nalpha       = 65
  Nbeta        = 65

  ==> Algorithm <==

  SCF Algorithm Type is DF.
  DIIS enabled.
  MOM disabled.
  Fractional occupation disabled.
  Guess Type is SAD.
  Energy threshold   = 1.00e-10
  Density threshold  = 1.00e-10
  Integral threshold = 1.00e-12

  ==> Primary Basis <==

  Basis Set: AUG-CC-PVTZ
    Blend: AUG-CC-PVTZ
    Number of shells: 279
    Number of basis functions: 897
    Number of Cartesian functions: 1065
    Spherical Harmonics?: true
    Max angular momentum: 3

   => Loading Basis Set <=

    Name: (AUG-CC-PVTZ AUX)
    Role: JKFIT
    Keyword: DF_BASIS_SCF
    atoms 1-8   entry O          line   286 file /home1/07844/xy3866/miniconda3/envs/p4env/share/psi4/basis/aug-cc-pvtz-jkfit.gbs 
    atoms 9-11  entry N          line   224 file /home1/07844/xy3866/miniconda3/envs/p4env/share/psi4/basis/aug-cc-pvtz-jkfit.gbs 
    atoms 12-18 entry C          line   162 file /home1/07844/xy3866/miniconda3/envs/p4env/share/psi4/basis/aug-cc-pvtz-jkfit.gbs 
    atoms 19-21 entry H          line    70 file /home1/07844/xy3866/miniconda3/envs/p4env/share/psi4/basis/aug-cc-pvtz-jkfit.gbs 

  ==> Integral Setup <==

  DFHelper Memory: AOs need 9.948 GiB; user supplied 22.352 GiB. Using in-core AOs.

  ==> MemDFJK: Density-Fitted J/K Matrices <==

    J tasked:                   Yes
    K tasked:                   Yes
    wK tasked:                   No
    OpenMP threads:               8
    Memory [MiB]:             22888
    Algorithm:                 Core
    Schwarz Cutoff:           1E-12
    Mask sparsity (%):      19.4323
    Fitting Condition:        1E-10

   => Auxiliary Basis Set <=

  Basis Set: (AUG-CC-PVTZ AUX)
    Blend: AUG-CC-PVTZ-JKFIT
    Number of shells: 582
    Number of basis functions: 2010
    Number of Cartesian functions: 2523
    Spherical Harmonics?: true
    Max angular momentum: 4

  Minimum eigenvalue in the overlap matrix is 2.2558705580E-07.
  Reciprocal condition number of the overlap matrix is 1.2059373114E-08.
    Using symmetric orthogonalization.

  ==> Pre-Iterations <==

  SCF Guess: Superposition of Atomic Densities via on-the-fly atomic UHF (no occupation information).

   -------------------------
    Irrep   Nso     Nmo    
   -------------------------
     A        897     897 
   -------------------------
    Total     897     897
   -------------------------

  ==> Iterations <==

                           Total Energy        Delta E     RMS |[F,P]|

   @DF-RHF iter SAD: -1027.88345603049584   -1.02788e+03   0.00000e+00 
   @DF-RHF iter   1: -1028.41830436736723   -5.34848e-01   1.39726e-03 DIIS
   @DF-RHF iter   2: -1028.69847099908270   -2.80167e-01   1.15182e-03 DIIS
   @DF-RHF iter   3: -1029.03680886802726   -3.38338e-01   1.18792e-04 DIIS
   @DF-RHF iter   4: -1029.04446755418326   -7.65869e-03   5.73107e-05 DIIS
   @DF-RHF iter   5: -1029.04602507798472   -1.55752e-03   1.86232e-05 DIIS
   @DF-RHF iter   6: -1029.04629396031396   -2.68882e-04   1.00965e-05 DIIS
   @DF-RHF iter   7: -1029.04637256333513   -7.86030e-05   4.07729e-06 DIIS
   @DF-RHF iter   8: -1029.04639901033624   -2.64470e-05   1.80464e-06 DIIS
   @DF-RHF iter   9: -1029.04640596960667   -6.95927e-06   9.70738e-07 DIIS
   @DF-RHF iter  10: -1029.04640742320271   -1.45360e-06   3.85361e-07 DIIS
   @DF-RHF iter  11: -1029.04640762530062   -2.02098e-07   1.43615e-07 DIIS
   @DF-RHF iter  12: -1029.04640765921522   -3.39146e-08   7.44736e-08 DIIS
   @DF-RHF iter  13: -1029.04640766727152   -8.05630e-09   3.24439e-08 DIIS
   @DF-RHF iter  14: -1029.04640766881289   -1.54137e-09   1.38223e-08 DIIS
   @DF-RHF iter  15: -1029.04640766911257   -2.99679e-10   6.84372e-09 DIIS
   @DF-RHF iter  16: -1029.04640766918328   -7.07132e-11   3.57206e-09 DIIS
   @DF-RHF iter  17: -1029.04640766919965   -1.63709e-11   2.05623e-09 DIIS
   @DF-RHF iter  18: -1029.04640766921034   -1.06866e-11   1.06293e-09 DIIS
   @DF-RHF iter  19: -1029.04640766921011    2.27374e-13   5.84573e-10 DIIS
   @DF-RHF iter  20: -1029.04640766921193   -1.81899e-12   2.05971e-10 DIIS
   @DF-RHF iter  21: -1029.04640766920988    2.04636e-12   9.49507e-11 DIIS
  Energy and wave function converged.


  ==> Post-Iterations <==

    Orbital Energies [Eh]
    ---------------------

    Doubly Occupied:                                                      

       1A    -20.657297     2A    -20.653323     3A    -20.652893  
       4A    -20.651543     5A    -20.650957     6A    -20.649743  
       7A    -20.649684     8A    -20.595596     9A    -15.904023  
      10A    -15.902138    11A    -15.899789    12A    -11.451958  
      13A    -11.387927    14A    -11.384646    15A    -11.375608  
      16A    -11.375111    17A    -11.356185    18A    -11.353633  
      19A     -1.636915    20A     -1.635417    21A     -1.633322  
      22A     -1.505793    23A     -1.437023    24A     -1.435350  
      25A     -1.433886    26A     -1.405347    27A     -1.292706  
      28A     -1.189549    29A     -1.178269    30A     -1.054781  
      31A     -1.037086    32A     -1.029075    33A     -0.924926  
      34A     -0.884990    35A     -0.869865    36A     -0.837873  
      37A     -0.803320    38A     -0.793642    39A     -0.787392  
      40A     -0.776135    41A     -0.766159    42A     -0.762992  
      43A     -0.757410    44A     -0.753473    45A     -0.745982  
      46A     -0.741242    47A     -0.716386    48A     -0.687136  
      49A     -0.667959    50A     -0.643470    51A     -0.628075  
      52A     -0.609950    53A     -0.555770    54A     -0.549754  
      55A     -0.544516    56A     -0.540650    57A     -0.536714  
      58A     -0.534322    59A     -0.522269    60A     -0.508812  
      61A     -0.494309    62A     -0.492524    63A     -0.486668  
      64A     -0.452976    65A     -0.442681  

    Virtual:                                                              

      66A     -0.024590    67A     -0.015364    68A      0.021034  
      69A      0.023302    70A      0.030277    71A      0.037436  
      72A      0.058712    73A      0.068052    74A      0.073367  
      75A      0.077552    76A      0.079259    77A      0.084233  
      78A      0.090740    79A      0.092275    80A      0.096336  
      81A      0.100834    82A      0.106642    83A      0.108964  
      84A      0.109599    85A      0.114882    86A      0.120774  
      87A      0.127098    88A      0.129185    89A      0.133722  
      90A      0.136825    91A      0.138872    92A      0.146334  
      93A      0.149301    94A      0.157129    95A      0.158532  
      96A      0.160799    97A      0.170054    98A      0.174961  
      99A      0.180046   100A      0.183283   101A      0.184896  
     102A      0.198454   103A      0.199714   104A      0.203672  
     105A      0.204567   106A      0.207447   107A      0.210026  
     108A      0.214655   109A      0.221737   110A      0.224972  
     111A      0.239072   112A      0.239949   113A      0.241809  
     114A      0.244593   115A      0.248802   116A      0.250605  
     117A      0.254426   118A      0.258178   119A      0.261727  
     120A      0.265135   121A      0.269521   122A      0.272488  
     123A      0.276090   124A      0.277880   125A      0.281822  
     126A      0.284084   127A      0.289000   128A      0.296547  
     129A      0.298097   130A      0.304183   131A      0.305219  
     132A      0.308417   133A      0.313161   134A      0.317878  
     135A      0.320111   136A      0.323249   137A      0.325068  
     138A      0.328565   139A      0.331028   140A      0.333947  
     141A      0.334562   142A      0.341043   143A      0.342903  
     144A      0.350943   145A      0.356630   146A      0.366164  
     147A      0.367591   148A      0.371964   149A      0.376399  
     150A      0.377831   151A      0.387397   152A      0.395756  
     153A      0.400437   154A      0.406336   155A      0.408349  
     156A      0.414489   157A      0.415309   158A      0.417070  
     159A      0.418950   160A      0.424686   161A      0.432442  
     162A      0.433051   163A      0.439557   164A      0.441846  
     165A      0.446998   166A      0.447752   167A      0.451336  
     168A      0.460355   169A      0.462480   170A      0.468656  
     171A      0.469932   172A      0.473105   173A      0.476373  
     174A      0.478992   175A      0.490672   176A      0.495209  
     177A      0.502579   178A      0.504012   179A      0.512936  
     180A      0.517702   181A      0.524028   182A      0.526276  
     183A      0.533271   184A      0.536393   185A      0.543116  
     186A      0.547766   187A      0.551922   188A      0.556496  
     189A      0.561305   190A      0.568416   191A      0.577948  
     192A      0.584438   193A      0.591193   194A      0.593728  
     195A      0.597804   196A      0.599331   197A      0.610894  
     198A      0.614785   199A      0.627425   200A      0.635367  
     201A      0.642831   202A      0.647512   203A      0.651735  
     204A      0.657822   205A      0.661013   206A      0.663595  
     207A      0.676550   208A      0.679882   209A      0.687887  
     210A      0.693723   211A      0.697379   212A      0.709253  
     213A      0.709576   214A      0.715420   215A      0.725085  
     216A      0.727810   217A      0.735136   218A      0.741978  
     219A      0.751031   220A      0.752915   221A      0.759143  
     222A      0.762806   223A      0.771297   224A      0.779345  
     225A      0.783642   226A      0.790354   227A      0.791209  
     228A      0.801254   229A      0.807717   230A      0.811146  
     231A      0.816004   232A      0.820375   233A      0.825419  
     234A      0.826606   235A      0.830138   236A      0.835989  
     237A      0.839357   238A      0.840741   239A      0.848689  
     240A      0.853616   241A      0.856081   242A      0.865659  
     243A      0.868591   244A      0.875684   245A      0.876902  
     246A      0.881545   247A      0.884670   248A      0.889074  
     249A      0.892048   250A      0.901810   251A      0.911441  
     252A      0.913591   253A      0.915236   254A      0.920112  
     255A      0.924887   256A      0.928916   257A      0.932936  
     258A      0.936652   259A      0.941630   260A      0.949811  
     261A      0.950651   262A      0.957250   263A      0.963029  
     264A      0.968298   265A      0.973093   266A      0.976560  
     267A      0.982675   268A      0.985189   269A      0.990502  
     270A      0.998174   271A      1.001945   272A      1.009653  
     273A      1.017144   274A      1.025779   275A      1.028531  
     276A      1.031315   277A      1.036623   278A      1.039530  
     279A      1.041081   280A      1.048982   281A      1.052873  
     282A      1.057477   283A      1.061667   284A      1.065242  
     285A      1.072213   286A      1.079123   287A      1.082102  
     288A      1.085380   289A      1.092710   290A      1.096751  
     291A      1.099416   292A      1.107573   293A      1.108783  
     294A      1.115035   295A      1.122380   296A      1.135771  
     297A      1.136293   298A      1.142567   299A      1.144055  
     300A      1.151240   301A      1.157897   302A      1.164704  
     303A      1.167344   304A      1.176783   305A      1.183651  
     306A      1.186338   307A      1.188125   308A      1.202018  
     309A      1.205937   310A      1.221000   311A      1.223793  
     312A      1.227487   313A      1.235037   314A      1.240678  
     315A      1.245481   316A      1.255026   317A      1.259547  
     318A      1.265854   319A      1.269658   320A      1.276434  
     321A      1.284223   322A      1.292230   323A      1.297681  
     324A      1.313078   325A      1.315781   326A      1.319173  
     327A      1.329731   328A      1.333883   329A      1.341290  
     330A      1.350821   331A      1.355979   332A      1.360227  
     333A      1.363344   334A      1.373634   335A      1.380653  
     336A      1.385958   337A      1.391492   338A      1.396980  
     339A      1.408430   340A      1.417526   341A      1.427512  
     342A      1.430759   343A      1.442922   344A      1.452360  
     345A      1.458879   346A      1.467099   347A      1.478021  
     348A      1.485150   349A      1.495917   350A      1.501633  
     351A      1.509202   352A      1.517449   353A      1.519585  
     354A      1.533786   355A      1.538789   356A      1.547798  
     357A      1.554784   358A      1.563391   359A      1.568663  
     360A      1.577199   361A      1.583327   362A      1.587432  
     363A      1.596249   364A      1.602570   365A      1.604733  
     366A      1.614605   367A      1.621329   368A      1.623454  
     369A      1.633720   370A      1.644522   371A      1.644888  
     372A      1.653137   373A      1.656928   374A      1.671141  
     375A      1.675190   376A      1.683632   377A      1.693984  
     378A      1.700716   379A      1.710830   380A      1.725280  
     381A      1.729557   382A      1.733327   383A      1.739558  
     384A      1.742117   385A      1.750318   386A      1.762338  
     387A      1.768774   388A      1.778047   389A      1.781286  
     390A      1.794200   391A      1.797806   392A      1.807899  
     393A      1.819220   394A      1.825410   395A      1.835183  
     396A      1.839802   397A      1.849068   398A      1.858940  
     399A      1.861206   400A      1.873188   401A      1.885203  
     402A      1.892405   403A      1.897534   404A      1.904444  
     405A      1.923475   406A      1.935167   407A      1.941223  
     408A      1.956790   409A      1.957331   410A      1.964694  
     411A      1.979488   412A      1.984373   413A      1.993911  
     414A      1.996297   415A      2.006271   416A      2.011823  
     417A      2.024222   418A      2.026732   419A      2.033008  
     420A      2.038469   421A      2.044809   422A      2.054176  
     423A      2.063135   424A      2.072353   425A      2.087382  
     426A      2.100710   427A      2.108650   428A      2.110855  
     429A      2.119254   430A      2.122295   431A      2.131639  
     432A      2.139971   433A      2.157987   434A      2.171427  
     435A      2.178049   436A      2.183220   437A      2.187841  
     438A      2.195048   439A      2.202578   440A      2.218949  
     441A      2.224649   442A      2.228351   443A      2.237280  
     444A      2.253003   445A      2.260002   446A      2.265482  
     447A      2.274677   448A      2.278701   449A      2.282039  
     450A      2.291185   451A      2.299803   452A      2.306243  
     453A      2.316519   454A      2.339723   455A      2.341988  
     456A      2.347590   457A      2.352445   458A      2.356714  
     459A      2.368432   460A      2.377664   461A      2.383445  
     462A      2.388178   463A      2.392314   464A      2.403272  
     465A      2.407246   466A      2.412517   467A      2.420350  
     468A      2.430116   469A      2.436051   470A      2.448010  
     471A      2.455469   472A      2.459687   473A      2.469300  
     474A      2.474863   475A      2.487946   476A      2.498499  
     477A      2.510951   478A      2.513726   479A      2.522049  
     480A      2.524538   481A      2.536366   482A      2.539413  
     483A      2.545477   484A      2.556734   485A      2.565927  
     486A      2.569658   487A      2.571301   488A      2.574103  
     489A      2.582199   490A      2.588969   491A      2.594777  
     492A      2.596570   493A      2.603344   494A      2.610038  
     495A      2.619699   496A      2.628400   497A      2.633770  
     498A      2.637452   499A      2.640491   500A      2.656579  
     501A      2.658296   502A      2.667563   503A      2.673559  
     504A      2.677112   505A      2.683801   506A      2.698836  
     507A      2.708011   508A      2.718480   509A      2.730506  
     510A      2.741231   511A      2.745397   512A      2.754675  
     513A      2.764041   514A      2.772418   515A      2.783434  
     516A      2.788950   517A      2.800318   518A      2.810059  
     519A      2.822485   520A      2.836455   521A      2.845739  
     522A      2.848106   523A      2.857102   524A      2.863115  
     525A      2.873385   526A      2.887955   527A      2.897525  
     528A      2.900516   529A      2.907549   530A      2.931594  
     531A      2.936289   532A      2.947157   533A      2.953366  
     534A      2.964351   535A      2.970119   536A      2.982741  
     537A      2.991012   538A      2.997477   539A      3.011370  
     540A      3.023095   541A      3.025552   542A      3.040878  
     543A      3.050656   544A      3.053286   545A      3.062588  
     546A      3.078084   547A      3.090474   548A      3.093149  
     549A      3.118252   550A      3.135938   551A      3.152025  
     552A      3.166182   553A      3.173948   554A      3.185494  
     555A      3.188635   556A      3.202211   557A      3.213021  
     558A      3.233455   559A      3.236679   560A      3.242923  
     561A      3.256996   562A      3.277380   563A      3.279331  
     564A      3.304148   565A      3.308839   566A      3.329205  
     567A      3.343928   568A      3.352941   569A      3.366229  
     570A      3.370958   571A      3.384442   572A      3.408169  
     573A      3.410267   574A      3.422147   575A      3.424635  
     576A      3.432212   577A      3.450808   578A      3.459335  
     579A      3.476979   580A      3.478817   581A      3.485093  
     582A      3.493465   583A      3.501454   584A      3.507978  
     585A      3.514936   586A      3.523164   587A      3.541250  
     588A      3.545021   589A      3.563224   590A      3.565727  
     591A      3.589443   592A      3.593520   593A      3.604672  
     594A      3.618647   595A      3.623665   596A      3.634040  
     597A      3.652304   598A      3.666862   599A      3.672728  
     600A      3.680639   601A      3.706337   602A      3.720976  
     603A      3.723594   604A      3.727355   605A      3.761017  
     606A      3.767917   607A      3.776908   608A      3.779488  
     609A      3.800364   610A      3.804839   611A      3.810889  
     612A      3.830226   613A      3.858150   614A      3.864740  
     615A      3.868278   616A      3.883751   617A      3.889652  
     618A      3.897169   619A      3.911085   620A      3.916284  
     621A      3.931867   622A      3.949490   623A      3.970024  
     624A      3.971974   625A      3.990390   626A      4.005836  
     627A      4.007773   628A      4.016304   629A      4.031059  
     630A      4.055592   631A      4.064276   632A      4.073195  
     633A      4.103583   634A      4.115863   635A      4.129500  
     636A      4.136015   637A      4.144764   638A      4.154367  
     639A      4.158296   640A      4.163406   641A      4.177202  
     642A      4.191526   643A      4.212320   644A      4.217111  
     645A      4.229883   646A      4.256851   647A      4.274438  
     648A      4.292506   649A      4.298626   650A      4.303782  
     651A      4.311188   652A      4.317615   653A      4.330710  
     654A      4.336133   655A      4.350636   656A      4.362742  
     657A      4.380319   658A      4.387134   659A      4.395735  
     660A      4.419929   661A      4.425482   662A      4.436746  
     663A      4.450643   664A      4.472944   665A      4.492374  
     666A      4.507175   667A      4.543834   668A      4.555113  
     669A      4.568008   670A      4.575298   671A      4.588957  
     672A      4.609826   673A      4.619724   674A      4.637988  
     675A      4.650042   676A      4.657852   677A      4.673846  
     678A      4.674859   679A      4.683182   680A      4.707200  
     681A      4.747315   682A      4.747391   683A      4.767748  
     684A      4.796518   685A      4.799297   686A      4.834003  
     687A      4.840476   688A      4.850536   689A      4.874434  
     690A      4.887108   691A      4.897005   692A      4.916337  
     693A      4.928263   694A      4.941044   695A      4.953215  
     696A      4.957008   697A      4.966239   698A      4.986860  
     699A      5.003030   700A      5.009441   701A      5.019523  
     702A      5.024670   703A      5.039790   704A      5.065197  
     705A      5.088247   706A      5.105411   707A      5.109547  
     708A      5.113821   709A      5.120161   710A      5.149348  
     711A      5.163491   712A      5.183606   713A      5.202726  
     714A      5.219793   715A      5.224812   716A      5.241349  
     717A      5.259930   718A      5.276490   719A      5.286940  
     720A      5.300236   721A      5.312880   722A      5.318423  
     723A      5.324750   724A      5.344205   725A      5.350362  
     726A      5.361394   727A      5.364304   728A      5.385005  
     729A      5.402782   730A      5.419152   731A      5.425093  
     732A      5.437516   733A      5.449826   734A      5.457323  
     735A      5.478878   736A      5.502645   737A      5.531332  
     738A      5.571392   739A      5.576015   740A      5.580533  
     741A      5.604378   742A      5.620761   743A      5.630246  
     744A      5.635528   745A      5.660453   746A      5.678480  
     747A      5.695336   748A      5.706337   749A      5.734623  
     750A      5.768556   751A      5.783111   752A      5.797993  
     753A      5.806496   754A      5.887143   755A      5.909395  
     756A      5.933144   757A      5.953510   758A      6.002686  
     759A      6.019709   760A      6.068882   761A      6.075123  
     762A      6.110228   763A      6.127184   764A      6.142941  
     765A      6.182253   766A      6.228216   767A      6.264534  
     768A      6.326098   769A      6.344459   770A      6.365765  
     771A      6.389065   772A      6.463265   773A      6.471812  
     774A      6.503611   775A      6.539988   776A      6.557564  
     777A      6.584882   778A      6.620322   779A      6.629808  
     780A      6.648066   781A      6.657125   782A      6.664256  
     783A      6.672715   784A      6.685893   785A      6.698859  
     786A      6.706160   787A      6.717296   788A      6.727639  
     789A      6.742247   790A      6.746959   791A      6.748911  
     792A      6.757622   793A      6.767999   794A      6.782020  
     795A      6.794341   796A      6.807042   797A      6.810146  
     798A      6.841583   799A      6.857642   800A      6.865535  
     801A      6.871036   802A      6.888921   803A      6.905913  
     804A      6.912191   805A      6.926918   806A      6.932921  
     807A      6.952030   808A      6.962771   809A      6.972358  
     810A      6.994756   811A      7.017136   812A      7.060583  
     813A      7.092918   814A      7.113754   815A      7.123001  
     816A      7.127751   817A      7.138857   818A      7.192550  
     819A      7.196974   820A      7.247539   821A      7.263429  
     822A      7.296555   823A      7.301767   824A      7.310749  
     825A      7.313954   826A      7.325843   827A      7.327773  
     828A      7.330133   829A      7.332306   830A      7.343270  
     831A      7.344599   832A      7.358109   833A      7.370285  
     834A      7.372870   835A      7.379464   836A      7.384617  
     837A      7.390795   838A      7.392161   839A      7.421606  
     840A      7.454336   841A      7.484328   842A      7.519814  
     843A      7.545565   844A      7.597370   845A      7.610205  
     846A      7.633142   847A      7.651380   848A      7.676258  
     849A      7.683425   850A      7.689852   851A      7.692686  
     852A      7.696777   853A      7.700503   854A      7.715667  
     855A      7.724325   856A      7.760633   857A      7.763190  
     858A      7.826785   859A      7.844084   860A      7.846904  
     861A      7.921913   862A      7.927846   863A      7.933969  
     864A      7.941761   865A      7.955370   866A      7.961264  
     867A      7.982329   868A      8.024571   869A      8.082776  
     870A      8.090405   871A      8.116684   872A      8.223384  
     873A      8.292749   874A      8.308032   875A      8.329936  
     876A      8.459906   877A      8.465386   878A      8.512423  
     879A      8.547631   880A     15.075869   881A     15.268745  
     882A     15.289973   883A     15.570677   884A     15.800618  
     885A     15.929059   886A     16.196262   887A     16.346654  
     888A     16.940232   889A     17.309835   890A     17.751154  
     891A     18.381585   892A     19.615770   893A     19.635304  
     894A     20.181589   895A     20.474209   896A     21.063374  
     897A     21.170894  

    Final Occupation by Irrep:
              A 
    DOCC [    65 ]

  @DF-RHF Final Energy: -1029.04640766920988

   => Energetics <=

    Nuclear Repulsion Energy =           1346.2408879533240906
    One-Electron Energy =               -4084.0207565170621820
    Two-Electron Energy =                1708.7334608945282071
    Total Energy =                      -1029.0464076692098843

Computation Completed

*** tstop() called on c446-022.stampede2.tacc.utexas.edu at Thu Apr  1 17:05:23 2021
Module time:
	user time   =    1240.11 seconds =      20.67 minutes
	system time =      22.03 seconds =       0.37 minutes
	total time  =        184 seconds =       3.07 minutes
Total time:
	user time   =    1240.11 seconds =      20.67 minutes
	system time =      22.03 seconds =       0.37 minutes
	total time  =        184 seconds =       3.07 minutes
   => Loading Basis Set <=

    Name: (AUG-CC-PVTZ AUX)
    Role: RIFIT
    Keyword: DF_BASIS_MP2
    atoms 1-8   entry O          line   264 file /home1/07844/xy3866/miniconda3/envs/p4env/share/psi4/basis/aug-cc-pvtz-ri.gbs 
    atoms 9-11  entry N          line   206 file /home1/07844/xy3866/miniconda3/envs/p4env/share/psi4/basis/aug-cc-pvtz-ri.gbs 
    atoms 12-18 entry C          line   148 file /home1/07844/xy3866/miniconda3/envs/p4env/share/psi4/basis/aug-cc-pvtz-ri.gbs 
    atoms 19-21 entry H          line    30 file /home1/07844/xy3866/miniconda3/envs/p4env/share/psi4/basis/aug-cc-pvtz-ri.gbs 


*** tstart() called on c446-022.stampede2.tacc.utexas.edu
*** at Thu Apr  1 17:05:24 2021


  //>>>>>>>>>>>>>>>>>>>>>>>>>>>>>>>>>>>//
  //               DFMP2               //
  //<<<<<<<<<<<<<<<<<<<<<<<<<<<<<<<<<<<//

	 --------------------------------------------------------
	                          DF-MP2                         
	      2nd-Order Density-Fitted Moller-Plesset Theory     
	              RMP2 Wavefunction,   8 Threads             
	                                                         
	        Rob Parrish, Justin Turney, Andy Simmonett,      
	           Ed Hohenstein, and C. David Sherrill          
	 --------------------------------------------------------

   => Auxiliary Basis Set <=

  Basis Set: (AUG-CC-PVTZ AUX)
    Blend: AUG-CC-PVTZ-RI
    Number of shells: 546
    Number of basis functions: 2046
    Number of Cartesian functions: 2613
    Spherical Harmonics?: true
    Max angular momentum: 4

	 --------------------------------------------------------
	                 NBF =   897, NAUX =  2046
	 --------------------------------------------------------
	   CLASS    FOCC     OCC    AOCC    AVIR     VIR    FVIR
	   PAIRS       0      65      65     832     832       0
	 --------------------------------------------------------

  DFHelper Memory: AOs need 10.688 GiB; user supplied 22.352 GiB. Using in-core AOs.


         ------------------------------------------------------------
                                     CPHF                           
                                  Rob Parrish                       
         ------------------------------------------------------------

  ==> Geometry <==

    Molecular point group: c1
    Full point group: C1

    Geometry (in Angstrom), charge = 0, multiplicity = 1:

       Center              X                  Y                   Z               Mass       
    ------------   -----------------  -----------------  -----------------  -----------------
         O           -2.915128581120    -0.481994814232     1.017278586336    15.994914619570
         O           -2.970385581120     0.510937185768    -1.040026413664    15.994914619570
         O           -0.315234581120    -3.434851814232     0.467600586336    15.994914619570
         O           -0.261237581120     3.443064185768    -0.476711413664    15.994914619570
         O           -1.903459581120    -2.485720814232    -0.748633413664    15.994914619570
         O           -1.842972581120     2.516967185768     0.767939586336    15.994914619570
         O            3.957489418880    -1.142722814232    -0.020575413664    15.994914619570
         O            3.979695418880     1.065360185768     0.046419586336    15.994914619570
         N           -0.846185581120    -2.467605814232    -0.099112413664    14.003074004430
         N           -0.798968581120     2.484443185768     0.097783586336    14.003074004430
         N            3.404708418880    -0.032948814232     0.010280586336    14.003074004430
         C           -0.866529581120     0.010619185768    -0.008400413664    12.000000000000
         C           -0.136522581120    -1.180717814232    -0.020248413664    12.000000000000
         C           -0.111563581120     1.186381185768     0.008599586336    12.000000000000
         C            1.928342418880    -0.017635814232     0.003148586336    12.000000000000
         C            1.276250518880    -1.186603414232    -0.000027813664    12.000000000000
         C            1.276621418880     1.209084185768     0.005216586336    12.000000000000
         C           -2.368806581120     0.050345185768    -0.092377413664    12.000000000000
         H            1.781259418880    -2.176339814232     0.007256586336     1.007825032230
         H            1.824528418880     2.144658185768     0.005860586336     1.007825032230
         H           -3.888063581120    -0.453247814232     0.890928586336     1.007825032230

  Nuclear repulsion = 1346.240887953324091
  Reference energy  = -1029.046407669209884

  ==> Basis Set <==

  Basis Set: AUG-CC-PVTZ
    Blend: AUG-CC-PVTZ
    Number of shells: 279
    Number of basis functions: 897
    Number of Cartesian functions: 1065
    Spherical Harmonics?: true
    Max angular momentum: 3

  ==> CGRSolver (by Rob Parrish) <==

   Number of roots    =         1
   Preconditioning    =    JACOBI
   Convergence cutoff =     1E-06
   Maximum iterations =       100

  ==> CPHFRHamiltonian (by Rob Parrish) <== 

  ==> MemDFJK: Density-Fitted J/K Matrices <==

    J tasked:                   Yes
    K tasked:                   Yes
    wK tasked:                   No
    OpenMP threads:               8
    Memory [MiB]:             22888
    Algorithm:                 Core
    Schwarz Cutoff:           1E-12
    Mask sparsity (%):      13.2937
    Fitting Condition:        1E-10

   => Auxiliary Basis Set <=

  Basis Set: (AUG-CC-PVTZ AUX)
    Blend: AUG-CC-PVTZ-JKFIT
    Number of shells: 582
    Number of basis functions: 2010
    Number of Cartesian functions: 2523
    Spherical Harmonics?: true
    Max angular momentum: 4

  ==> CPHF Iterations <==

  => Iterations <=

             Iter  Converged  Remaining    Residual
  CGR           1          0          1   1.729E-01
  CGR           2          0          1   6.049E-02
  CGR           3          0          1   3.309E-02
  CGR           4          0          1   1.437E-02
  CGR           5          0          1   6.950E-03
  CGR           6          0          1   3.120E-03
  CGR           7          0          1   1.375E-03
  CGR           8          0          1   5.438E-04
  CGR           9          0          1   2.427E-04
  CGR          10          0          1   9.401E-05
  CGR          11          0          1   4.449E-05
  CGR          12          0          1   2.431E-05
  CGR          13          0          1   1.126E-05
  CGR          14          0          1   3.704E-06
  CGR          15          0          1   1.719E-06
  CGR          16          1          0   7.249E-07

    CGRSolver converged.

	-----------------------------------------------------------
	 ==================> DF-MP2 Energies <==================== 
	-----------------------------------------------------------
	 Reference Energy          =   -1029.0464076692098843 [Eh]
	 Singles Energy            =      -0.0000000000000000 [Eh]
	 Same-Spin Energy          =      -1.0499639605509101 [Eh]
	 Opposite-Spin Energy      =      -2.9503196176533368 [Eh]
	 Correlation Energy        =      -4.0002835782042467 [Eh]
	 Total Energy              =   -1033.0466912474141736 [Eh]
	-----------------------------------------------------------
	 ================> DF-SCS-MP2 Energies <================== 
	-----------------------------------------------------------
	 SCS Same-Spin Scale       =       0.3333333333333333 [-]
	 SCS Opposite-Spin Scale   =       1.2000000000000000 [-]
	 SCS Same-Spin Energy      =      -0.3499879868503034 [Eh]
	 SCS Opposite-Spin Energy  =      -3.5403835411840041 [Eh]
	 SCS Correlation Energy    =      -3.8903715280343074 [Eh]
	 SCS Total Energy          =   -1032.9367791972442774 [Eh]
	-----------------------------------------------------------



Properties will be evaluated at   0.000000,  -0.000000,   0.000000 [a0]

Properties computed using the MP2 density matrix

  Nuclear Dipole Moment: [e a0]
     X:    -0.2806      Y:    -0.4546      Z:     0.8476

  Electronic Dipole Moment: [e a0]
     X:     0.2203      Y:     0.1935      Z:    -0.3813

  Dipole Moment: [e a0]
     X:    -0.0604      Y:    -0.2611      Z:     0.4662     Total:     0.5378

  Dipole Moment: [D]
     X:    -0.1534      Y:    -0.6636      Z:     1.1851     Total:     1.3668


*** tstop() called on c446-022.stampede2.tacc.utexas.edu at Thu Apr  1 17:20:18 2021
Module time:
	user time   =    5831.10 seconds =      97.19 minutes
	system time =      64.17 seconds =       1.07 minutes
	total time  =        894 seconds =      14.90 minutes
Total time:
	user time   =    7072.31 seconds =     117.87 minutes
	system time =      86.21 seconds =       1.44 minutes
	total time  =       1079 seconds =      17.98 minutes

    Psi4 stopped on: Thursday, 01 April 2021 05:20PM
    Psi4 wall time for execution: 0:18:01.36

*** Psi4 exiting successfully. Buy a developer a beer!
