193_IsobutyricAnhydride Gaussian SP Calculation on node58.bme.utexas.edu
Freq      RMP2-FC                                                     6-31G(d)            
Number of atoms                            I               25
Info1-9                                    I   N=           9
          36          35        1002           0           0         100
           6           2           1
Charge                                     I                0
Multiplicity                               I                1
Number of electrons                        I               86
Number of alpha electrons                  I               43
Number of beta electrons                   I               43
Number of basis functions                  I              193
Number of independent functions            I              193
Number of point charges in /Mol/           I                0
Number of translation vectors              I                0
Atomic numbers                             I   N=          25
           8           8           8           6           6           6
           6           6           6           6           6           1
           1           1           1           1           1           1
           1           1           1           1           1           1
           1
Nuclear charges                            R   N=          25
  8.00000000E+00  8.00000000E+00  8.00000000E+00  6.00000000E+00  6.00000000E+00
  6.00000000E+00  6.00000000E+00  6.00000000E+00  6.00000000E+00  6.00000000E+00
  6.00000000E+00  1.00000000E+00  1.00000000E+00  1.00000000E+00  1.00000000E+00
  1.00000000E+00  1.00000000E+00  1.00000000E+00  1.00000000E+00  1.00000000E+00
  1.00000000E+00  1.00000000E+00  1.00000000E+00  1.00000000E+00  1.00000000E+00
Current cartesian coordinates              R   N=          75
  3.18923337E-02  3.59225256E-01 -7.60224844E-01 -2.46867628E+00 -3.18146857E+00
 -4.52574465E-01  2.10330273E+00 -2.15666189E+00  2.10961912E+00 -4.42098102E+00
  9.89357901E-01 -5.07730365E-01  4.53022091E+00  3.03298053E-01 -9.35493819E-01
 -2.29213397E+00 -9.05662192E-01 -5.40658154E-01  2.18848593E+00 -7.23040345E-01
  3.30897386E-01 -6.94861147E+00 -3.25108870E-01 -9.23567456E-01 -4.34269758E+00
  2.45070097E+00  1.99600080E+00  4.67557404E+00  3.17510017E+00 -5.62511533E-01
  6.87581208E+00 -1.03893698E+00  5.94103940E-02 -4.05129417E+00  2.32531107E+00
 -2.05000499E+00  4.30576172E+00 -7.50951654E-02 -2.96258072E+00 -8.47260542E+00
  1.07013595E+00 -9.61174001E-01 -6.96625825E+00 -1.36701605E+00 -2.70607641E+00
 -7.31984216E+00 -1.66952331E+00  5.98842931E-01 -5.86306923E+00  3.84961253E+00
  2.03890019E+00 -4.60778592E+00  1.15928428E+00  3.58944859E+00 -2.54189400E+00
  3.43051697E+00  2.23477111E+00  4.80170341E+00  3.63001028E+00  1.45145924E+00
  3.02055020E+00  4.12088721E+00 -1.35092662E+00  6.36533560E+00  3.91600894E+00
 -1.49341210E+00  7.10914501E+00 -6.81839232E-01  2.07990442E+00  8.55367993E+00
 -3.50460688E-01 -9.31383669E-01  6.74040953E+00 -3.08084334E+00 -2.10409991E-01
Force Field                                I                0
Int Atom Types                             I   N=          25
           0           0           0           0           0           0
           0           0           0           0           0           0
           0           0           0           0           0           0
           0           0           0           0           0           0
           0
MM charges                                 R   N=          25
  0.00000000E+00  0.00000000E+00  0.00000000E+00  0.00000000E+00  0.00000000E+00
  0.00000000E+00  0.00000000E+00  0.00000000E+00  0.00000000E+00  0.00000000E+00
  0.00000000E+00  0.00000000E+00  0.00000000E+00  0.00000000E+00  0.00000000E+00
  0.00000000E+00  0.00000000E+00  0.00000000E+00  0.00000000E+00  0.00000000E+00
  0.00000000E+00  0.00000000E+00  0.00000000E+00  0.00000000E+00  0.00000000E+00
Integer atomic weights                     I   N=          25
          16          16          16          12          12          12
          12          12          12          12          12           1
           1           1           1           1           1           1
           1           1           1           1           1           1
           1
Real atomic weights                        R   N=          25
  1.59949146E+01  1.59949146E+01  1.59949146E+01  1.20000000E+01  1.20000000E+01
  1.20000000E+01  1.20000000E+01  1.20000000E+01  1.20000000E+01  1.20000000E+01
  1.20000000E+01  1.00782504E+00  1.00782504E+00  1.00782504E+00  1.00782504E+00
  1.00782504E+00  1.00782504E+00  1.00782504E+00  1.00782504E+00  1.00782504E+00
  1.00782504E+00  1.00782504E+00  1.00782504E+00  1.00782504E+00  1.00782504E+00
Atom fragment info                         I   N=          25
           0           0           0           0           0           0
           0           0           0           0           0           0
           0           0           0           0           0           0
           0           0           0           0           0           0
           0
Atom residue num                           I   N=          25
           0           0           0           0           0           0
           0           0           0           0           0           0
           0           0           0           0           0           0
           0           0           0           0           0           0
           0
Nuclear spins                              I   N=          25
           0           0           0           0           0           0
           0           0           0           0           0           1
           1           1           1           1           1           1
           1           1           1           1           1           1
           1
Nuclear ZEff                               R   N=          25
 -5.60000000E+00 -5.60000000E+00 -5.60000000E+00 -3.60000000E+00 -3.60000000E+00
 -3.60000000E+00 -3.60000000E+00 -3.60000000E+00 -3.60000000E+00 -3.60000000E+00
 -3.60000000E+00 -1.00000000E+00 -1.00000000E+00 -1.00000000E+00 -1.00000000E+00
 -1.00000000E+00 -1.00000000E+00 -1.00000000E+00 -1.00000000E+00 -1.00000000E+00
 -1.00000000E+00 -1.00000000E+00 -1.00000000E+00 -1.00000000E+00 -1.00000000E+00
Nuclear QMom                               R   N=          25
  0.00000000E+00  0.00000000E+00  0.00000000E+00  0.00000000E+00  0.00000000E+00
  0.00000000E+00  0.00000000E+00  0.00000000E+00  0.00000000E+00  0.00000000E+00
  0.00000000E+00  0.00000000E+00  0.00000000E+00  0.00000000E+00  0.00000000E+00
  0.00000000E+00  0.00000000E+00  0.00000000E+00  0.00000000E+00  0.00000000E+00
  0.00000000E+00  0.00000000E+00  0.00000000E+00  0.00000000E+00  0.00000000E+00
Nuclear GFac                               R   N=          25
  0.00000000E+00  0.00000000E+00  0.00000000E+00  0.00000000E+00  0.00000000E+00
  0.00000000E+00  0.00000000E+00  0.00000000E+00  0.00000000E+00  0.00000000E+00
  0.00000000E+00  2.79284600E+00  2.79284600E+00  2.79284600E+00  2.79284600E+00
  2.79284600E+00  2.79284600E+00  2.79284600E+00  2.79284600E+00  2.79284600E+00
  2.79284600E+00  2.79284600E+00  2.79284600E+00  2.79284600E+00  2.79284600E+00
MicOpt                                     I   N=          25
          -1          -1          -1          -1          -1          -1
          -1          -1          -1          -1          -1          -1
          -1          -1          -1          -1          -1          -1
          -1          -1          -1          -1          -1          -1
          -1
Number of contracted shells                I               72
Number of primitive shells                 I              177
Pure/Cartesian d shells                    I                1
Pure/Cartesian f shells                    I                0
Highest angular momentum                   I                2
Largest degree of contraction              I                6
Shell types                                I   N=          72
           0          -1          -1           2           0          -1
          -1           2           0          -1          -1           2
           0          -1          -1           2           0          -1
          -1           2           0          -1          -1           2
           0          -1          -1           2           0          -1
          -1           2           0          -1          -1           2
           0          -1          -1           2           0          -1
          -1           2           0           0           0           0
           0           0           0           0           0           0
           0           0           0           0           0           0
           0           0           0           0           0           0
           0           0           0           0           0           0
Number of primitives per shell             I   N=          72
           6           3           1           1           6           3
           1           1           6           3           1           1
           6           3           1           1           6           3
           1           1           6           3           1           1
           6           3           1           1           6           3
           1           1           6           3           1           1
           6           3           1           1           6           3
           1           1           3           1           3           1
           3           1           3           1           3           1
           3           1           3           1           3           1
           3           1           3           1           3           1
           3           1           3           1           3           1
Shell to atom map                          I   N=          72
           1           1           1           1           2           2
           2           2           3           3           3           3
           4           4           4           4           5           5
           5           5           6           6           6           6
           7           7           7           7           8           8
           8           8           9           9           9           9
          10          10          10          10          11          11
          11          11          12          12          13          13
          14          14          15          15          16          16
          17          17          18          18          19          19
          20          20          21          21          22          22
          23          23          24          24          25          25
Primitive exponents                        R   N=         177
  5.48467166E+03  8.25234946E+02  1.88046958E+02  5.29645000E+01  1.68975704E+01
  5.79963534E+00  1.55396162E+01  3.59993359E+00  1.01376175E+00  2.70005823E-01
  8.00000000E-01  5.48467166E+03  8.25234946E+02  1.88046958E+02  5.29645000E+01
  1.68975704E+01  5.79963534E+00  1.55396162E+01  3.59993359E+00  1.01376175E+00
  2.70005823E-01  8.00000000E-01  5.48467166E+03  8.25234946E+02  1.88046958E+02
  5.29645000E+01  1.68975704E+01  5.79963534E+00  1.55396162E+01  3.59993359E+00
  1.01376175E+00  2.70005823E-01  8.00000000E-01  3.04752488E+03  4.57369518E+02
  1.03948685E+02  2.92101553E+01  9.28666296E+00  3.16392696E+00  7.86827235E+00
  1.88128854E+00  5.44249258E-01  1.68714478E-01  8.00000000E-01  3.04752488E+03
  4.57369518E+02  1.03948685E+02  2.92101553E+01  9.28666296E+00  3.16392696E+00
  7.86827235E+00  1.88128854E+00  5.44249258E-01  1.68714478E-01  8.00000000E-01
  3.04752488E+03  4.57369518E+02  1.03948685E+02  2.92101553E+01  9.28666296E+00
  3.16392696E+00  7.86827235E+00  1.88128854E+00  5.44249258E-01  1.68714478E-01
  8.00000000E-01  3.04752488E+03  4.57369518E+02  1.03948685E+02  2.92101553E+01
  9.28666296E+00  3.16392696E+00  7.86827235E+00  1.88128854E+00  5.44249258E-01
  1.68714478E-01  8.00000000E-01  3.04752488E+03  4.57369518E+02  1.03948685E+02
  2.92101553E+01  9.28666296E+00  3.16392696E+00  7.86827235E+00  1.88128854E+00
  5.44249258E-01  1.68714478E-01  8.00000000E-01  3.04752488E+03  4.57369518E+02
  1.03948685E+02  2.92101553E+01  9.28666296E+00  3.16392696E+00  7.86827235E+00
  1.88128854E+00  5.44249258E-01  1.68714478E-01  8.00000000E-01  3.04752488E+03
  4.57369518E+02  1.03948685E+02  2.92101553E+01  9.28666296E+00  3.16392696E+00
  7.86827235E+00  1.88128854E+00  5.44249258E-01  1.68714478E-01  8.00000000E-01
  3.04752488E+03  4.57369518E+02  1.03948685E+02  2.92101553E+01  9.28666296E+00
  3.16392696E+00  7.86827235E+00  1.88128854E+00  5.44249258E-01  1.68714478E-01
  8.00000000E-01  1.87311370E+01  2.82539436E+00  6.40121692E-01  1.61277759E-01
  1.87311370E+01  2.82539436E+00  6.40121692E-01  1.61277759E-01  1.87311370E+01
  2.82539436E+00  6.40121692E-01  1.61277759E-01  1.87311370E+01  2.82539436E+00
  6.40121692E-01  1.61277759E-01  1.87311370E+01  2.82539436E+00  6.40121692E-01
  1.61277759E-01  1.87311370E+01  2.82539436E+00  6.40121692E-01  1.61277759E-01
  1.87311370E+01  2.82539436E+00  6.40121692E-01  1.61277759E-01  1.87311370E+01
  2.82539436E+00  6.40121692E-01  1.61277759E-01  1.87311370E+01  2.82539436E+00
  6.40121692E-01  1.61277759E-01  1.87311370E+01  2.82539436E+00  6.40121692E-01
  1.61277759E-01  1.87311370E+01  2.82539436E+00  6.40121692E-01  1.61277759E-01
  1.87311370E+01  2.82539436E+00  6.40121692E-01  1.61277759E-01  1.87311370E+01
  2.82539436E+00  6.40121692E-01  1.61277759E-01  1.87311370E+01  2.82539436E+00
  6.40121692E-01  1.61277759E-01
Contraction coefficients                   R   N=         177
  1.83107443E-03  1.39501722E-02  6.84450781E-02  2.32714336E-01  4.70192898E-01
  3.58520853E-01 -1.10777550E-01 -1.48026263E-01  1.13076702E+00  1.00000000E+00
  1.00000000E+00  1.83107443E-03  1.39501722E-02  6.84450781E-02  2.32714336E-01
  4.70192898E-01  3.58520853E-01 -1.10777550E-01 -1.48026263E-01  1.13076702E+00
  1.00000000E+00  1.00000000E+00  1.83107443E-03  1.39501722E-02  6.84450781E-02
  2.32714336E-01  4.70192898E-01  3.58520853E-01 -1.10777550E-01 -1.48026263E-01
  1.13076702E+00  1.00000000E+00  1.00000000E+00  1.83473713E-03  1.40373228E-02
  6.88426223E-02  2.32184443E-01  4.67941348E-01  3.62311985E-01 -1.19332420E-01
 -1.60854152E-01  1.14345644E+00  1.00000000E+00  1.00000000E+00  1.83473713E-03
  1.40373228E-02  6.88426223E-02  2.32184443E-01  4.67941348E-01  3.62311985E-01
 -1.19332420E-01 -1.60854152E-01  1.14345644E+00  1.00000000E+00  1.00000000E+00
  1.83473713E-03  1.40373228E-02  6.88426223E-02  2.32184443E-01  4.67941348E-01
  3.62311985E-01 -1.19332420E-01 -1.60854152E-01  1.14345644E+00  1.00000000E+00
  1.00000000E+00  1.83473713E-03  1.40373228E-02  6.88426223E-02  2.32184443E-01
  4.67941348E-01  3.62311985E-01 -1.19332420E-01 -1.60854152E-01  1.14345644E+00
  1.00000000E+00  1.00000000E+00  1.83473713E-03  1.40373228E-02  6.88426223E-02
  2.32184443E-01  4.67941348E-01  3.62311985E-01 -1.19332420E-01 -1.60854152E-01
  1.14345644E+00  1.00000000E+00  1.00000000E+00  1.83473713E-03  1.40373228E-02
  6.88426223E-02  2.32184443E-01  4.67941348E-01  3.62311985E-01 -1.19332420E-01
 -1.60854152E-01  1.14345644E+00  1.00000000E+00  1.00000000E+00  1.83473713E-03
  1.40373228E-02  6.88426223E-02  2.32184443E-01  4.67941348E-01  3.62311985E-01
 -1.19332420E-01 -1.60854152E-01  1.14345644E+00  1.00000000E+00  1.00000000E+00
  1.83473713E-03  1.40373228E-02  6.88426223E-02  2.32184443E-01  4.67941348E-01
  3.62311985E-01 -1.19332420E-01 -1.60854152E-01  1.14345644E+00  1.00000000E+00
  1.00000000E+00  3.34946043E-02  2.34726953E-01  8.13757326E-01  1.00000000E+00
  3.34946043E-02  2.34726953E-01  8.13757326E-01  1.00000000E+00  3.34946043E-02
  2.34726953E-01  8.13757326E-01  1.00000000E+00  3.34946043E-02  2.34726953E-01
  8.13757326E-01  1.00000000E+00  3.34946043E-02  2.34726953E-01  8.13757326E-01
  1.00000000E+00  3.34946043E-02  2.34726953E-01  8.13757326E-01  1.00000000E+00
  3.34946043E-02  2.34726953E-01  8.13757326E-01  1.00000000E+00  3.34946043E-02
  2.34726953E-01  8.13757326E-01  1.00000000E+00  3.34946043E-02  2.34726953E-01
  8.13757326E-01  1.00000000E+00  3.34946043E-02  2.34726953E-01  8.13757326E-01
  1.00000000E+00  3.34946043E-02  2.34726953E-01  8.13757326E-01  1.00000000E+00
  3.34946043E-02  2.34726953E-01  8.13757326E-01  1.00000000E+00  3.34946043E-02
  2.34726953E-01  8.13757326E-01  1.00000000E+00  3.34946043E-02  2.34726953E-01
  8.13757326E-01  1.00000000E+00
P(S=P) Contraction coefficients            R   N=         177
  0.00000000E+00  0.00000000E+00  0.00000000E+00  0.00000000E+00  0.00000000E+00
  0.00000000E+00  7.08742682E-02  3.39752839E-01  7.27158577E-01  1.00000000E+00
  0.00000000E+00  0.00000000E+00  0.00000000E+00  0.00000000E+00  0.00000000E+00
  0.00000000E+00  0.00000000E+00  7.08742682E-02  3.39752839E-01  7.27158577E-01
  1.00000000E+00  0.00000000E+00  0.00000000E+00  0.00000000E+00  0.00000000E+00
  0.00000000E+00  0.00000000E+00  0.00000000E+00  7.08742682E-02  3.39752839E-01
  7.27158577E-01  1.00000000E+00  0.00000000E+00  0.00000000E+00  0.00000000E+00
  0.00000000E+00  0.00000000E+00  0.00000000E+00  0.00000000E+00  6.89990666E-02
  3.16423961E-01  7.44308291E-01  1.00000000E+00  0.00000000E+00  0.00000000E+00
  0.00000000E+00  0.00000000E+00  0.00000000E+00  0.00000000E+00  0.00000000E+00
  6.89990666E-02  3.16423961E-01  7.44308291E-01  1.00000000E+00  0.00000000E+00
  0.00000000E+00  0.00000000E+00  0.00000000E+00  0.00000000E+00  0.00000000E+00
  0.00000000E+00  6.89990666E-02  3.16423961E-01  7.44308291E-01  1.00000000E+00
  0.00000000E+00  0.00000000E+00  0.00000000E+00  0.00000000E+00  0.00000000E+00
  0.00000000E+00  0.00000000E+00  6.89990666E-02  3.16423961E-01  7.44308291E-01
  1.00000000E+00  0.00000000E+00  0.00000000E+00  0.00000000E+00  0.00000000E+00
  0.00000000E+00  0.00000000E+00  0.00000000E+00  6.89990666E-02  3.16423961E-01
  7.44308291E-01  1.00000000E+00  0.00000000E+00  0.00000000E+00  0.00000000E+00
  0.00000000E+00  0.00000000E+00  0.00000000E+00  0.00000000E+00  6.89990666E-02
  3.16423961E-01  7.44308291E-01  1.00000000E+00  0.00000000E+00  0.00000000E+00
  0.00000000E+00  0.00000000E+00  0.00000000E+00  0.00000000E+00  0.00000000E+00
  6.89990666E-02  3.16423961E-01  7.44308291E-01  1.00000000E+00  0.00000000E+00
  0.00000000E+00  0.00000000E+00  0.00000000E+00  0.00000000E+00  0.00000000E+00
  0.00000000E+00  6.89990666E-02  3.16423961E-01  7.44308291E-01  1.00000000E+00
  0.00000000E+00  0.00000000E+00  0.00000000E+00  0.00000000E+00  0.00000000E+00
  0.00000000E+00  0.00000000E+00  0.00000000E+00  0.00000000E+00  0.00000000E+00
  0.00000000E+00  0.00000000E+00  0.00000000E+00  0.00000000E+00  0.00000000E+00
  0.00000000E+00  0.00000000E+00  0.00000000E+00  0.00000000E+00  0.00000000E+00
  0.00000000E+00  0.00000000E+00  0.00000000E+00  0.00000000E+00  0.00000000E+00
  0.00000000E+00  0.00000000E+00  0.00000000E+00  0.00000000E+00  0.00000000E+00
  0.00000000E+00  0.00000000E+00  0.00000000E+00  0.00000000E+00  0.00000000E+00
  0.00000000E+00  0.00000000E+00  0.00000000E+00  0.00000000E+00  0.00000000E+00
  0.00000000E+00  0.00000000E+00  0.00000000E+00  0.00000000E+00  0.00000000E+00
  0.00000000E+00  0.00000000E+00  0.00000000E+00  0.00000000E+00  0.00000000E+00
  0.00000000E+00  0.00000000E+00  0.00000000E+00  0.00000000E+00  0.00000000E+00
  0.00000000E+00  0.00000000E+00
Coordinates of each shell                  R   N=         216
  3.18923337E-02  3.59225256E-01 -7.60224844E-01  3.18923337E-02  3.59225256E-01
 -7.60224844E-01  3.18923337E-02  3.59225256E-01 -7.60224844E-01  3.18923337E-02
  3.59225256E-01 -7.60224844E-01 -2.46867628E+00 -3.18146857E+00 -4.52574465E-01
 -2.46867628E+00 -3.18146857E+00 -4.52574465E-01 -2.46867628E+00 -3.18146857E+00
 -4.52574465E-01 -2.46867628E+00 -3.18146857E+00 -4.52574465E-01  2.10330273E+00
 -2.15666189E+00  2.10961912E+00  2.10330273E+00 -2.15666189E+00  2.10961912E+00
  2.10330273E+00 -2.15666189E+00  2.10961912E+00  2.10330273E+00 -2.15666189E+00
  2.10961912E+00 -4.42098102E+00  9.89357901E-01 -5.07730365E-01 -4.42098102E+00
  9.89357901E-01 -5.07730365E-01 -4.42098102E+00  9.89357901E-01 -5.07730365E-01
 -4.42098102E+00  9.89357901E-01 -5.07730365E-01  4.53022091E+00  3.03298053E-01
 -9.35493819E-01  4.53022091E+00  3.03298053E-01 -9.35493819E-01  4.53022091E+00
  3.03298053E-01 -9.35493819E-01  4.53022091E+00  3.03298053E-01 -9.35493819E-01
 -2.29213397E+00 -9.05662192E-01 -5.40658154E-01 -2.29213397E+00 -9.05662192E-01
 -5.40658154E-01 -2.29213397E+00 -9.05662192E-01 -5.40658154E-01 -2.29213397E+00
 -9.05662192E-01 -5.40658154E-01  2.18848593E+00 -7.23040345E-01  3.30897386E-01
  2.18848593E+00 -7.23040345E-01  3.30897386E-01  2.18848593E+00 -7.23040345E-01
  3.30897386E-01  2.18848593E+00 -7.23040345E-01  3.30897386E-01 -6.94861147E+00
 -3.25108870E-01 -9.23567456E-01 -6.94861147E+00 -3.25108870E-01 -9.23567456E-01
 -6.94861147E+00 -3.25108870E-01 -9.23567456E-01 -6.94861147E+00 -3.25108870E-01
 -9.23567456E-01 -4.34269758E+00  2.45070097E+00  1.99600080E+00 -4.34269758E+00
  2.45070097E+00  1.99600080E+00 -4.34269758E+00  2.45070097E+00  1.99600080E+00
 -4.34269758E+00  2.45070097E+00  1.99600080E+00  4.67557404E+00  3.17510017E+00
 -5.62511533E-01  4.67557404E+00  3.17510017E+00 -5.62511533E-01  4.67557404E+00
  3.17510017E+00 -5.62511533E-01  4.67557404E+00  3.17510017E+00 -5.62511533E-01
  6.87581208E+00 -1.03893698E+00  5.94103940E-02  6.87581208E+00 -1.03893698E+00
  5.94103940E-02  6.87581208E+00 -1.03893698E+00  5.94103940E-02  6.87581208E+00
 -1.03893698E+00  5.94103940E-02 -4.05129417E+00  2.32531107E+00 -2.05000499E+00
 -4.05129417E+00  2.32531107E+00 -2.05000499E+00  4.30576172E+00 -7.50951654E-02
 -2.96258072E+00  4.30576172E+00 -7.50951654E-02 -2.96258072E+00 -8.47260542E+00
  1.07013595E+00 -9.61174001E-01 -8.47260542E+00  1.07013595E+00 -9.61174001E-01
 -6.96625825E+00 -1.36701605E+00 -2.70607641E+00 -6.96625825E+00 -1.36701605E+00
 -2.70607641E+00 -7.31984216E+00 -1.66952331E+00  5.98842931E-01 -7.31984216E+00
 -1.66952331E+00  5.98842931E-01 -5.86306923E+00  3.84961253E+00  2.03890019E+00
 -5.86306923E+00  3.84961253E+00  2.03890019E+00 -4.60778592E+00  1.15928428E+00
  3.58944859E+00 -4.60778592E+00  1.15928428E+00  3.58944859E+00 -2.54189400E+00
  3.43051697E+00  2.23477111E+00 -2.54189400E+00  3.43051697E+00  2.23477111E+00
  4.80170341E+00  3.63001028E+00  1.45145924E+00  4.80170341E+00  3.63001028E+00
  1.45145924E+00  3.02055020E+00  4.12088721E+00 -1.35092662E+00  3.02055020E+00
  4.12088721E+00 -1.35092662E+00  6.36533560E+00  3.91600894E+00 -1.49341210E+00
  6.36533560E+00  3.91600894E+00 -1.49341210E+00  7.10914501E+00 -6.81839232E-01
  2.07990442E+00  7.10914501E+00 -6.81839232E-01  2.07990442E+00  8.55367993E+00
 -3.50460688E-01 -9.31383669E-01  8.55367993E+00 -3.50460688E-01 -9.31383669E-01
  6.74040953E+00 -3.08084334E+00 -2.10409991E-01  6.74040953E+00 -3.08084334E+00
 -2.10409991E-01
Constraint Structure                       R   N=          75
  3.18923337E-02  3.59225256E-01 -7.60224844E-01 -2.46867628E+00 -3.18146857E+00
 -4.52574465E-01  2.10330273E+00 -2.15666189E+00  2.10961912E+00 -4.42098102E+00
  9.89357901E-01 -5.07730365E-01  4.53022091E+00  3.03298053E-01 -9.35493819E-01
 -2.29213397E+00 -9.05662192E-01 -5.40658154E-01  2.18848593E+00 -7.23040345E-01
  3.30897386E-01 -6.94861147E+00 -3.25108870E-01 -9.23567456E-01 -4.34269758E+00
  2.45070097E+00  1.99600080E+00  4.67557404E+00  3.17510017E+00 -5.62511533E-01
  6.87581208E+00 -1.03893698E+00  5.94103940E-02 -4.05129417E+00  2.32531107E+00
 -2.05000499E+00  4.30576172E+00 -7.50951654E-02 -2.96258072E+00 -8.47260542E+00
  1.07013595E+00 -9.61174001E-01 -6.96625825E+00 -1.36701605E+00 -2.70607641E+00
 -7.31984216E+00 -1.66952331E+00  5.98842931E-01 -5.86306923E+00  3.84961253E+00
  2.03890019E+00 -4.60778592E+00  1.15928428E+00  3.58944859E+00 -2.54189400E+00
  3.43051697E+00  2.23477111E+00  4.80170341E+00  3.63001028E+00  1.45145924E+00
  3.02055020E+00  4.12088721E+00 -1.35092662E+00  6.36533560E+00  3.91600894E+00
 -1.49341210E+00  7.10914501E+00 -6.81839232E-01  2.07990442E+00  8.55367993E+00
 -3.50460688E-01 -9.31383669E-01  6.74040953E+00 -3.08084334E+00 -2.10409991E-01
Num ILSW                                   I              100
ILSW                                       I   N=         100
           0           1           0           0           2           0
           0           0           0           0           0          -1
           0           0           0           0           0           0
           0           0           0           0           1           0
           1           0           0           0           0           0
           0           0      100000           0          -1           0
           0           0           0           0           0           0
           0           0           0           1           1           0
           0           0           1           0           0           0
           0           0           4          40           0           0
           0           0           0           0           0           0
           0           0           0           0           0           0
           0           0           0           0           0           0
           0           0           0           0           0           0
           0           0           0           0           0           0
           0           0           0           0           0           0
           0           0           0           0
Num RLSW                                   I               40
RLSW                                       R   N=          40
  1.00000000E+00  1.00000000E+00  1.00000000E+00  1.00000000E+00  1.00000000E+00
  0.00000000E+00  0.00000000E+00  1.00000000E+00  0.00000000E+00  0.00000000E+00
  0.00000000E+00  0.00000000E+00  1.00000000E+00  0.00000000E+00  0.00000000E+00
  0.00000000E+00  0.00000000E+00  1.00000000E+00  0.00000000E+00  0.00000000E+00
  0.00000000E+00  0.00000000E+00  1.00000000E+00  0.00000000E+00  0.00000000E+00
  0.00000000E+00  0.00000000E+00  1.00000000E+00  0.00000000E+00  0.00000000E+00
  0.00000000E+00  0.00000000E+00  0.00000000E+00  0.00000000E+00  0.00000000E+00
  0.00000000E+00  0.00000000E+00  0.00000000E+00  1.00000000E+00  1.00000000E+00
MxBond                                     I                4
NBond                                      I   N=          25
           2           1           1           4           4           3
           3           4           4           4           4           1
           1           1           1           1           1           1
           1           1           1           1           1           1
           1
IBond                                      I   N=         100
           6           7           0           0           6           0
           0           0           7           0           0           0
           6           8           9          12           7          10
          11          13           1           2           4           0
           1           3           5           0           4          14
          15          16           4          17          18          19
           5          20          21          22           5          23
          24          25           4           0           0           0
           5           0           0           0           8           0
           0           0           8           0           0           0
           8           0           0           0           9           0
           0           0           9           0           0           0
           9           0           0           0          10           0
           0           0          10           0           0           0
          10           0           0           0          11           0
           0           0          11           0           0           0
          11           0           0           0
RBond                                      R   N=         100
  1.50000000E+00  1.50000000E+00  0.00000000E+00  0.00000000E+00  2.00000000E+00
  0.00000000E+00  0.00000000E+00  0.00000000E+00  2.00000000E+00  0.00000000E+00
  0.00000000E+00  0.00000000E+00  1.00000000E+00  1.00000000E+00  1.00000000E+00
  1.00000000E+00  1.00000000E+00  1.00000000E+00  1.00000000E+00  1.00000000E+00
  1.50000000E+00  2.00000000E+00  1.00000000E+00  0.00000000E+00  1.50000000E+00
  2.00000000E+00  1.00000000E+00  0.00000000E+00  1.00000000E+00  1.00000000E+00
  1.00000000E+00  1.00000000E+00  1.00000000E+00  1.00000000E+00  1.00000000E+00
  1.00000000E+00  1.00000000E+00  1.00000000E+00  1.00000000E+00  1.00000000E+00
  1.00000000E+00  1.00000000E+00  1.00000000E+00  1.00000000E+00  1.00000000E+00
  0.00000000E+00  0.00000000E+00  0.00000000E+00  1.00000000E+00  0.00000000E+00
  0.00000000E+00  0.00000000E+00  1.00000000E+00  0.00000000E+00  0.00000000E+00
  0.00000000E+00  1.00000000E+00  0.00000000E+00  0.00000000E+00  0.00000000E+00
  1.00000000E+00  0.00000000E+00  0.00000000E+00  0.00000000E+00  1.00000000E+00
  0.00000000E+00  0.00000000E+00  0.00000000E+00  1.00000000E+00  0.00000000E+00
  0.00000000E+00  0.00000000E+00  1.00000000E+00  0.00000000E+00  0.00000000E+00
  0.00000000E+00  1.00000000E+00  0.00000000E+00  0.00000000E+00  0.00000000E+00
  1.00000000E+00  0.00000000E+00  0.00000000E+00  0.00000000E+00  1.00000000E+00
  0.00000000E+00  0.00000000E+00  0.00000000E+00  1.00000000E+00  0.00000000E+00
  0.00000000E+00  0.00000000E+00  1.00000000E+00  0.00000000E+00  0.00000000E+00
  0.00000000E+00  1.00000000E+00  0.00000000E+00  0.00000000E+00  0.00000000E+00