1048                                                                    
Freq      RMP2-FC                                                     6-31G(d)            
Number of atoms                            I                9
Info1-9                                    I   N=           9
          21          19        1002           0           0         100
           6           2           1
Charge                                     I                0
Multiplicity                               I                1
Number of electrons                        I               36
Number of alpha electrons                  I               18
Number of beta electrons                   I               18
Number of basis functions                  I               83
Number of independent functions            I               83
Number of point charges in /Mol/           I                0
Number of translation vectors              I                0
Atomic numbers                             I   N=           9
           7           7           6           6           6           1
           1           1           1
Nuclear charges                            R   N=           9
  7.00000000E+00  7.00000000E+00  6.00000000E+00  6.00000000E+00  6.00000000E+00
  1.00000000E+00  1.00000000E+00  1.00000000E+00  1.00000000E+00
Current cartesian coordinates              R   N=          27
 -1.92295209E+00 -7.11978762E-01  4.88254009E-05  7.21113391E-02 -2.29621968E+00
 -4.73757364E-05 -1.27733757E+00  1.77583298E+00  1.09530493E-05  1.33970937E+00
  1.82938091E+00 -9.71834641E-06  2.07563255E+00 -7.22794630E-01 -1.42091637E-05
 -2.68482042E+00  3.25653284E+00  4.11863617E-05  2.53270070E+00  3.48645863E+00
 -1.89286000E-05 -3.68069280E+00 -1.46547498E+00  7.65216276E-05  3.96067175E+00
 -1.51464295E+00 -3.10802763E-05
Force Field                                I                0
Int Atom Types                             I   N=           9
           0           0           0           0           0           0
           0           0           0
MM charges                                 R   N=           9
  0.00000000E+00  0.00000000E+00  0.00000000E+00  0.00000000E+00  0.00000000E+00
  0.00000000E+00  0.00000000E+00  0.00000000E+00  0.00000000E+00
Integer atomic weights                     I   N=           9
          14          14          12          12          12           1
           1           1           1
Real atomic weights                        R   N=           9
  1.40030740E+01  1.40030740E+01  1.20000000E+01  1.20000000E+01  1.20000000E+01
  1.00782504E+00  1.00782504E+00  1.00782504E+00  1.00782504E+00
Atom fragment info                         I   N=           9
           0           0           0           0           0           0
           0           0           0
Atom residue num                           I   N=           9
           0           0           0           0           0           0
           0           0           0
Nuclear spins                              I   N=           9
           2           2           0           0           0           1
           1           1           1
Nuclear ZEff                               R   N=           9
 -4.55000000E+00 -4.55000000E+00 -3.60000000E+00 -3.60000000E+00 -3.60000000E+00
 -1.00000000E+00 -1.00000000E+00 -1.00000000E+00 -1.00000000E+00
Nuclear QMom                               R   N=           9
  2.04400000E+00  2.04400000E+00  0.00000000E+00  0.00000000E+00  0.00000000E+00
  0.00000000E+00  0.00000000E+00  0.00000000E+00  0.00000000E+00
Nuclear GFac                               R   N=           9
  4.03761000E-01  4.03761000E-01  0.00000000E+00  0.00000000E+00  0.00000000E+00
  2.79284600E+00  2.79284600E+00  2.79284600E+00  2.79284600E+00
MicOpt                                     I   N=           9
          -1          -1          -1          -1          -1          -1
          -1          -1          -1
Number of contracted shells                I               28
Number of primitive shells                 I               71
Pure/Cartesian d shells                    I                1
Pure/Cartesian f shells                    I                0
Highest angular momentum                   I                2
Largest degree of contraction              I                6
Shell types                                I   N=          28
           0          -1          -1           2           0          -1
          -1           2           0          -1          -1           2
           0          -1          -1           2           0          -1
          -1           2           0           0           0           0
           0           0           0           0
Number of primitives per shell             I   N=          28
           6           3           1           1           6           3
           1           1           6           3           1           1
           6           3           1           1           6           3
           1           1           3           1           3           1
           3           1           3           1
Shell to atom map                          I   N=          28
           1           1           1           1           2           2
           2           2           3           3           3           3
           4           4           4           4           5           5
           5           5           6           6           7           7
           8           8           9           9
Primitive exponents                        R   N=          71
  4.17351146E+03  6.27457911E+02  1.42902093E+02  4.02343293E+01  1.28202129E+01
  4.39043701E+00  1.16263619E+01  2.71627981E+00  7.72218397E-01  2.12031498E-01
  8.00000000E-01  4.17351146E+03  6.27457911E+02  1.42902093E+02  4.02343293E+01
  1.28202129E+01  4.39043701E+00  1.16263619E+01  2.71627981E+00  7.72218397E-01
  2.12031498E-01  8.00000000E-01  3.04752488E+03  4.57369518E+02  1.03948685E+02
  2.92101553E+01  9.28666296E+00  3.16392696E+00  7.86827235E+00  1.88128854E+00
  5.44249258E-01  1.68714478E-01  8.00000000E-01  3.04752488E+03  4.57369518E+02
  1.03948685E+02  2.92101553E+01  9.28666296E+00  3.16392696E+00  7.86827235E+00
  1.88128854E+00  5.44249258E-01  1.68714478E-01  8.00000000E-01  3.04752488E+03
  4.57369518E+02  1.03948685E+02  2.92101553E+01  9.28666296E+00  3.16392696E+00
  7.86827235E+00  1.88128854E+00  5.44249258E-01  1.68714478E-01  8.00000000E-01
  1.87311370E+01  2.82539436E+00  6.40121692E-01  1.61277759E-01  1.87311370E+01
  2.82539436E+00  6.40121692E-01  1.61277759E-01  1.87311370E+01  2.82539436E+00
  6.40121692E-01  1.61277759E-01  1.87311370E+01  2.82539436E+00  6.40121692E-01
  1.61277759E-01
Contraction coefficients                   R   N=          71
  1.83477216E-03  1.39946270E-02  6.85865518E-02  2.32240873E-01  4.69069948E-01
  3.60455199E-01 -1.14961182E-01 -1.69117479E-01  1.14585195E+00  1.00000000E+00
  1.00000000E+00  1.83477216E-03  1.39946270E-02  6.85865518E-02  2.32240873E-01
  4.69069948E-01  3.60455199E-01 -1.14961182E-01 -1.69117479E-01  1.14585195E+00
  1.00000000E+00  1.00000000E+00  1.83473713E-03  1.40373228E-02  6.88426223E-02
  2.32184443E-01  4.67941348E-01  3.62311985E-01 -1.19332420E-01 -1.60854152E-01
  1.14345644E+00  1.00000000E+00  1.00000000E+00  1.83473713E-03  1.40373228E-02
  6.88426223E-02  2.32184443E-01  4.67941348E-01  3.62311985E-01 -1.19332420E-01
 -1.60854152E-01  1.14345644E+00  1.00000000E+00  1.00000000E+00  1.83473713E-03
  1.40373228E-02  6.88426223E-02  2.32184443E-01  4.67941348E-01  3.62311985E-01
 -1.19332420E-01 -1.60854152E-01  1.14345644E+00  1.00000000E+00  1.00000000E+00
  3.34946043E-02  2.34726953E-01  8.13757326E-01  1.00000000E+00  3.34946043E-02
  2.34726953E-01  8.13757326E-01  1.00000000E+00  3.34946043E-02  2.34726953E-01
  8.13757326E-01  1.00000000E+00  3.34946043E-02  2.34726953E-01  8.13757326E-01
  1.00000000E+00
P(S=P) Contraction coefficients            R   N=          71
  0.00000000E+00  0.00000000E+00  0.00000000E+00  0.00000000E+00  0.00000000E+00
  0.00000000E+00  6.75797439E-02  3.23907296E-01  7.40895140E-01  1.00000000E+00
  0.00000000E+00  0.00000000E+00  0.00000000E+00  0.00000000E+00  0.00000000E+00
  0.00000000E+00  0.00000000E+00  6.75797439E-02  3.23907296E-01  7.40895140E-01
  1.00000000E+00  0.00000000E+00  0.00000000E+00  0.00000000E+00  0.00000000E+00
  0.00000000E+00  0.00000000E+00  0.00000000E+00  6.89990666E-02  3.16423961E-01
  7.44308291E-01  1.00000000E+00  0.00000000E+00  0.00000000E+00  0.00000000E+00
  0.00000000E+00  0.00000000E+00  0.00000000E+00  0.00000000E+00  6.89990666E-02
  3.16423961E-01  7.44308291E-01  1.00000000E+00  0.00000000E+00  0.00000000E+00
  0.00000000E+00  0.00000000E+00  0.00000000E+00  0.00000000E+00  0.00000000E+00
  6.89990666E-02  3.16423961E-01  7.44308291E-01  1.00000000E+00  0.00000000E+00
  0.00000000E+00  0.00000000E+00  0.00000000E+00  0.00000000E+00  0.00000000E+00
  0.00000000E+00  0.00000000E+00  0.00000000E+00  0.00000000E+00  0.00000000E+00
  0.00000000E+00  0.00000000E+00  0.00000000E+00  0.00000000E+00  0.00000000E+00
  0.00000000E+00
Coordinates of each shell                  R   N=          84
 -1.92295209E+00 -7.11978762E-01  4.88254009E-05 -1.92295209E+00 -7.11978762E-01
  4.88254009E-05 -1.92295209E+00 -7.11978762E-01  4.88254009E-05 -1.92295209E+00
 -7.11978762E-01  4.88254009E-05  7.21113391E-02 -2.29621968E+00 -4.73757364E-05
  7.21113391E-02 -2.29621968E+00 -4.73757364E-05  7.21113391E-02 -2.29621968E+00
 -4.73757364E-05  7.21113391E-02 -2.29621968E+00 -4.73757364E-05 -1.27733757E+00
  1.77583298E+00  1.09530493E-05 -1.27733757E+00  1.77583298E+00  1.09530493E-05
 -1.27733757E+00  1.77583298E+00  1.09530493E-05 -1.27733757E+00  1.77583298E+00
  1.09530493E-05  1.33970937E+00  1.82938091E+00 -9.71834641E-06  1.33970937E+00
  1.82938091E+00 -9.71834641E-06  1.33970937E+00  1.82938091E+00 -9.71834641E-06
  1.33970937E+00  1.82938091E+00 -9.71834641E-06  2.07563255E+00 -7.22794630E-01
 -1.42091637E-05  2.07563255E+00 -7.22794630E-01 -1.42091637E-05  2.07563255E+00
 -7.22794630E-01 -1.42091637E-05  2.07563255E+00 -7.22794630E-01 -1.42091637E-05
 -2.68482042E+00  3.25653284E+00  4.11863617E-05 -2.68482042E+00  3.25653284E+00
  4.11863617E-05  2.53270070E+00  3.48645863E+00 -1.89286000E-05  2.53270070E+00
  3.48645863E+00 -1.89286000E-05 -3.68069280E+00 -1.46547498E+00  7.65216276E-05
 -3.68069280E+00 -1.46547498E+00  7.65216276E-05  3.96067175E+00 -1.51464295E+00
 -3.10802763E-05  3.96067175E+00 -1.51464295E+00 -3.10802763E-05
Constraint Structure                       R   N=          27
 -1.92295209E+00 -7.11978762E-01  4.88254009E-05  7.21113391E-02 -2.29621968E+00
 -4.73757364E-05 -1.27733757E+00  1.77583298E+00  1.09530493E-05  1.33970937E+00
  1.82938091E+00 -9.71834641E-06  2.07563255E+00 -7.22794630E-01 -1.42091637E-05
 -2.68482042E+00  3.25653284E+00  4.11863617E-05  2.53270070E+00  3.48645863E+00
 -1.89286000E-05 -3.68069280E+00 -1.46547498E+00  7.65216276E-05  3.96067175E+00
 -1.51464295E+00 -3.10802763E-05
Num ILSW                                   I              100
ILSW                                       I   N=         100
           0           1           0           0           2           0
           0           0           0           0           0          -1
           0           0           0           0           0           0
           0           0           0           0           1           0
           1           0           0           0           0           0
           0           0      100000           0          -1           0
           0           0           0           0           0           0
           0           0           0           1           1           0
           0           0           1           0           0           0
           0           0           4          40           0           0
           0           0           0           0           0           0
           0           0           0           0           0           0
           0           0           0           0           0           0
           0           0           0           0           0           0
           0           0           0           0           0           0
           0           0           0           0           0           0
           0           0           0           0
Num RLSW                                   I               40
RLSW                                       R   N=          40
  1.00000000E+00  1.00000000E+00  1.00000000E+00  1.00000000E+00  1.00000000E+00
  0.00000000E+00  0.00000000E+00  1.00000000E+00  0.00000000E+00  0.00000000E+00
  0.00000000E+00  0.00000000E+00  1.00000000E+00  0.00000000E+00  0.00000000E+00
  0.00000000E+00  0.00000000E+00  1.00000000E+00  0.00000000E+00  0.00000000E+00
  0.00000000E+00  0.00000000E+00  1.00000000E+00  0.00000000E+00  0.00000000E+00
  0.00000000E+00  0.00000000E+00  1.00000000E+00  0.00000000E+00  0.00000000E+00
  0.00000000E+00  0.00000000E+00  0.00000000E+00  0.00000000E+00  0.00000000E+00
  0.00000000E+00  0.00000000E+00  0.00000000E+00  1.00000000E+00  1.00000000E+00
MxBond                                     I                3
NBond                                      I   N=           9
           3           2           3           3           3           1
           1           1           1
IBond                                      I   N=          27
           2           3           8           1           5           0
           1           4           6           3           5           7
           2           4           9           3           0           0
           4           0           0           1           0           0
           5           0           0
RBond                                      R   N=          27
  1.50000000E+00  1.50000000E+00  1.00000000E+00  1.50000000E+00  1.50000000E+00
  0.00000000E+00  1.50000000E+00  1.50000000E+00  1.00000000E+00  1.50000000E+00
  1.50000000E+00  1.00000000E+00  1.50000000E+00  1.50000000E+00  1.00000000E+00
  1.00000000E+00  0.00000000E+00  0.00000000E+00  1.00000000E+00  0.00000000E+00
  0.00000000E+00  1.00000000E+00  0.00000000E+00  0.00000000E+00  1.00000000E+00
  0.00000000E+00  0.00000000E+00
Virial Ratio                               R      2.002986682125044E+00
SCF Energy                                 R     -2.247893527337766E+02
MP2 Energy                                 R     -2.255035364181744E+02
Total Energy                               R     -2.255035364181744E+02
Post-SCF wavefunction norm                 R      1.579833411397618E+00
RMS Force                                  R      2.215169845178728E-06
RMS Density                                R      7.900396345701680E-10
External E-field                           R   N=          35
  0.00000000E+00  0.00000000E+00  0.00000000E+00  0.00000000E+00  0.00000000E+00
  0.00000000E+00  0.00000000E+00  0.00000000E+00  0.00000000E+00  0.00000000E+00
  0.00000000E+00  0.00000000E+00  0.00000000E+00  0.00000000E+00  0.00000000E+00
  0.00000000E+00  0.00000000E+00  0.00000000E+00  0.00000000E+00  0.00000000E+00
  0.00000000E+00  0.00000000E+00  0.00000000E+00  0.00000000E+00  0.00000000E+00
  0.00000000E+00  0.00000000E+00  0.00000000E+00  0.00000000E+00  0.00000000E+00
  0.00000000E+00  0.00000000E+00  0.00000000E+00  0.00000000E+00  0.00000000E+00
IOpCl                                      I                0
IROHF                                      I                0
Alpha Orbital Energies                     R   N=          83
 -1.56435840E+01 -1.55872959E+01 -1.12785488E+01 -1.12506307E+01 -1.12216440E+01
 -1.36616784E+00 -1.08694243E+00 -1.04672765E+00 -8.19974843E-01 -7.93039301E-01
 -7.37242550E-01 -6.02685547E-01 -5.98037547E-01 -5.87023404E-01 -5.58246458E-01
 -4.54511905E-01 -3.57327949E-01 -3.38280796E-01  1.73572539E-01  2.24217257E-01
  2.43223591E-01  2.79085475E-01  3.02561442E-01  3.14379861E-01  4.01460782E-01
  4.10977269E-01  4.54690165E-01  5.79512965E-01  6.52510388E-01  7.41939598E-01
  7.74369072E-01  7.82603249E-01  8.27347197E-01  8.27611448E-01  8.75299297E-01
  8.94553322E-01  9.00258827E-01  9.49719522E-01  9.94902000E-01  1.04671770E+00
  1.06937191E+00  1.08942961E+00  1.09585366E+00  1.11846458E+00  1.16384385E+00
  1.17914364E+00  1.21265241E+00  1.26417511E+00  1.39447827E+00  1.46144442E+00
  1.56561989E+00  1.59576800E+00  1.62800924E+00  1.65242541E+00  1.71196391E+00
  1.75763382E+00  1.82863321E+00  1.85638846E+00  2.08058745E+00  2.16770069E+00
  2.24191118E+00  2.37513696E+00  2.41380622E+00  2.43594878E+00  2.53186622E+00
  2.55515154E+00  2.57617703E+00  2.63588584E+00  2.65308480E+00  2.73695065E+00
  2.92179488E+00  2.93382356E+00  2.96414266E+00  3.03840618E+00  3.07716986E+00
  3.30238734E+00  3.32681130E+00  3.41726252E+00  4.17032594E+00  4.37720031E+00
  4.51214606E+00  4.66364993E+00  4.84293379E+00
Alpha MO coefficients                      R   N=        6889
  9.94969891E-01  2.50611678E-02  2.38975022E-04 -6.98632222E-05 -5.85304897E-08
 -3.11911479E-03 -1.08748295E-03 -4.98553031E-04  7.13392567E-08 -3.38681716E-03
 -3.42406657E-03 -3.38367107E-03  3.60791585E-05  6.87735687E-09 -3.32489529E-10
  6.46831762E-03  3.11663388E-04 -2.15400260E-04  1.54718722E-04  7.49219709E-09
  1.00112351E-03 -2.84366737E-04  3.52782187E-04  1.02271690E-08 -1.74248009E-04
 -1.26266197E-04 -5.67921951E-05  3.61375876E-05  7.35351950E-09 -2.64774272E-09
  1.38665389E-05  1.13487929E-04 -9.99848067E-05 -2.19898246E-04  3.83107637E-09
  2.61128303E-03  9.30502394E-04 -1.44662387E-03 -1.15548583E-08 -6.23429462E-05
 -9.58632315E-05 -8.13655720E-05  2.93052356E-07  2.28489005E-09 -6.96668088E-11
  2.06009005E-05  5.32133100E-05  5.14475256E-05 -1.65132308E-05 -1.92955097E-09
 -1.88931892E-03  7.59605762E-04  9.23231811E-04 -1.28981163E-09  2.22278088E-05
  3.40257472E-05  2.55319943E-05  1.61657736E-05 -1.56503788E-09 -8.78152353E-10
 -1.26788357E-05 -1.40894312E-04  4.57618258E-05  4.77519129E-05 -1.77177431E-09
  7.10725639E-04 -4.80086400E-04  3.71494398E-04  8.95070433E-09  6.40800708E-05
  3.17149550E-05 -3.87567175E-05 -1.54254525E-05 -3.09887068E-09  2.17639329E-09
  2.64261287E-05  4.32004482E-04 -4.73913722E-05 -2.93381836E-04  1.36537141E-04
  1.03195353E-04  9.24419872E-06  2.21431620E-04 -6.63355078E-03  1.84959681E-04
  1.24278526E-04 -9.66146992E-05 -2.43549903E-09  1.24248983E-03 -7.17172788E-05
 -1.98890445E-04 -6.69588138E-09 -4.43771238E-04 -2.66929186E-04  3.12259522E-05
  3.52536542E-04  2.34139530E-08 -2.09066166E-08  9.95237121E-01  2.43404667E-02
 -3.01358218E-04  2.27625087E-03  7.93108928E-08 -4.04097558E-03 -1.50551049E-04
 -2.27490520E-03 -6.88123927E-08 -2.75187683E-03 -2.72465094E-03 -3.08355540E-03
  4.38570036E-05 -3.33004340E-09  6.35816956E-09 -2.02082051E-05 -1.97518901E-04
  1.40780367E-06  7.87303583E-05  4.31376526E-09  1.10816612E-03  9.48617091E-04
 -5.84735690E-04 -1.95011362E-08  6.89077177E-05  4.73285216E-05 -6.81246955E-05
 -7.85845712E-06 -5.65216592E-09  7.26132928E-10  2.14144366E-05  4.73602203E-05
 -1.39361217E-05  7.13969376E-05  2.38527408E-09 -2.57409363E-03  8.40682041E-04
  1.20930863E-03 -8.64084542E-09  2.39291236E-05  2.56078767E-05  1.57499697E-05
  2.94821188E-05  9.37480398E-10  2.12488485E-09  4.34699267E-06  2.68202964E-04
 -1.26014005E-05 -5.86581271E-05 -1.92894287E-11  3.53180219E-03 -1.98536965E-03
  5.16759583E-04  1.47225251E-09 -4.04545242E-04 -2.15257621E-04 -9.95467173E-05
 -2.49081281E-04 -3.25857730E-09 -6.73928432E-09  4.44332529E-05  4.03737737E-04
 -4.44057101E-05 -3.34571349E-04 -8.95937628E-05 -2.40616879E-04  3.99127474E-05
  4.29063332E-04 -3.01048853E-04  2.87814267E-04  1.34177242E-05 -1.18018914E-05
  1.73586262E-09  7.51338238E-04 -1.07455767E-03 -8.82640641E-04  4.36566238E-08
 -2.87681745E-04 -6.97493964E-04  1.10341919E-04 -1.72851569E-04  1.87764218E-08
  1.25397281E-08  9.81767781E-07 -1.21743293E-04 -9.46067442E-05  4.66629576E-05
  8.05231749E-09  3.76805005E-04  3.74265846E-04  3.56399207E-04 -2.28335861E-08
  2.08683040E-05  1.51591224E-04 -4.48112220E-05 -7.64705752E-05  1.13955934E-10
  1.93765930E-09  9.95566347E-01  2.71050048E-02 -2.48893846E-04 -9.40703449E-04
  3.56730283E-08 -8.87415829E-03 -4.24535115E-04 -6.72047398E-04 -2.68080160E-08
 -1.65056343E-03 -1.46034659E-03 -2.48215374E-03 -1.03987534E-04 -1.26241679E-08
 -1.91946170E-09  1.07468925E-02  1.87333110E-04  1.78974638E-04  8.90167030E-05
 -1.31835191E-09  2.23896669E-03 -1.23531511E-03  8.43867920E-04  1.56218871E-08
 -3.61364840E-04 -3.42799375E-04 -1.01746918E-04 -8.78854769E-05  6.12473538E-11
  1.52601930E-09 -1.41731039E-04 -2.40416578E-04  4.76809065E-05  6.10737959E-05
 -2.91192575E-10  4.73855523E-04 -5.60541346E-04  7.65510425E-04  2.38922142E-08
  4.30761458E-05  7.01905608E-05 -5.40056325E-05 -1.09378261E-04 -6.10631155E-09
 -1.16037621E-09 -2.75245298E-04  2.15531944E-03 -7.92030911E-05 -2.68007418E-04
 -1.89973953E-04 -5.48215453E-04  2.82688108E-05  4.33648787E-04  1.81883167E-05
  2.00221840E-05  9.67656325E-05 -5.00409335E-05 -9.09951880E-09 -3.28546075E-04
 -6.65003521E-06  1.11230166E-04  3.41777117E-08  8.99531073E-05  1.67596297E-05
  4.89853404E-05 -7.49570615E-05  3.39616802E-09  8.66609778E-10 -3.25243438E-04
  1.78860750E-04  4.79867489E-06 -1.35705158E-05 -7.45579204E-10  1.05036159E-03
 -2.05590116E-04 -1.94641309E-04 -2.79274118E-08 -4.15996184E-04 -3.56253326E-04
  1.10506418E-04 -1.45760430E-04 -6.76911144E-10 -1.69383380E-08 -1.21854153E-04
 -2.14214593E-04  4.02086434E-05  7.44887594E-06  5.41427519E-10  9.15098583E-04
  7.49991431E-04 -4.64942162E-04 -2.01862201E-08  1.12237079E-04  2.36475122E-05
 -4.85200211E-05 -6.90930197E-05 -5.31432637E-10  3.90458169E-09  1.87812133E-02
  5.33909602E-04 -1.52831871E-07  1.88279157E-04  3.74492360E-10  2.33420123E-03
  1.23939208E-03 -7.64303639E-04 -1.45251801E-08 -3.37875502E-04 -5.27155651E-04
 -1.17979863E-04  1.58043986E-05 -1.67155815E-10  7.38617647E-10  9.95430439E-01
  2.71946490E-02 -5.06247085E-04 -8.78008377E-05 -2.33900659E-08 -9.37246203E-03
 -1.29376239E-04 -9.37893543E-04  2.82206148E-08 -1.60495935E-03 -1.66551421E-03
 -2.49900203E-03  3.26528527E-05 -1.67166649E-09  7.27896613E-09  1.05108874E-05
  3.68778143E-04 -1.11787075E-04 -3.65515122E-04  5.38138504E-05 -1.21089122E-05
 -2.45774754E-04  1.95713842E-03  6.74288922E-05  1.51477345E-04  1.02066869E-04
  2.73499305E-05 -3.35478241E-09 -1.86015682E-03 -6.37740653E-04 -7.27352966E-04
  2.23855786E-08  1.72390093E-04  1.55427762E-04  1.27859447E-04  5.73325757E-05
  2.93168451E-09 -2.64338604E-09  5.41244876E-05  8.43564088E-05 -4.64802421E-05
  6.41916104E-05  3.69337929E-09 -1.38410403E-03 -1.92518573E-04 -4.57689891E-04
 -1.67584297E-08  1.09069914E-04  1.90646024E-04  8.35987338E-05  2.24804956E-05
  4.34620650E-09 -1.43188790E-09 -1.12737351E-02 -4.92926323E-04 -2.00473070E-04
  7.88662299E-05  1.56871737E-09  6.75998919E-03  2.69644998E-03 -1.41647622E-03
 -1.75452496E-08 -4.79682913E-04 -2.63427440E-04 -1.08805523E-04  4.97791772E-05
  3.07586836E-09 -7.27536230E-10  9.95399541E-01  2.80027563E-02 -3.21973701E-04
 -3.27070290E-04  1.30633203E-09 -1.56045518E-02  2.29311757E-03  2.98135792E-03
 -1.74232512E-08 -1.70471599E-03 -1.67870923E-03 -2.35835362E-03  1.27925405E-04
 -9.82327501E-09  1.07379477E-09 -1.92614789E-02 -6.99735276E-04  1.47736717E-04
 -1.17076936E-04  1.11265535E-09  6.27961592E-03 -1.90806053E-03  2.04693450E-03
  7.79932333E-09 -2.84232843E-04 -4.23624436E-04 -1.02674697E-04  1.08379399E-04
  3.86118930E-10  4.78444402E-10 -3.13258902E-06  4.11870381E-04 -3.53646909E-04
  1.10007750E-03 -7.50420263E-05 -1.07475563E-04 -9.44926346E-06  3.31554478E-04
 -1.51141144E-01  3.16213709E-01  8.03738047E-02 -1.10822891E-02 -4.28936026E-06
  2.90284575E-01  4.01673355E-02  2.01438743E-02 -1.99814135E-06  1.97307248E-02
  1.04121688E-02 -1.24593318E-02 -2.84585629E-03 -1.32687945E-06  3.07791660E-07
 -1.18433034E-01  2.46214511E-01 -4.14740595E-02  1.09805242E-01  4.17037020E-06
  1.94445291E-01  3.35923744E-04  3.97249024E-02  1.34498784E-06  8.54042964E-03
  1.12846334E-02 -1.15269454E-02 -9.03439337E-03 -7.19649166E-07  1.00275902E-06
 -6.66193057E-02  1.30537131E-01  7.41874250E-03 -8.36572566E-02  5.41990951E-07
 -1.43491882E-02 -3.08598440E-02  3.82996665E-02  3.66291477E-07 -9.94414833E-04
  1.36327704E-02 -7.19483947E-03  2.19430525E-03 -1.23077703E-07 -2.18926389E-07
 -3.86794016E-02  6.73697291E-02 -2.96970630E-02 -3.51490773E-02  2.63757751E-07
  9.67158939E-02 -2.89842343E-02 -3.46801764E-02  1.74703644E-07  4.13676973E-03
  3.71834106E-03 -4.53515868E-03  1.18197824E-03 -6.59644575E-08 -2.10182821E-08
 -5.93009536E-02  1.15314292E-01 -7.58257589E-02 -1.67691544E-02 -2.84627060E-07
 -3.18154823E-03  3.14189217E-02 -9.65960218E-03 -2.27636280E-07  1.18387026E-02
  1.84741115E-03 -6.28636414E-03  6.20910677E-03  1.41124679E-07  1.20236057E-07
  1.53175893E-02 -1.78865305E-02  8.03765923E-03  9.23208647E-03  6.45426395E-02
  3.79271394E-03  1.20338773E-02 -1.23120227E-02 -1.09551842E-01  2.35953027E-01
 -1.16468305E-01  1.10703010E-01  2.17749689E-06  2.88229122E-01 -4.57794406E-02
  4.70323867E-02  5.17278610E-07 -1.56416868E-03  1.04487190E-02 -4.52116778E-03
  1.60024758E-02  2.71999795E-07 -6.32265448E-07  1.13353082E-01 -2.41348648E-01
 -1.20756705E-01 -6.07523605E-02 -5.17278081E-07 -2.64753498E-01 -4.25172688E-02
 -3.84073914E-02 -5.75078257E-07 -1.12773841E-03 -2.98002466E-03  6.82529144E-03
 -1.74023187E-02 -4.16314634E-07 -1.69390211E-07 -7.85616038E-02  1.54887608E-01
 -6.41781915E-02 -7.57231393E-02  2.22096945E-06  8.27335699E-02 -5.24011414E-03
  1.40686889E-02 -9.25775510E-08 -1.87790998E-03  1.43648627E-02 -8.03780600E-03
  7.32883299E-03 -2.40879628E-07 -3.61024711E-07  2.31303530E-02 -4.43799431E-02
 -4.65114844E-02  5.41831753E-02  7.62100022E-07 -2.65491459E-02  1.70234792E-03
 -1.19626426E-03  2.10598295E-07  6.46996847E-03 -1.00899032E-02  2.01460799E-03
  2.80125431E-03 -7.70221326E-08 -5.04037326E-08  1.14996008E-01 -2.24136216E-01
  7.92864519E-02  5.69705483E-02  1.69208562E-06 -1.27107392E-01 -1.32424194E-02
 -8.26917723E-03 -8.89878936E-08 -1.20836127E-02 -5.83155255E-03  1.13391967E-02
 -9.82944839E-03 -2.65515224E-07 -2.80670152E-07  4.71640500E-02  6.20031312E-03
 -9.22958982E-03 -8.12398895E-04  1.01894578E-01  4.77346624E-03 -5.46605666E-02
 -4.94039004E-03  5.06700079E-02 -1.12429274E-01  1.44433098E-02  1.69870863E-01
  1.71423556E-06 -1.21432013E-01  1.56616140E-02  6.38401003E-02  4.39949856E-07
 -1.11629551E-02  2.67903940E-03  2.66836908E-03  1.04275779E-02  5.63817362E-07
 -6.95341944E-07  6.87091825E-02 -1.50363672E-01  8.51145235E-02 -4.28490205E-03
 -2.77383650E-06 -1.53975771E-01  1.75022681E-02 -7.11869801E-03 -7.87710392E-07
 -8.27345050E-03  3.82341550E-03  3.40863956E-03  1.15810733E-02  6.57301514E-07
 -3.87011006E-07 -1.16457926E-01  2.28192466E-01  1.03302829E-01  3.63196070E-03
 -1.79974631E-07  1.66826327E-01  1.88546877E-02  4.49138959E-03 -2.28985976E-07
  1.71665438E-02 -4.28928805E-04 -1.03361910E-02 -5.53952999E-03 -3.80947304E-07
 -4.56836517E-08 -1.46254172E-01  2.78671747E-01 -6.67706802E-02 -4.47573102E-02
  7.29661533E-07  1.94110171E-01  2.12466769E-03  3.83830193E-03  1.17641007E-07
  1.17931507E-02  8.00062100E-03 -1.14779531E-02  2.95373655E-03 -2.15081643E-07
 -5.26769217E-08 -6.14905229E-02  1.19326318E-01  2.43715625E-04  1.14933188E-01
  4.12990048E-07  9.94653744E-02 -1.19855142E-02  1.62105308E-02 -4.65087023E-08
 -2.40679279E-03  1.15580309E-02 -5.35050077E-03 -1.29195997E-02 -7.44738536E-08
  1.32628442E-07  5.66180852E-02  1.15619730E-02  6.96737115E-02  8.15387191E-03
 -6.82883355E-02 -3.44938316E-03  2.63675761E-02  7.53547980E-03  4.50929031E-02
 -9.97260506E-02  2.39590830E-01  1.66557124E-01 -6.79031342E-06 -1.32871383E-01
  1.45401314E-01  8.84550740E-02 -3.85774988E-06 -1.60151671E-02  7.40022701E-03
  1.97157232E-03 -1.26395710E-02 -1.93720392E-07  5.36847489E-09 -4.98419549E-02
  1.07701743E-01  5.28634414E-02  4.06539472E-02 -9.23544842E-07  1.32272129E-01
  1.60286932E-02  1.49624997E-02 -3.36282126E-07 -8.03999377E-03  7.00730686E-03
 -3.83432435E-03  1.80471207E-03  3.53132284E-07  1.55537136E-07 -9.17652714E-02
  1.87887971E-01 -3.67563021E-02 -1.84165931E-03  7.71698374E-07  1.34252913E-01
 -4.74239907E-02  3.97402971E-02  5.36423953E-07 -2.60254786E-04  1.27133364E-02
 -8.30813023E-03 -9.94643647E-03 -2.14778871E-07  1.35670252E-07  7.65979009E-02
 -1.51086846E-01 -1.65395871E-01  4.24215614E-02  1.12331743E-06 -1.11145878E-01
 -6.08409434E-02 -1.58494581E-02  2.95177697E-07  5.61959080E-03 -1.69093304E-02
  4.88508489E-03 -5.70427149E-04  2.59113901E-08  9.24773941E-08  6.84552822E-02
 -1.36697219E-01 -1.23778998E-01 -1.41224521E-01 -9.53823212E-07 -1.58252960E-01
 -2.63635575E-02 -3.75473236E-02 -4.47914597E-07  2.03477352E-03 -9.27923539E-03
  3.40893371E-03  1.43476014E-02  4.02373205E-07  1.11653964E-07  9.28516523E-02
  2.20922766E-02 -9.42854422E-02 -3.46658142E-02 -1.83540878E-01 -4.58112725E-02
 -8.71271243E-02 -3.94207384E-02 -8.57975697E-03  1.81494169E-02 -1.66526501E-01
  2.25959042E-01  6.81499664E-06  2.14145025E-02 -1.00214883E-01  1.14159425E-01
  4.04441493E-06 -2.86887342E-03  5.23438111E-04  1.99810934E-03  1.19915030E-02
  8.41266418E-07 -1.00510767E-06  2.42579809E-02 -5.79628131E-02  2.38972966E-01
 -1.01069485E-02 -3.74292760E-06 -2.18587472E-02  7.74717044E-02  1.10463812E-02
 -3.86857607E-07 -1.49439192E-03 -3.58670879E-03  2.89441393E-03  2.34986014E-02
  1.08290588E-06 -5.77354549E-07 -2.18718807E-02  4.32733281E-02 -2.05347298E-01
 -7.36188792E-02  4.40350216E-06  2.19727681E-02 -4.72122520E-02 -8.61655960E-03
  6.27680077E-07 -6.95646367E-03  1.50686431E-02 -4.07610828E-03  3.25448588E-03
 -2.54891538E-07 -4.38197323E-07  8.62854623E-02 -1.66616248E-01  4.75108263E-02