opt=Tight                                                               
Freq      RMP2-FC                                                     6-31G(d)            
Number of atoms                            I               22
Info1-9                                    I   N=           9
          31          31        1002           0           0         100
           6           2           1
Charge                                     I                0
Multiplicity                               I                1
Number of electrons                        I               74
Number of alpha electrons                  I               37
Number of beta electrons                   I               37
Number of basis functions                  I              152
Number of independent functions            I              152
Number of point charges in /Mol/           I                0
Number of translation vectors              I                0
Atomic numbers                             I   N=          22
          16           8           6           6           6           6
           6           6           1           1           1           1
           1           1           1           1           1           1
           1           1           1           1
Nuclear charges                            R   N=          22
  1.60000000E+01  8.00000000E+00  6.00000000E+00  6.00000000E+00  6.00000000E+00
  6.00000000E+00  6.00000000E+00  6.00000000E+00  1.00000000E+00  1.00000000E+00
  1.00000000E+00  1.00000000E+00  1.00000000E+00  1.00000000E+00  1.00000000E+00
  1.00000000E+00  1.00000000E+00  1.00000000E+00  1.00000000E+00  1.00000000E+00
  1.00000000E+00  1.00000000E+00
Current cartesian coordinates              R   N=          66
  1.41842844E-02 -1.13714648E+00 -8.78320140E-01 -4.83070691E-01 -3.34538595E+00
  8.94919494E-01  2.67941245E+00  6.05970920E-01  4.69398523E-01 -2.56998219E+00
  1.11848732E+00 -3.21892170E-01  3.16904427E+00  3.04633490E+00 -9.77638476E-01
  4.93171089E+00 -1.19307670E+00  3.99497553E-01 -2.84748091E+00  1.72752338E+00
  2.47531069E+00 -4.93958348E+00 -1.56875615E-01 -1.36481879E+00  2.18654920E+00
  9.84142914E-01  2.44324392E+00 -2.13159596E+00  2.80501499E+00 -1.44074610E+00
  4.95384903E+00  3.87590956E+00 -3.43684492E-01  3.33550268E+00  2.67862821E+00
 -3.00789598E+00  1.68479856E+00  4.45213619E+00 -6.86507268E-01  4.47630201E+00
 -2.95371187E+00  1.37517071E+00  6.55619695E+00 -3.15419858E-01  1.32963587E+00
  5.46152017E+00 -1.63472649E+00 -1.55145949E+00 -4.67412988E+00  2.63137939E+00
  2.82357777E+00 -2.76994356E+00 -3.29965080E-02  3.55767023E+00 -1.37313737E+00
  3.00133296E+00  3.15970146E+00 -4.73888890E+00 -6.09056843E-01 -3.37241093E+00
 -6.56890914E+00  1.09447079E+00 -1.13894361E+00 -5.29924372E+00 -1.90985550E+00
 -3.32744867E-01
Force Field                                I                0
Int Atom Types                             I   N=          22
           0           0           0           0           0           0
           0           0           0           0           0           0
           0           0           0           0           0           0
           0           0           0           0
MM charges                                 R   N=          22
  0.00000000E+00  0.00000000E+00  0.00000000E+00  0.00000000E+00  0.00000000E+00
  0.00000000E+00  0.00000000E+00  0.00000000E+00  0.00000000E+00  0.00000000E+00
  0.00000000E+00  0.00000000E+00  0.00000000E+00  0.00000000E+00  0.00000000E+00
  0.00000000E+00  0.00000000E+00  0.00000000E+00  0.00000000E+00  0.00000000E+00
  0.00000000E+00  0.00000000E+00
Integer atomic weights                     I   N=          22
          32          16          12          12          12          12
          12          12           1           1           1           1
           1           1           1           1           1           1
           1           1           1           1
Real atomic weights                        R   N=          22
  3.19720718E+01  1.59949146E+01  1.20000000E+01  1.20000000E+01  1.20000000E+01
  1.20000000E+01  1.20000000E+01  1.20000000E+01  1.00782504E+00  1.00782504E+00
  1.00782504E+00  1.00782504E+00  1.00782504E+00  1.00782504E+00  1.00782504E+00
  1.00782504E+00  1.00782504E+00  1.00782504E+00  1.00782504E+00  1.00782504E+00
  1.00782504E+00  1.00782504E+00
Atom fragment info                         I   N=          22
           0           0           0           0           0           0
           0           0           0           0           0           0
           0           0           0           0           0           0
           0           0           0           0
Atom residue num                           I   N=          22
           0           0           0           0           0           0
           0           0           0           0           0           0
           0           0           0           0           0           0
           0           0           0           0
Nuclear spins                              I   N=          22
           0           0           0           0           0           0
           0           0           1           1           1           1
           1           1           1           1           1           1
           1           1           1           1
Nuclear ZEff                               R   N=          22
 -1.36000000E+01 -5.60000000E+00 -3.60000000E+00 -3.60000000E+00 -3.60000000E+00
 -3.60000000E+00 -3.60000000E+00 -3.60000000E+00 -1.00000000E+00 -1.00000000E+00
 -1.00000000E+00 -1.00000000E+00 -1.00000000E+00 -1.00000000E+00 -1.00000000E+00
 -1.00000000E+00 -1.00000000E+00 -1.00000000E+00 -1.00000000E+00 -1.00000000E+00
 -1.00000000E+00 -1.00000000E+00
Nuclear QMom                               R   N=          22
  0.00000000E+00  0.00000000E+00  0.00000000E+00  0.00000000E+00  0.00000000E+00
  0.00000000E+00  0.00000000E+00  0.00000000E+00  0.00000000E+00  0.00000000E+00
  0.00000000E+00  0.00000000E+00  0.00000000E+00  0.00000000E+00  0.00000000E+00
  0.00000000E+00  0.00000000E+00  0.00000000E+00  0.00000000E+00  0.00000000E+00
  0.00000000E+00  0.00000000E+00
Nuclear GFac                               R   N=          22
  0.00000000E+00  0.00000000E+00  0.00000000E+00  0.00000000E+00  0.00000000E+00
  0.00000000E+00  0.00000000E+00  0.00000000E+00  2.79284600E+00  2.79284600E+00
  2.79284600E+00  2.79284600E+00  2.79284600E+00  2.79284600E+00  2.79284600E+00
  2.79284600E+00  2.79284600E+00  2.79284600E+00  2.79284600E+00  2.79284600E+00
  2.79284600E+00  2.79284600E+00
MicOpt                                     I   N=          22
          -1          -1          -1          -1          -1          -1
          -1          -1          -1          -1          -1          -1
          -1          -1          -1          -1          -1          -1
          -1          -1          -1          -1
Number of contracted shells                I               61
Number of primitive shells                 I              150
Pure/Cartesian d shells                    I                1
Pure/Cartesian f shells                    I                0
Highest angular momentum                   I                2
Largest degree of contraction              I                6
Shell types                                I   N=          61
           0          -1          -1          -1           2           0
          -1          -1           2           0          -1          -1
           2           0          -1          -1           2           0
          -1          -1           2           0          -1          -1
           2           0          -1          -1           2           0
          -1          -1           2           0           0           0
           0           0           0           0           0           0
           0           0           0           0           0           0
           0           0           0           0           0           0
           0           0           0           0           0           0
           0
Number of primitives per shell             I   N=          61
           6           6           3           1           1           6
           3           1           1           6           3           1
           1           6           3           1           1           6
           3           1           1           6           3           1
           1           6           3           1           1           6
           3           1           1           3           1           3
           1           3           1           3           1           3
           1           3           1           3           1           3
           1           3           1           3           1           3
           1           3           1           3           1           3
           1
Shell to atom map                          I   N=          61
           1           1           1           1           1           2
           2           2           2           3           3           3
           3           4           4           4           4           5
           5           5           5           6           6           6
           6           7           7           7           7           8
           8           8           8           9           9          10
          10          11          11          12          12          13
          13          14          14          15          15          16
          16          17          17          18          18          19
          19          20          20          21          21          22
          22
Primitive exponents                        R   N=         150
  2.19171000E+04  3.30149000E+03  7.54146000E+02  2.12711000E+02  6.79896000E+01
  2.30515000E+01  4.23735000E+02  1.00710000E+02  3.21599000E+01  1.18079000E+01
  4.63110000E+00  1.87025000E+00  2.61584000E+00  9.22167000E-01  3.41287000E-01
  1.17167000E-01  6.50000000E-01  5.48467166E+03  8.25234946E+02  1.88046958E+02
  5.29645000E+01  1.68975704E+01  5.79963534E+00  1.55396162E+01  3.59993359E+00
  1.01376175E+00  2.70005823E-01  8.00000000E-01  3.04752488E+03  4.57369518E+02
  1.03948685E+02  2.92101553E+01  9.28666296E+00  3.16392696E+00  7.86827235E+00
  1.88128854E+00  5.44249258E-01  1.68714478E-01  8.00000000E-01  3.04752488E+03
  4.57369518E+02  1.03948685E+02  2.92101553E+01  9.28666296E+00  3.16392696E+00
  7.86827235E+00  1.88128854E+00  5.44249258E-01  1.68714478E-01  8.00000000E-01
  3.04752488E+03  4.57369518E+02  1.03948685E+02  2.92101553E+01  9.28666296E+00
  3.16392696E+00  7.86827235E+00  1.88128854E+00  5.44249258E-01  1.68714478E-01
  8.00000000E-01  3.04752488E+03  4.57369518E+02  1.03948685E+02  2.92101553E+01
  9.28666296E+00  3.16392696E+00  7.86827235E+00  1.88128854E+00  5.44249258E-01
  1.68714478E-01  8.00000000E-01  3.04752488E+03  4.57369518E+02  1.03948685E+02
  2.92101553E+01  9.28666296E+00  3.16392696E+00  7.86827235E+00  1.88128854E+00
  5.44249258E-01  1.68714478E-01  8.00000000E-01  3.04752488E+03  4.57369518E+02
  1.03948685E+02  2.92101553E+01  9.28666296E+00  3.16392696E+00  7.86827235E+00
  1.88128854E+00  5.44249258E-01  1.68714478E-01  8.00000000E-01  1.87311370E+01
  2.82539436E+00  6.40121692E-01  1.61277759E-01  1.87311370E+01  2.82539436E+00
  6.40121692E-01  1.61277759E-01  1.87311370E+01  2.82539436E+00  6.40121692E-01
  1.61277759E-01  1.87311370E+01  2.82539436E+00  6.40121692E-01  1.61277759E-01
  1.87311370E+01  2.82539436E+00  6.40121692E-01  1.61277759E-01  1.87311370E+01
  2.82539436E+00  6.40121692E-01  1.61277759E-01  1.87311370E+01  2.82539436E+00
  6.40121692E-01  1.61277759E-01  1.87311370E+01  2.82539436E+00  6.40121692E-01
  1.61277759E-01  1.87311370E+01  2.82539436E+00  6.40121692E-01  1.61277759E-01
  1.87311370E+01  2.82539436E+00  6.40121692E-01  1.61277759E-01  1.87311370E+01
  2.82539436E+00  6.40121692E-01  1.61277759E-01  1.87311370E+01  2.82539436E+00
  6.40121692E-01  1.61277759E-01  1.87311370E+01  2.82539436E+00  6.40121692E-01
  1.61277759E-01  1.87311370E+01  2.82539436E+00  6.40121692E-01  1.61277759E-01
Contraction coefficients                   R   N=         150
  1.86924085E-03  1.42303065E-02  6.96962317E-02  2.38487108E-01  4.83307220E-01
  3.38074154E-01 -2.37677050E-03 -3.16930067E-02 -1.13317024E-01  5.60900118E-02
  5.92255124E-01  4.55006095E-01 -2.50373114E-01  6.69567631E-02  1.05450627E+00
  1.00000000E+00  1.00000000E+00  1.83107443E-03  1.39501722E-02  6.84450781E-02
  2.32714336E-01  4.70192898E-01  3.58520853E-01 -1.10777550E-01 -1.48026263E-01
  1.13076702E+00  1.00000000E+00  1.00000000E+00  1.83473713E-03  1.40373228E-02
  6.88426223E-02  2.32184443E-01  4.67941348E-01  3.62311985E-01 -1.19332420E-01
 -1.60854152E-01  1.14345644E+00  1.00000000E+00  1.00000000E+00  1.83473713E-03
  1.40373228E-02  6.88426223E-02  2.32184443E-01  4.67941348E-01  3.62311985E-01
 -1.19332420E-01 -1.60854152E-01  1.14345644E+00  1.00000000E+00  1.00000000E+00
  1.83473713E-03  1.40373228E-02  6.88426223E-02  2.32184443E-01  4.67941348E-01
  3.62311985E-01 -1.19332420E-01 -1.60854152E-01  1.14345644E+00  1.00000000E+00
  1.00000000E+00  1.83473713E-03  1.40373228E-02  6.88426223E-02  2.32184443E-01
  4.67941348E-01  3.62311985E-01 -1.19332420E-01 -1.60854152E-01  1.14345644E+00
  1.00000000E+00  1.00000000E+00  1.83473713E-03  1.40373228E-02  6.88426223E-02
  2.32184443E-01  4.67941348E-01  3.62311985E-01 -1.19332420E-01 -1.60854152E-01
  1.14345644E+00  1.00000000E+00  1.00000000E+00  1.83473713E-03  1.40373228E-02
  6.88426223E-02  2.32184443E-01  4.67941348E-01  3.62311985E-01 -1.19332420E-01
 -1.60854152E-01  1.14345644E+00  1.00000000E+00  1.00000000E+00  3.34946043E-02
  2.34726953E-01  8.13757326E-01  1.00000000E+00  3.34946043E-02  2.34726953E-01
  8.13757326E-01  1.00000000E+00  3.34946043E-02  2.34726953E-01  8.13757326E-01
  1.00000000E+00  3.34946043E-02  2.34726953E-01  8.13757326E-01  1.00000000E+00
  3.34946043E-02  2.34726953E-01  8.13757326E-01  1.00000000E+00  3.34946043E-02
  2.34726953E-01  8.13757326E-01  1.00000000E+00  3.34946043E-02  2.34726953E-01
  8.13757326E-01  1.00000000E+00  3.34946043E-02  2.34726953E-01  8.13757326E-01
  1.00000000E+00  3.34946043E-02  2.34726953E-01  8.13757326E-01  1.00000000E+00
  3.34946043E-02  2.34726953E-01  8.13757326E-01  1.00000000E+00  3.34946043E-02
  2.34726953E-01  8.13757326E-01  1.00000000E+00  3.34946043E-02  2.34726953E-01
  8.13757326E-01  1.00000000E+00  3.34946043E-02  2.34726953E-01  8.13757326E-01
  1.00000000E+00  3.34946043E-02  2.34726953E-01  8.13757326E-01  1.00000000E+00
P(S=P) Contraction coefficients            R   N=         150
  0.00000000E+00  0.00000000E+00  0.00000000E+00  0.00000000E+00  0.00000000E+00
  0.00000000E+00  4.06100998E-03  3.06812999E-02  1.30451999E-01  3.27204999E-01
  4.52850998E-01  2.56041999E-01 -1.45104895E-02  3.10262776E-01  7.54482456E-01
  1.00000000E+00  0.00000000E+00  0.00000000E+00  0.00000000E+00  0.00000000E+00
  0.00000000E+00  0.00000000E+00  0.00000000E+00  7.08742682E-02  3.39752839E-01
  7.27158577E-01  1.00000000E+00  0.00000000E+00  0.00000000E+00  0.00000000E+00
  0.00000000E+00  0.00000000E+00  0.00000000E+00  0.00000000E+00  6.89990666E-02
  3.16423961E-01  7.44308291E-01  1.00000000E+00  0.00000000E+00  0.00000000E+00
  0.00000000E+00  0.00000000E+00  0.00000000E+00  0.00000000E+00  0.00000000E+00
  6.89990666E-02  3.16423961E-01  7.44308291E-01  1.00000000E+00  0.00000000E+00
  0.00000000E+00  0.00000000E+00  0.00000000E+00  0.00000000E+00  0.00000000E+00
  0.00000000E+00  6.89990666E-02  3.16423961E-01  7.44308291E-01  1.00000000E+00
  0.00000000E+00  0.00000000E+00  0.00000000E+00  0.00000000E+00  0.00000000E+00
  0.00000000E+00  0.00000000E+00  6.89990666E-02  3.16423961E-01  7.44308291E-01
  1.00000000E+00  0.00000000E+00  0.00000000E+00  0.00000000E+00  0.00000000E+00
  0.00000000E+00  0.00000000E+00  0.00000000E+00  6.89990666E-02  3.16423961E-01
  7.44308291E-01  1.00000000E+00  0.00000000E+00  0.00000000E+00  0.00000000E+00
  0.00000000E+00  0.00000000E+00  0.00000000E+00  0.00000000E+00  6.89990666E-02
  3.16423961E-01  7.44308291E-01  1.00000000E+00  0.00000000E+00  0.00000000E+00
  0.00000000E+00  0.00000000E+00  0.00000000E+00  0.00000000E+00  0.00000000E+00
  0.00000000E+00  0.00000000E+00  0.00000000E+00  0.00000000E+00  0.00000000E+00
  0.00000000E+00  0.00000000E+00  0.00000000E+00  0.00000000E+00  0.00000000E+00
  0.00000000E+00  0.00000000E+00  0.00000000E+00  0.00000000E+00  0.00000000E+00
  0.00000000E+00  0.00000000E+00  0.00000000E+00  0.00000000E+00  0.00000000E+00
  0.00000000E+00  0.00000000E+00  0.00000000E+00  0.00000000E+00  0.00000000E+00
  0.00000000E+00  0.00000000E+00  0.00000000E+00  0.00000000E+00  0.00000000E+00
  0.00000000E+00  0.00000000E+00  0.00000000E+00  0.00000000E+00  0.00000000E+00
  0.00000000E+00  0.00000000E+00  0.00000000E+00  0.00000000E+00  0.00000000E+00
  0.00000000E+00  0.00000000E+00  0.00000000E+00  0.00000000E+00  0.00000000E+00
  0.00000000E+00  0.00000000E+00  0.00000000E+00  0.00000000E+00  0.00000000E+00
Coordinates of each shell                  R   N=         183
  1.41845450E-02 -1.13714651E+00 -8.78319936E-01  1.41845450E-02 -1.13714651E+00
 -8.78319936E-01  1.41845450E-02 -1.13714651E+00 -8.78319936E-01  1.41845450E-02
 -1.13714651E+00 -8.78319936E-01  1.41845450E-02 -1.13714651E+00 -8.78319936E-01
 -4.83070470E-01 -3.34538597E+00  8.94919699E-01 -4.83070470E-01 -3.34538597E+00
  8.94919699E-01 -4.83070470E-01 -3.34538597E+00  8.94919699E-01 -4.83070470E-01
 -3.34538597E+00  8.94919699E-01  2.67941274E+00  6.05970847E-01  4.69398727E-01
  2.67941274E+00  6.05970847E-01  4.69398727E-01  2.67941274E+00  6.05970847E-01
  4.69398727E-01  2.67941274E+00  6.05970847E-01  4.69398727E-01 -2.56998189E+00
  1.11848734E+00 -3.21891966E-01 -2.56998189E+00  1.11848734E+00 -3.21891966E-01
 -2.56998189E+00  1.11848734E+00 -3.21891966E-01 -2.56998189E+00  1.11848734E+00
 -3.21891966E-01  3.16904460E+00  3.04633482E+00 -9.77638272E-01  3.16904460E+00
  3.04633482E+00 -9.77638272E-01  3.16904460E+00  3.04633482E+00 -9.77638272E-01
  3.16904460E+00  3.04633482E+00 -9.77638272E-01  4.93171115E+00 -1.19307682E+00
  3.99497757E-01  4.93171115E+00 -1.19307682E+00  3.99497757E-01  4.93171115E+00
 -1.19307682E+00  3.99497757E-01  4.93171115E+00 -1.19307682E+00  3.99497757E-01
 -2.84748060E+00  1.72752341E+00  2.47531089E+00 -2.84748060E+00  1.72752341E+00
  2.47531089E+00 -2.84748060E+00  1.72752341E+00  2.47531089E+00 -2.84748060E+00
  1.72752341E+00  2.47531089E+00 -4.93958321E+00 -1.56875552E-01 -1.36481859E+00
 -4.93958321E+00 -1.56875552E-01 -1.36481859E+00 -4.93958321E+00 -1.56875552E-01
 -1.36481859E+00 -4.93958321E+00 -1.56875552E-01 -1.36481859E+00  2.18654949E+00
  9.84142849E-01  2.44324413E+00  2.18654949E+00  9.84142849E-01  2.44324413E+00
 -2.13159563E+00  2.80501500E+00 -1.44074590E+00 -2.13159563E+00  2.80501500E+00
 -1.44074590E+00  4.95384938E+00  3.87590944E+00 -3.43684287E-01  4.95384938E+00
  3.87590944E+00 -3.43684287E-01  3.33550301E+00  2.67862813E+00 -3.00789578E+00
  3.33550301E+00  2.67862813E+00 -3.00789578E+00  1.68479892E+00  4.45213613E+00
 -6.86507064E-01  1.68479892E+00  4.45213613E+00 -6.86507064E-01  4.47630223E+00
 -2.95371197E+00  1.37517092E+00  4.47630223E+00 -2.95371197E+00  1.37517092E+00
  6.55619722E+00 -3.15420001E-01  1.32963608E+00  6.55619722E+00 -3.15420001E-01
  1.32963608E+00  5.46152043E+00 -1.63472661E+00 -1.55145928E+00  5.46152043E+00
 -1.63472661E+00 -1.55145928E+00 -4.67412955E+00  2.63137945E+00  2.82357797E+00
 -4.67412955E+00  2.63137945E+00  2.82357797E+00 -2.76994328E+00 -3.29964841E-02
  3.55767043E+00 -2.76994328E+00 -3.29964841E-02  3.55767043E+00 -1.37313703E+00
  3.00133296E+00  3.15970167E+00 -1.37313703E+00  3.00133296E+00  3.15970167E+00
 -4.73888863E+00 -6.09056784E-01 -3.37241072E+00 -4.73888863E+00 -6.09056784E-01
 -3.37241072E+00 -6.56890884E+00  1.09447089E+00 -1.13894341E+00 -6.56890884E+00
  1.09447089E+00 -1.13894341E+00 -5.29924347E+00 -1.90985543E+00 -3.32744663E-01
 -5.29924347E+00 -1.90985543E+00 -3.32744663E-01
Constraint Structure                       R   N=          66
  1.41845450E-02 -1.13714651E+00 -8.78319936E-01 -4.83070470E-01 -3.34538597E+00
  8.94919699E-01  2.67941274E+00  6.05970847E-01  4.69398727E-01 -2.56998189E+00
  1.11848734E+00 -3.21891966E-01  3.16904460E+00  3.04633482E+00 -9.77638272E-01
  4.93171115E+00 -1.19307682E+00  3.99497757E-01 -2.84748060E+00  1.72752341E+00
  2.47531089E+00 -4.93958321E+00 -1.56875552E-01 -1.36481859E+00  2.18654949E+00
  9.84142849E-01  2.44324413E+00 -2.13159563E+00  2.80501500E+00 -1.44074590E+00
  4.95384938E+00  3.87590944E+00 -3.43684287E-01  3.33550301E+00  2.67862813E+00
 -3.00789578E+00  1.68479892E+00  4.45213613E+00 -6.86507064E-01  4.47630223E+00
 -2.95371197E+00  1.37517092E+00  6.55619722E+00 -3.15420001E-01  1.32963608E+00
  5.46152043E+00 -1.63472661E+00 -1.55145928E+00 -4.67412955E+00  2.63137945E+00
  2.82357797E+00 -2.76994328E+00 -3.29964841E-02  3.55767043E+00 -1.37313703E+00
  3.00133296E+00  3.15970167E+00 -4.73888863E+00 -6.09056784E-01 -3.37241072E+00
 -6.56890884E+00  1.09447089E+00 -1.13894341E+00 -5.29924347E+00 -1.90985543E+00
 -3.32744663E-01
Num ILSW                                   I              100
ILSW                                       I   N=         100
           0           1           0           0           2           0
           0           0           0           0           0          -1
           0           0           0           0           0           0
           0           0           0           0           1           0
           1           0           0           0           0           0
           0           0      100000           0          -1           0
           0           0           0           0           0           0
           0           0           0           1           1           0
           0           0           1           0           0           0
           0           0           4          40           0           0
           0           0           0           0           0           0
           0           0           0           0           0           0
           0           0           0           0           0           0
           0           0           0           0           0           0
           0           0           0           0           0           0
           0           0           0           0           0           0
           0           0           0           0
Num RLSW                                   I               40
RLSW                                       R   N=          40
  1.00000000E+00  1.00000000E+00  1.00000000E+00  1.00000000E+00  1.00000000E+00
  0.00000000E+00  0.00000000E+00  1.00000000E+00  0.00000000E+00  0.00000000E+00
  0.00000000E+00  0.00000000E+00  1.00000000E+00  0.00000000E+00  0.00000000E+00
  0.00000000E+00  0.00000000E+00  1.00000000E+00  0.00000000E+00  0.00000000E+00
  0.00000000E+00  0.00000000E+00  1.00000000E+00  0.00000000E+00  0.00000000E+00
  0.00000000E+00  0.00000000E+00  1.00000000E+00  0.00000000E+00  0.00000000E+00
  0.00000000E+00  0.00000000E+00  0.00000000E+00  0.00000000E+00  0.00000000E+00
  0.00000000E+00  0.00000000E+00  0.00000000E+00  1.00000000E+00  1.00000000E+00
MxBond                                     I                4
NBond                                      I   N=          22
           3           1           4           4           4           4
           4           4           1           1           1           1
           1           1           1           1           1           1
           1           1           1           1
IBond                                      I   N=          88
           2           3           4           0           1           0
           0           0           1           5           6           9
           1           7           8          10           3          11
          12          13           3          14          15          16
           4          17          18          19           4          20
          21          22           3           0           0           0
           4           0           0           0           5           0
           0           0           5           0           0           0
           5           0           0           0           6           0
           0           0           6           0           0           0
           6           0           0           0           7           0
           0           0           7           0           0           0
           7           0           0           0           8           0
           0           0           8           0           0           0
           8           0           0           0
RBond                                      R   N=          88
  2.00000000E+00  1.00000000E+00  1.00000000E+00  0.00000000E+00  2.00000000E+00
  0.00000000E+00  0.00000000E+00  0.00000000E+00  1.00000000E+00  1.00000000E+00
  1.00000000E+00  1.00000000E+00  1.00000000E+00  1.00000000E+00  1.00000000E+00
  1.00000000E+00  1.00000000E+00  1.00000000E+00  1.00000000E+00  1.00000000E+00
  1.00000000E+00  1.00000000E+00  1.00000000E+00  1.00000000E+00  1.00000000E+00
  1.00000000E+00  1.00000000E+00  1.00000000E+00  1.00000000E+00  1.00000000E+00
  1.00000000E+00  1.00000000E+00  1.00000000E+00  0.00000000E+00  0.00000000E+00
  0.00000000E+00  1.00000000E+00  0.00000000E+00  0.00000000E+00  0.00000000E+00
  1.00000000E+00  0.00000000E+00  0.00000000E+00  0.00000000E+00  1.00000000E+00
  0.00000000E+00  0.00000000E+00  0.00000000E+00  1.00000000E+00  0.00000000E+00
  0.00000000E+00  0.00000000E+00  1.00000000E+00  0.00000000E+00  0.00000000E+00
  0.00000000E+00  1.00000000E+00  0.00000000E+00  0.00000000E+00  0.00000000E+00
  1.00000000E+00  0.00000000E+00  0.00000000E+00  0.00000000E+00  1.00000000E+00
  0.00000000E+00  0.00000000E+00  0.00000000E+00  1.00000000E+00  0.00000000E+00
  0.00000000E+00  0.00000000E+00  1.00000000E+00  0.00000000E+00  0.00000000E+00
  0.00000000E+00  1.00000000E+00  0.00000000E+00  0.00000000E+00  0.00000000E+00
  1.00000000E+00  0.00000000E+00  0.00000000E+00  0.00000000E+00  1.00000000E+00
  0.00000000E+00  0.00000000E+00  0.00000000E+00
Virial Ratio                               R      2.001001163660545E+00
SCF Energy                                 R     -7.076754084621658E+02
MP2 Energy                                 R     -7.087879077722253E+02
Total Energy                               R     -7.087879077722253E+02
Post-SCF wavefunction norm                 R      1.659865470992000E+00
RMS Force                                  R      5.697270214955654E-07
RMS Density                                R      1.960244958884631E-09
External E-field                           R   N=          35
  0.00000000E+00  0.00000000E+00  0.00000000E+00  0.00000000E+00  0.00000000E+00
  0.00000000E+00  0.00000000E+00  0.00000000E+00  0.00000000E+00  0.00000000E+00
  0.00000000E+00  0.00000000E+00  0.00000000E+00  0.00000000E+00  0.00000000E+00
  0.00000000E+00  0.00000000E+00  0.00000000E+00  0.00000000E+00  0.00000000E+00
  0.00000000E+00  0.00000000E+00  0.00000000E+00  0.00000000E+00  0.00000000E+00
  0.00000000E+00  0.00000000E+00  0.00000000E+00  0.00000000E+00  0.00000000E+00
  0.00000000E+00  0.00000000E+00  0.00000000E+00  0.00000000E+00  0.00000000E+00
IOpCl                                      I                0
IROHF                                      I                0
Alpha Orbital Energies                     R   N=         152
 -9.20435082E+01 -2.04952279E+01 -1.12674359E+01 -1.12663752E+01 -1.12409732E+01
 -1.12270019E+01 -1.12267360E+01 -1.12263959E+01 -9.04060658E+00 -6.72328317E+00
 -6.72312448E+00 -6.72106386E+00 -1.30959186E+00 -1.10985987E+00 -1.07950841E+00
 -9.51453450E-01 -9.44865560E-01 -9.21899958E-01 -8.17467124E-01 -7.57115087E-01
 -6.69526251E-01 -6.42827124E-01 -6.21579323E-01 -6.09809365E-01 -5.78930616E-01
 -5.73055695E-01 -5.56125547E-01 -5.52157623E-01 -5.27096657E-01 -5.18862213E-01
 -5.11873454E-01 -5.03896890E-01 -4.90855986E-01 -4.87335382E-01 -4.80818816E-01
 -3.89671545E-01 -3.48954324E-01  1.93008994E-01  2.01849912E-01  2.11973132E-01
  2.52540054E-01  2.62700010E-01  2.71846930E-01  2.80650662E-01  2.92003496E-01
  3.00417781E-01  3.10999645E-01  3.12059655E-01  3.29462684E-01  3.38100372E-01
  3.46140725E-01  3.49944155E-01  3.68090565E-01  3.69820088E-01  3.78406035E-01
  4.01243824E-01  4.14665701E-01  4.26811253E-01  5.35165817E-01  6.07002249E-01
  6.42575224E-01  6.63667409E-01  6.81410737E-01  6.97511806E-01  7.02022485E-01
  7.27507093E-01  7.69677346E-01  7.80423990E-01  8.15868522E-01  8.36771447E-01
  8.50480392E-01  9.28626837E-01  9.36769384E-01  9.54867407E-01  9.66898475E-01
  9.93042181E-01  1.01009114E+00  1.03287118E+00  1.04199149E+00  1.08406935E+00
  1.10767872E+00  1.11691701E+00  1.12736069E+00  1.14087891E+00  1.15210811E+00
  1.15698699E+00  1.16398263E+00  1.17454369E+00  1.17953871E+00  1.18730894E+00
  1.19929018E+00  1.21221893E+00  1.21799451E+00  1.23098572E+00  1.24994433E+00
  1.26061556E+00  1.27348869E+00  1.30462243E+00  1.30648050E+00  1.38052542E+00
  1.42757214E+00  1.44273491E+00  1.47029050E+00  1.51418492E+00  1.65926472E+00
  1.70173198E+00  1.72655743E+00  1.73405324E+00  1.76368540E+00  1.79674165E+00
  1.81037488E+00  1.87527603E+00  2.00019322E+00  2.06804413E+00  2.07649778E+00
  2.16772374E+00  2.18487008E+00  2.20367283E+00  2.22675128E+00  2.23467731E+00
  2.24136778E+00  2.29392506E+00  2.31113229E+00  2.33473719E+00  2.37626291E+00
  2.39030332E+00  2.40785126E+00  2.42437923E+00  2.44821215E+00  2.55510232E+00