043_7-Methylindole Gaussian SP Calculation on node35.bme.utexas.edu     
Freq      RMP2-FC                                                     6-31G(d)            
Number of atoms                            I               19
Info1-9                                    I   N=           9
          30          29        1002           0           0         100
           6           2           1
Charge                                     I                0
Multiplicity                               I                1
Number of electrons                        I               70
Number of alpha electrons                  I               35
Number of beta electrons                   I               35
Number of basis functions                  I              168
Number of independent functions            I              168
Number of point charges in /Mol/           I                0
Number of translation vectors              I                0
Atomic numbers                             I   N=          19
           6           6           6           6           6           6
           6           6           6           7           1           1
           1           1           1           1           1           1
           1
Nuclear charges                            R   N=          19
  6.00000000E+00  6.00000000E+00  6.00000000E+00  6.00000000E+00  6.00000000E+00
  6.00000000E+00  6.00000000E+00  6.00000000E+00  6.00000000E+00  7.00000000E+00
  1.00000000E+00  1.00000000E+00  1.00000000E+00  1.00000000E+00  1.00000000E+00
  1.00000000E+00  1.00000000E+00  1.00000000E+00  1.00000000E+00
Current cartesian coordinates              R   N=          57
 -4.96243428E+00 -2.49096856E+00  6.36852504E-06 -3.37490164E-01 -7.38901512E-01
 -2.61613947E-05 -3.02901495E+00 -4.29307064E-01 -1.24372140E-05  7.63068756E-01
  1.71305111E+00 -2.28554458E-05 -3.46634950E+00  2.13702099E+00  1.34596760E-05
  3.86120976E+00 -2.49232627E+00  8.21863903E-06  4.90921036E+00 -3.80398046E-02
  7.91548741E-06  1.26394928E+00 -2.86286594E+00  4.52973892E-08  3.38155820E+00
  2.09734419E+00  4.34183860E-06 -1.19591398E+00  3.42356559E+00  1.20015391E-05
  5.12000493E+00 -4.11680038E+00  2.63999578E-05  6.95222187E+00  1.85032274E-01
  2.19244258E-05  4.79708125E-01 -4.76474463E+00 -1.66492154E-05  4.19408908E+00
  3.98688686E+00 -4.01436291E-05 -6.87425097E+00 -1.70340600E+00 -4.60305496E-05
 -4.77728411E+00 -3.70217679E+00  1.66848693E+00 -5.24160965E+00  3.15786162E+00
  8.63812614E-06 -1.00650230E+00  5.32460668E+00  6.46404699E-06 -4.77722393E+00
 -3.70226166E+00 -1.66840492E+00
Force Field                                I                0
Int Atom Types                             I   N=          19
           0           0           0           0           0           0
           0           0           0           0           0           0
           0           0           0           0           0           0
           0
MM charges                                 R   N=          19
  0.00000000E+00  0.00000000E+00  0.00000000E+00  0.00000000E+00  0.00000000E+00
  0.00000000E+00  0.00000000E+00  0.00000000E+00  0.00000000E+00  0.00000000E+00
  0.00000000E+00  0.00000000E+00  0.00000000E+00  0.00000000E+00  0.00000000E+00
  0.00000000E+00  0.00000000E+00  0.00000000E+00  0.00000000E+00
Integer atomic weights                     I   N=          19
          12          12          12          12          12          12
          12          12          12          14           1           1
           1           1           1           1           1           1
           1
Real atomic weights                        R   N=          19
  1.20000000E+01  1.20000000E+01  1.20000000E+01  1.20000000E+01  1.20000000E+01
  1.20000000E+01  1.20000000E+01  1.20000000E+01  1.20000000E+01  1.40030740E+01
  1.00782504E+00  1.00782504E+00  1.00782504E+00  1.00782504E+00  1.00782504E+00
  1.00782504E+00  1.00782504E+00  1.00782504E+00  1.00782504E+00
Atom fragment info                         I   N=          19
           0           0           0           0           0           0
           0           0           0           0           0           0
           0           0           0           0           0           0
           0
Atom residue num                           I   N=          19
           0           0           0           0           0           0
           0           0           0           0           0           0
           0           0           0           0           0           0
           0
Nuclear spins                              I   N=          19
           0           0           0           0           0           0
           0           0           0           2           1           1
           1           1           1           1           1           1
           1
Nuclear ZEff                               R   N=          19
 -3.60000000E+00 -3.60000000E+00 -3.60000000E+00 -3.60000000E+00 -3.60000000E+00
 -3.60000000E+00 -3.60000000E+00 -3.60000000E+00 -3.60000000E+00 -4.55000000E+00
 -1.00000000E+00 -1.00000000E+00 -1.00000000E+00 -1.00000000E+00 -1.00000000E+00
 -1.00000000E+00 -1.00000000E+00 -1.00000000E+00 -1.00000000E+00
Nuclear QMom                               R   N=          19
  0.00000000E+00  0.00000000E+00  0.00000000E+00  0.00000000E+00  0.00000000E+00
  0.00000000E+00  0.00000000E+00  0.00000000E+00  0.00000000E+00  2.04400000E+00
  0.00000000E+00  0.00000000E+00  0.00000000E+00  0.00000000E+00  0.00000000E+00
  0.00000000E+00  0.00000000E+00  0.00000000E+00  0.00000000E+00
Nuclear GFac                               R   N=          19
  0.00000000E+00  0.00000000E+00  0.00000000E+00  0.00000000E+00  0.00000000E+00
  0.00000000E+00  0.00000000E+00  0.00000000E+00  0.00000000E+00  4.03761000E-01
  2.79284600E+00  2.79284600E+00  2.79284600E+00  2.79284600E+00  2.79284600E+00
  2.79284600E+00  2.79284600E+00  2.79284600E+00  2.79284600E+00
MicOpt                                     I   N=          19
          -1          -1          -1          -1          -1          -1
          -1          -1          -1          -1          -1          -1
          -1          -1          -1          -1          -1          -1
          -1
Number of contracted shells                I               58
Number of primitive shells                 I              146
Pure/Cartesian d shells                    I                1
Pure/Cartesian f shells                    I                0
Highest angular momentum                   I                2
Largest degree of contraction              I                6
Shell types                                I   N=          58
           0          -1          -1           2           0          -1
          -1           2           0          -1          -1           2
           0          -1          -1           2           0          -1
          -1           2           0          -1          -1           2
           0          -1          -1           2           0          -1
          -1           2           0          -1          -1           2
           0          -1          -1           2           0           0
           0           0           0           0           0           0
           0           0           0           0           0           0
           0           0           0           0
Number of primitives per shell             I   N=          58
           6           3           1           1           6           3
           1           1           6           3           1           1
           6           3           1           1           6           3
           1           1           6           3           1           1
           6           3           1           1           6           3
           1           1           6           3           1           1
           6           3           1           1           3           1
           3           1           3           1           3           1
           3           1           3           1           3           1
           3           1           3           1
Shell to atom map                          I   N=          58
           1           1           1           1           2           2
           2           2           3           3           3           3
           4           4           4           4           5           5
           5           5           6           6           6           6
           7           7           7           7           8           8
           8           8           9           9           9           9
          10          10          10          10          11          11
          12          12          13          13          14          14
          15          15          16          16          17          17
          18          18          19          19
Primitive exponents                        R   N=         146
  3.04752488E+03  4.57369518E+02  1.03948685E+02  2.92101553E+01  9.28666296E+00
  3.16392696E+00  7.86827235E+00  1.88128854E+00  5.44249258E-01  1.68714478E-01
  8.00000000E-01  3.04752488E+03  4.57369518E+02  1.03948685E+02  2.92101553E+01
  9.28666296E+00  3.16392696E+00  7.86827235E+00  1.88128854E+00  5.44249258E-01
  1.68714478E-01  8.00000000E-01  3.04752488E+03  4.57369518E+02  1.03948685E+02
  2.92101553E+01  9.28666296E+00  3.16392696E+00  7.86827235E+00  1.88128854E+00
  5.44249258E-01  1.68714478E-01  8.00000000E-01  3.04752488E+03  4.57369518E+02
  1.03948685E+02  2.92101553E+01  9.28666296E+00  3.16392696E+00  7.86827235E+00
  1.88128854E+00  5.44249258E-01  1.68714478E-01  8.00000000E-01  3.04752488E+03
  4.57369518E+02  1.03948685E+02  2.92101553E+01  9.28666296E+00  3.16392696E+00
  7.86827235E+00  1.88128854E+00  5.44249258E-01  1.68714478E-01  8.00000000E-01
  3.04752488E+03  4.57369518E+02  1.03948685E+02  2.92101553E+01  9.28666296E+00
  3.16392696E+00  7.86827235E+00  1.88128854E+00  5.44249258E-01  1.68714478E-01
  8.00000000E-01  3.04752488E+03  4.57369518E+02  1.03948685E+02  2.92101553E+01
  9.28666296E+00  3.16392696E+00  7.86827235E+00  1.88128854E+00  5.44249258E-01
  1.68714478E-01  8.00000000E-01  3.04752488E+03  4.57369518E+02  1.03948685E+02
  2.92101553E+01  9.28666296E+00  3.16392696E+00  7.86827235E+00  1.88128854E+00
  5.44249258E-01  1.68714478E-01  8.00000000E-01  3.04752488E+03  4.57369518E+02
  1.03948685E+02  2.92101553E+01  9.28666296E+00  3.16392696E+00  7.86827235E+00
  1.88128854E+00  5.44249258E-01  1.68714478E-01  8.00000000E-01  4.17351146E+03
  6.27457911E+02  1.42902093E+02  4.02343293E+01  1.28202129E+01  4.39043701E+00
  1.16263619E+01  2.71627981E+00  7.72218397E-01  2.12031498E-01  8.00000000E-01
  1.87311370E+01  2.82539436E+00  6.40121692E-01  1.61277759E-01  1.87311370E+01
  2.82539436E+00  6.40121692E-01  1.61277759E-01  1.87311370E+01  2.82539436E+00
  6.40121692E-01  1.61277759E-01  1.87311370E+01  2.82539436E+00  6.40121692E-01
  1.61277759E-01  1.87311370E+01  2.82539436E+00  6.40121692E-01  1.61277759E-01
  1.87311370E+01  2.82539436E+00  6.40121692E-01  1.61277759E-01  1.87311370E+01
  2.82539436E+00  6.40121692E-01  1.61277759E-01  1.87311370E+01  2.82539436E+00
  6.40121692E-01  1.61277759E-01  1.87311370E+01  2.82539436E+00  6.40121692E-01
  1.61277759E-01
Contraction coefficients                   R   N=         146
  1.83473713E-03  1.40373228E-02  6.88426223E-02  2.32184443E-01  4.67941348E-01
  3.62311985E-01 -1.19332420E-01 -1.60854152E-01  1.14345644E+00  1.00000000E+00
  1.00000000E+00  1.83473713E-03  1.40373228E-02  6.88426223E-02  2.32184443E-01
  4.67941348E-01  3.62311985E-01 -1.19332420E-01 -1.60854152E-01  1.14345644E+00
  1.00000000E+00  1.00000000E+00  1.83473713E-03  1.40373228E-02  6.88426223E-02
  2.32184443E-01  4.67941348E-01  3.62311985E-01 -1.19332420E-01 -1.60854152E-01
  1.14345644E+00  1.00000000E+00  1.00000000E+00  1.83473713E-03  1.40373228E-02
  6.88426223E-02  2.32184443E-01  4.67941348E-01  3.62311985E-01 -1.19332420E-01
 -1.60854152E-01  1.14345644E+00  1.00000000E+00  1.00000000E+00  1.83473713E-03
  1.40373228E-02  6.88426223E-02  2.32184443E-01  4.67941348E-01  3.62311985E-01
 -1.19332420E-01 -1.60854152E-01  1.14345644E+00  1.00000000E+00  1.00000000E+00
  1.83473713E-03  1.40373228E-02  6.88426223E-02  2.32184443E-01  4.67941348E-01
  3.62311985E-01 -1.19332420E-01 -1.60854152E-01  1.14345644E+00  1.00000000E+00
  1.00000000E+00  1.83473713E-03  1.40373228E-02  6.88426223E-02  2.32184443E-01
  4.67941348E-01  3.62311985E-01 -1.19332420E-01 -1.60854152E-01  1.14345644E+00
  1.00000000E+00  1.00000000E+00  1.83473713E-03  1.40373228E-02  6.88426223E-02
  2.32184443E-01  4.67941348E-01  3.62311985E-01 -1.19332420E-01 -1.60854152E-01
  1.14345644E+00  1.00000000E+00  1.00000000E+00  1.83473713E-03  1.40373228E-02
  6.88426223E-02  2.32184443E-01  4.67941348E-01  3.62311985E-01 -1.19332420E-01
 -1.60854152E-01  1.14345644E+00  1.00000000E+00  1.00000000E+00  1.83477216E-03
  1.39946270E-02  6.85865518E-02  2.32240873E-01  4.69069948E-01  3.60455199E-01
 -1.14961182E-01 -1.69117479E-01  1.14585195E+00  1.00000000E+00  1.00000000E+00
  3.34946043E-02  2.34726953E-01  8.13757326E-01  1.00000000E+00  3.34946043E-02
  2.34726953E-01  8.13757326E-01  1.00000000E+00  3.34946043E-02  2.34726953E-01
  8.13757326E-01  1.00000000E+00  3.34946043E-02  2.34726953E-01  8.13757326E-01
  1.00000000E+00  3.34946043E-02  2.34726953E-01  8.13757326E-01  1.00000000E+00
  3.34946043E-02  2.34726953E-01  8.13757326E-01  1.00000000E+00  3.34946043E-02
  2.34726953E-01  8.13757326E-01  1.00000000E+00  3.34946043E-02  2.34726953E-01
  8.13757326E-01  1.00000000E+00  3.34946043E-02  2.34726953E-01  8.13757326E-01
  1.00000000E+00
P(S=P) Contraction coefficients            R   N=         146
  0.00000000E+00  0.00000000E+00  0.00000000E+00  0.00000000E+00  0.00000000E+00
  0.00000000E+00  6.89990666E-02  3.16423961E-01  7.44308291E-01  1.00000000E+00
  0.00000000E+00  0.00000000E+00  0.00000000E+00  0.00000000E+00  0.00000000E+00
  0.00000000E+00  0.00000000E+00  6.89990666E-02  3.16423961E-01  7.44308291E-01
  1.00000000E+00  0.00000000E+00  0.00000000E+00  0.00000000E+00  0.00000000E+00
  0.00000000E+00  0.00000000E+00  0.00000000E+00  6.89990666E-02  3.16423961E-01
  7.44308291E-01  1.00000000E+00  0.00000000E+00  0.00000000E+00  0.00000000E+00
  0.00000000E+00  0.00000000E+00  0.00000000E+00  0.00000000E+00  6.89990666E-02
  3.16423961E-01  7.44308291E-01  1.00000000E+00  0.00000000E+00  0.00000000E+00
  0.00000000E+00  0.00000000E+00  0.00000000E+00  0.00000000E+00  0.00000000E+00
  6.89990666E-02  3.16423961E-01  7.44308291E-01  1.00000000E+00  0.00000000E+00
  0.00000000E+00  0.00000000E+00  0.00000000E+00  0.00000000E+00  0.00000000E+00
  0.00000000E+00  6.89990666E-02  3.16423961E-01  7.44308291E-01  1.00000000E+00
  0.00000000E+00  0.00000000E+00  0.00000000E+00  0.00000000E+00  0.00000000E+00
  0.00000000E+00  0.00000000E+00  6.89990666E-02  3.16423961E-01  7.44308291E-01
  1.00000000E+00  0.00000000E+00  0.00000000E+00  0.00000000E+00  0.00000000E+00
  0.00000000E+00  0.00000000E+00  0.00000000E+00  6.89990666E-02  3.16423961E-01
  7.44308291E-01  1.00000000E+00  0.00000000E+00  0.00000000E+00  0.00000000E+00
  0.00000000E+00  0.00000000E+00  0.00000000E+00  0.00000000E+00  6.89990666E-02
  3.16423961E-01  7.44308291E-01  1.00000000E+00  0.00000000E+00  0.00000000E+00
  0.00000000E+00  0.00000000E+00  0.00000000E+00  0.00000000E+00  0.00000000E+00
  6.75797439E-02  3.23907296E-01  7.40895140E-01  1.00000000E+00  0.00000000E+00
  0.00000000E+00  0.00000000E+00  0.00000000E+00  0.00000000E+00  0.00000000E+00
  0.00000000E+00  0.00000000E+00  0.00000000E+00  0.00000000E+00  0.00000000E+00
  0.00000000E+00  0.00000000E+00  0.00000000E+00  0.00000000E+00  0.00000000E+00
  0.00000000E+00  0.00000000E+00  0.00000000E+00  0.00000000E+00  0.00000000E+00
  0.00000000E+00  0.00000000E+00  0.00000000E+00  0.00000000E+00  0.00000000E+00
  0.00000000E+00  0.00000000E+00  0.00000000E+00  0.00000000E+00  0.00000000E+00
  0.00000000E+00  0.00000000E+00  0.00000000E+00  0.00000000E+00  0.00000000E+00
  0.00000000E+00
Coordinates of each shell                  R   N=         174
 -4.96243428E+00 -2.49096856E+00  6.36852504E-06 -4.96243428E+00 -2.49096856E+00
  6.36852504E-06 -4.96243428E+00 -2.49096856E+00  6.36852504E-06 -4.96243428E+00
 -2.49096856E+00  6.36852504E-06 -3.37490164E-01 -7.38901512E-01 -2.61613947E-05
 -3.37490164E-01 -7.38901512E-01 -2.61613947E-05 -3.37490164E-01 -7.38901512E-01
 -2.61613947E-05 -3.37490164E-01 -7.38901512E-01 -2.61613947E-05 -3.02901495E+00
 -4.29307064E-01 -1.24372140E-05 -3.02901495E+00 -4.29307064E-01 -1.24372140E-05
 -3.02901495E+00 -4.29307064E-01 -1.24372140E-05 -3.02901495E+00 -4.29307064E-01
 -1.24372140E-05  7.63068756E-01  1.71305111E+00 -2.28554458E-05  7.63068756E-01
  1.71305111E+00 -2.28554458E-05  7.63068756E-01  1.71305111E+00 -2.28554458E-05
  7.63068756E-01  1.71305111E+00 -2.28554458E-05 -3.46634950E+00  2.13702099E+00
  1.34596760E-05 -3.46634950E+00  2.13702099E+00  1.34596760E-05 -3.46634950E+00
  2.13702099E+00  1.34596760E-05 -3.46634950E+00  2.13702099E+00  1.34596760E-05
  3.86120976E+00 -2.49232627E+00  8.21863903E-06  3.86120976E+00 -2.49232627E+00
  8.21863903E-06  3.86120976E+00 -2.49232627E+00  8.21863903E-06  3.86120976E+00
 -2.49232627E+00  8.21863903E-06  4.90921036E+00 -3.80398046E-02  7.91548741E-06
  4.90921036E+00 -3.80398046E-02  7.91548741E-06  4.90921036E+00 -3.80398046E-02
  7.91548741E-06  4.90921036E+00 -3.80398046E-02  7.91548741E-06  1.26394928E+00
 -2.86286594E+00  4.52973892E-08  1.26394928E+00 -2.86286594E+00  4.52973892E-08
  1.26394928E+00 -2.86286594E+00  4.52973892E-08  1.26394928E+00 -2.86286594E+00
  4.52973892E-08  3.38155820E+00  2.09734419E+00  4.34183860E-06  3.38155820E+00
  2.09734419E+00  4.34183860E-06  3.38155820E+00  2.09734419E+00  4.34183860E-06
  3.38155820E+00  2.09734419E+00  4.34183860E-06 -1.19591398E+00  3.42356559E+00
  1.20015391E-05 -1.19591398E+00  3.42356559E+00  1.20015391E-05 -1.19591398E+00
  3.42356559E+00  1.20015391E-05 -1.19591398E+00  3.42356559E+00  1.20015391E-05
  5.12000493E+00 -4.11680038E+00  2.63999578E-05  5.12000493E+00 -4.11680038E+00
  2.63999578E-05  6.95222187E+00  1.85032274E-01  2.19244258E-05  6.95222187E+00
  1.85032274E-01  2.19244258E-05  4.79708125E-01 -4.76474463E+00 -1.66492154E-05
  4.79708125E-01 -4.76474463E+00 -1.66492154E-05  4.19408908E+00  3.98688686E+00
 -4.01436291E-05  4.19408908E+00  3.98688686E+00 -4.01436291E-05 -6.87425097E+00
 -1.70340600E+00 -4.60305496E-05 -6.87425097E+00 -1.70340600E+00 -4.60305496E-05
 -4.77728411E+00 -3.70217679E+00  1.66848693E+00 -4.77728411E+00 -3.70217679E+00
  1.66848693E+00 -5.24160965E+00  3.15786162E+00  8.63812614E-06 -5.24160965E+00
  3.15786162E+00  8.63812614E-06 -1.00650230E+00  5.32460668E+00  6.46404699E-06
 -1.00650230E+00  5.32460668E+00  6.46404699E-06 -4.77722393E+00 -3.70226166E+00
 -1.66840492E+00 -4.77722393E+00 -3.70226166E+00 -1.66840492E+00
Constraint Structure                       R   N=          57
 -4.96243428E+00 -2.49096856E+00  6.36852504E-06 -3.37490164E-01 -7.38901512E-01
 -2.61613947E-05 -3.02901495E+00 -4.29307064E-01 -1.24372140E-05  7.63068756E-01
  1.71305111E+00 -2.28554458E-05 -3.46634950E+00  2.13702099E+00  1.34596760E-05
  3.86120976E+00 -2.49232627E+00  8.21863903E-06  4.90921036E+00 -3.80398046E-02
  7.91548741E-06  1.26394928E+00 -2.86286594E+00  4.52973892E-08  3.38155820E+00
  2.09734419E+00  4.34183860E-06 -1.19591398E+00  3.42356559E+00  1.20015391E-05
  5.12000493E+00 -4.11680038E+00  2.63999578E-05  6.95222187E+00  1.85032274E-01
  2.19244258E-05  4.79708125E-01 -4.76474463E+00 -1.66492154E-05  4.19408908E+00
  3.98688686E+00 -4.01436291E-05 -6.87425097E+00 -1.70340600E+00 -4.60305496E-05
 -4.77728411E+00 -3.70217679E+00  1.66848693E+00 -5.24160965E+00  3.15786162E+00
  8.63812614E-06 -1.00650230E+00  5.32460668E+00  6.46404699E-06 -4.77722393E+00
 -3.70226166E+00 -1.66840492E+00
Num ILSW                                   I              100
ILSW                                       I   N=         100
           0           1           0           0           2           0
           0           0           0           0           0          -1
           0           0           0           0           0           0
           0           0           0           0           1           0
           1           0           0           0           0           0
           0           0      100000           0          -1           0
           0           0           0           0           0           0
           0           0           0           1           1           0
           0           0           1           0           0           0
           0           0           4          40           0           0
           0           0           0           0           0           0
           0           0           0           0           0           0
           0           0           0           0           0           0
           0           0           0           0           0           0
           0           0           0           0           0           0
           0           0           0           0           0           0
           0           0           0           0
Num RLSW                                   I               40
RLSW                                       R   N=          40
  1.00000000E+00  1.00000000E+00  1.00000000E+00  1.00000000E+00  1.00000000E+00
  0.00000000E+00  0.00000000E+00  1.00000000E+00  0.00000000E+00  0.00000000E+00
  0.00000000E+00  0.00000000E+00  1.00000000E+00  0.00000000E+00  0.00000000E+00
  0.00000000E+00  0.00000000E+00  1.00000000E+00  0.00000000E+00  0.00000000E+00
  0.00000000E+00  0.00000000E+00  1.00000000E+00  0.00000000E+00  0.00000000E+00
  0.00000000E+00  0.00000000E+00  1.00000000E+00  0.00000000E+00  0.00000000E+00
  0.00000000E+00  0.00000000E+00  0.00000000E+00  0.00000000E+00  0.00000000E+00
  0.00000000E+00  0.00000000E+00  0.00000000E+00  1.00000000E+00  1.00000000E+00
MxBond                                     I                4
NBond                                      I   N=          19
           4           3           3           3           3           3
           3           3           3           3           1           1
           1           1           1           1           1           1
           1
IBond                                      I   N=          76
           3          15          16          19           3           4
           8           0           1           2           5           0
           2           9          10           0           3          10
          17           0           7           8          11           0
           6           9          12           0           2           6
          13           0           4           7          14           0
           4           5          18           0           6           0
           0           0           7           0           0           0
           8           0           0           0           9           0
           0           0           1           0           0           0
           1           0           0           0           5           0
           0           0          10           0           0           0
           1           0           0           0
RBond                                      R   N=          76
  1.00000000E+00  1.00000000E+00  1.00000000E+00  1.00000000E+00  1.00000000E+00
  1.50000000E+00  1.50000000E+00  0.00000000E+00  1.00000000E+00  1.00000000E+00
  1.50000000E+00  0.00000000E+00  1.50000000E+00  1.50000000E+00  1.50000000E+00
  0.00000000E+00  1.50000000E+00  1.50000000E+00  1.00000000E+00  0.00000000E+00
  1.50000000E+00  1.00000000E+00  1.00000000E+00  0.00000000E+00  1.50000000E+00
  1.50000000E+00  1.00000000E+00  0.00000000E+00  1.50000000E+00  1.00000000E+00
  1.00000000E+00  0.00000000E+00  1.50000000E+00  1.50000000E+00  1.00000000E+00
  0.00000000E+00  1.50000000E+00  1.50000000E+00  1.00000000E+00  0.00000000E+00
  1.00000000E+00  0.00000000E+00  0.00000000E+00  0.00000000E+00  1.00000000E+00
  0.00000000E+00  0.00000000E+00  0.00000000E+00  1.00000000E+00  0.00000000E+00
  0.00000000E+00  0.00000000E+00  1.00000000E+00  0.00000000E+00  0.00000000E+00
  0.00000000E+00  1.00000000E+00  0.00000000E+00  0.00000000E+00  0.00000000E+00
  1.00000000E+00  0.00000000E+00  0.00000000E+00  0.00000000E+00  1.00000000E+00
  0.00000000E+00  0.00000000E+00  0.00000000E+00  1.00000000E+00  0.00000000E+00
  0.00000000E+00  0.00000000E+00  1.00000000E+00  0.00000000E+00  0.00000000E+00
  0.00000000E+00
Virial Ratio                               R      2.002057898622979E+00
SCF Energy                                 R     -4.005030780645358E+02
MP2 Energy                                 R     -4.018137452914836E+02
Total Energy                               R     -4.018137452914836E+02
Post-SCF wavefunction norm                 R      1.714784882951776E+00
RMS Force                                  R      1.289397175797694E-06
RMS Density                                R      1.572364264717830E-09
External E-field                           R   N=          35
  0.00000000E+00  0.00000000E+00  0.00000000E+00  0.00000000E+00  0.00000000E+00
  0.00000000E+00  0.00000000E+00  0.00000000E+00  0.00000000E+00  0.00000000E+00
  0.00000000E+00  0.00000000E+00  0.00000000E+00  0.00000000E+00  0.00000000E+00
  0.00000000E+00  0.00000000E+00  0.00000000E+00  0.00000000E+00  0.00000000E+00
  0.00000000E+00  0.00000000E+00  0.00000000E+00  0.00000000E+00  0.00000000E+00
  0.00000000E+00  0.00000000E+00  0.00000000E+00  0.00000000E+00  0.00000000E+00
  0.00000000E+00  0.00000000E+00  0.00000000E+00  0.00000000E+00  0.00000000E+00
IOpCl                                      I                0
IROHF                                      I                0
Alpha Orbital Energies                     R   N=         168
 -1.56007827E+01 -1.12625475E+01 -1.12608710E+01 -1.12284442E+01 -1.12268602E+01
 -1.12261130E+01 -1.12197774E+01 -1.12179584E+01 -1.12175754E+01 -1.12170100E+01
 -1.28658991E+00 -1.12051614E+00 -1.06673844E+00 -9.91560036E-01 -9.80333211E-01
 -9.26883927E-01 -8.33457258E-01 -7.98210715E-01 -7.50617723E-01 -7.15358479E-01
 -6.54827846E-01 -6.39223784E-01 -5.98266826E-01 -5.87039673E-01 -5.85500051E-01
 -5.64843833E-01 -5.46909682E-01 -5.37689997E-01 -5.25340213E-01 -4.92202267E-01
 -4.70038140E-01 -4.55724810E-01 -3.67379136E-01 -2.91028684E-01 -2.70094496E-01
  1.33712128E-01  1.78609648E-01  2.27845119E-01  2.40087374E-01  2.43808212E-01
  2.64465549E-01  2.91020538E-01  2.99093300E-01  3.18176516E-01  3.34249771E-01
  3.40313387E-01  3.47024513E-01  4.01038795E-01  4.12149330E-01  4.27188000E-01
  4.51708809E-01  4.65980737E-01  5.07482476E-01  5.23265958E-01  5.34623424E-01
  5.88109444E-01  6.55317181E-01  6.97731358E-01  7.16843467E-01  7.44147083E-01
  7.60647632E-01  7.70998368E-01  7.71984930E-01  7.94720343E-01  7.97388744E-01
  8.30559706E-01  8.35526172E-01  8.39960145E-01  8.49231499E-01  8.50652684E-01
  8.69988611E-01  8.72947487E-01  9.00397060E-01  9.27245921E-01  9.45180797E-01
  9.50430469E-01  1.00978982E+00  1.03237694E+00  1.04209070E+00  1.08341917E+00
  1.08842324E+00  1.09526945E+00  1.11373276E+00  1.12193338E+00  1.14605099E+00
  1.16050302E+00  1.16097056E+00  1.17851390E+00  1.19131219E+00  1.22215938E+00
  1.22720605E+00  1.23830841E+00  1.25656862E+00  1.27763174E+00  1.30406612E+00
  1.33817555E+00  1.38329607E+00  1.39165644E+00  1.44851100E+00  1.50197568E+00
  1.52639420E+00  1.56741421E+00  1.59752239E+00  1.61965243E+00  1.62813695E+00
  1.66498014E+00  1.68422630E+00  1.70688900E+00  1.74573958E+00  1.75243960E+00
  1.78780839E+00  1.78883399E+00  1.79646920E+00  1.86913080E+00  1.88203870E+00
  2.05229221E+00  2.10226908E+00  2.11539278E+00  2.11959323E+00  2.18053945E+00
  2.19678596E+00  2.21947069E+00  2.26682329E+00  2.28272152E+00  2.31514134E+00
  2.32320583E+00  2.33686083E+00  2.37404338E+00  2.40097203E+00  2.46996215E+00
  2.48171841E+00  2.49616062E+00  2.55484714E+00  2.55637205E+00  2.56357966E+00
  2.58353649E+00  2.60389640E+00  2.62306460E+00  2.67758012E+00  2.69349286E+00
  2.73345095E+00  2.82770010E+00  2.83001237E+00  2.84215941E+00  2.92644337E+00
  2.93968774E+00  3.00396717E+00  3.02990000E+00  3.04036516E+00  3.09409200E+00
  3.13472922E+00  3.17722202E+00  3.22743575E+00  3.29100590E+00  3.35899278E+00
  3.50663882E+00  3.63187461E+00  3.82904619E+00  4.44430003E+00  4.52686228E+00
  4.53551917E+00  4.58858502E+00  4.63965072E+00  4.68469357E+00  4.78457573E+00
  4.83576498E+00  4.96359961E+00  5.22783020E+00
Alpha MO coefficients                      R   N=       28224
 -2.44614883E-06  1.03270967E-05 -2.37293572E-05 -2.83792064E-05 -3.28749368E-11
 -5.14947890E-04 -2.32359405E-04 -2.18643331E-05  6.22286937E-09 -2.71236080E-05
  5.92189706E-06 -2.02825036E-05 -1.11862215E-05  1.30458057E-09 -5.74462695E-10
 -1.20553769E-06 -7.56251509E-05 -4.69059454E-05 -3.01933803E-05  1.10368807E-09
  6.39808127E-04  8.21659004E-04 -2.04503651E-04 -2.39738300E-09  7.00019668E-05
  1.70323847E-05 -1.62393344E-05 -1.07842287E-05 -8.48079386E-10  1.55900688E-10
  2.31900175E-05  8.03286138E-05  5.03236256E-05 -2.52538057E-05 -1.66582149E-09
 -1.37170532E-03 -4.47079991E-04 -1.44242478E-03 -4.11777093E-09  4.33236868E-05
 -5.47296936E-06  2.96981619E-05  1.54751661E-05 -1.01918520E-10 -5.11435614E-10
  4.40256125E-05  2.74133305E-04 -1.36646772E-04  1.51115000E-04  3.19253361E-09
  1.40651395E-03 -2.91494236E-03  1.88200819E-03  1.58602842E-08 -3.57270954E-05
 -9.25688092E-06 -2.97484589E-05 -2.44494237E-05 -2.13520538E-09  1.81991982E-09