
    -----------------------------------------------------------------------
          Psi4: An Open-Source Ab Initio Electronic Structure Package
                               Psi4 1.3.2 release

                         Git: Rev {HEAD} ecbda83 


    R. M. Parrish, L. A. Burns, D. G. A. Smith, A. C. Simmonett,
    A. E. DePrince III, E. G. Hohenstein, U. Bozkaya, A. Yu. Sokolov,
    R. Di Remigio, R. M. Richard, J. F. Gonthier, A. M. James,
    H. R. McAlexander, A. Kumar, M. Saitow, X. Wang, B. P. Pritchard,
    P. Verma, H. F. Schaefer III, K. Patkowski, R. A. King, E. F. Valeev,
    F. A. Evangelista, J. M. Turney, T. D. Crawford, and C. D. Sherrill,
    J. Chem. Theory Comput. 13(7) pp 3185--3197 (2017).
    (doi: 10.1021/acs.jctc.7b00174)


                         Additional Contributions by
    P. Kraus, H. Kruse, M. H. Lechner, M. C. Schieber, R. A. Shaw,
    A. Alenaizan, R. Galvelis, Z. L. Glick, S. Lehtola, and J. P. Misiewicz

    -----------------------------------------------------------------------


    Psi4 started on: Saturday, 27 March 2021 08:58PM

    Process ID: 65512
    Host:       node142.bme.utexas.edu
    PSIDATADIR: /home/xy3866/psi4conda/share/psi4
    Memory:     500.0 MiB
    Threads:    8
    
  ==> Input File <==

--------------------------------------------------------------------------
#psi4
#
memory 32 gb

molecule  {
0 1
 Cl        0.2076870     2.2487580     0.1866360
  O        2.2653220     0.2846580    -0.8778020
  C        0.1642190    -0.4887810    -0.0665560
  C       -0.5729690     0.7033250     0.0302020
  C       -0.5420740    -1.7002010    -0.1332520
  C        1.6632570    -0.5094160    -0.1597980
  C       -1.9684630     0.6780340     0.0679080
  C       -1.9349490    -1.7304420    -0.1201220
  C       -2.6487990    -0.5355840    -0.0206560
  C        2.3930500    -1.5536810     0.6569590
  H        0.0096830    -2.6331730    -0.2140200
  H       -2.5123770     1.6138940     0.1595600
  H       -2.4587670    -2.6802070    -0.1882350
  H       -3.7356500    -0.5434820    -0.0013820
  H        2.2064120    -2.5587800     0.2654600
  H        2.0546340    -1.5354670     1.6969810
  H        3.4631710    -1.3484660     0.6031360
units angstrom
no_reorient  #important for SAPT in psi4, default
symmetry c1  #important for SAPT in psi4, default
}

set PROPERTIES_ORIGIN ["COM"]
properties('MP2/aug-cc-pvtz', properties = ['dipole'])
--------------------------------------------------------------------------

  Memory set to  29.802 GiB by Python driver.
    SCF Algorithm Type (re)set to DF.

*** tstart() called on node142.bme.utexas.edu
*** at Sat Mar 27 20:58:51 2021

   => Loading Basis Set <=

    Name: AUG-CC-PVTZ
    Role: ORBITAL
    Keyword: BASIS
    atoms 1     entry CL         line   984 file /home/xy3866/psi4conda/share/psi4/basis/aug-cc-pvtz.gbs 
    atoms 2     entry O          line   327 file /home/xy3866/psi4conda/share/psi4/basis/aug-cc-pvtz.gbs 
    atoms 3-10  entry C          line   235 file /home/xy3866/psi4conda/share/psi4/basis/aug-cc-pvtz.gbs 
    atoms 11-17 entry H          line    36 file /home/xy3866/psi4conda/share/psi4/basis/aug-cc-pvtz.gbs 


         ---------------------------------------------------------
                                   SCF
               by Justin Turney, Rob Parrish, Andy Simmonett
                          and Daniel G. A. Smith
                              RHF Reference
                        8 Threads,  30517 MiB Core
         ---------------------------------------------------------

  ==> Geometry <==

    Molecular point group: c1
    Full point group: C1

    Geometry (in Angstrom), charge = 0, multiplicity = 1:

       Center              X                  Y                   Z               Mass       
    ------------   -----------------  -----------------  -----------------  -----------------
         CL           0.200188129170     2.172227319565     0.200387821090    34.968852682000
         O            2.257823129170     0.208127319565    -0.864050178910    15.994914619570
         C            0.156720129170    -0.565311680435    -0.052804178910    12.000000000000
         C           -0.580467870830     0.626794319565     0.043953821090    12.000000000000
         C           -0.549572870830    -1.776731680435    -0.119500178910    12.000000000000
         C            1.655758129170    -0.585946680435    -0.146046178910    12.000000000000
         C           -1.975961870830     0.601503319565     0.081659821090    12.000000000000
         C           -1.942447870830    -1.806972680435    -0.106370178910    12.000000000000
         C           -2.656297870830    -0.612114680435    -0.006904178910    12.000000000000
         C            2.385551129170    -1.630211680435     0.670710821090    12.000000000000
         H            0.002184129170    -2.709703680435    -0.200268178910     1.007825032230
         H           -2.519875870830     1.537363319565     0.173311821090     1.007825032230
         H           -2.466265870830    -2.756737680435    -0.174483178910     1.007825032230
         H           -3.743148870830    -0.620012680435     0.012369821090     1.007825032230
         H            2.198913129170    -2.635310680435     0.279211821090     1.007825032230
         H            2.047135129170    -1.611997680435     1.710732821090     1.007825032230
         H            3.455672129170    -1.424996680435     0.616887821090     1.007825032230

  Running in c1 symmetry.

  Rotational constants: A =      0.04850  B =      0.03827  C =      0.02271 [cm^-1]
  Rotational constants: A =   1453.91343  B =   1147.27000  C =    680.68262 [MHz]
  Nuclear repulsion =  563.617446440355366

  Charge       = 0
  Multiplicity = 1
  Electrons    = 80
  Nalpha       = 40
  Nbeta        = 40

  ==> Algorithm <==

  SCF Algorithm Type is DF.
  DIIS enabled.
  MOM disabled.
  Fractional occupation disabled.
  Guess Type is SAD.
  Energy threshold   = 1.00e-10
  Density threshold  = 1.00e-10
  Integral threshold = 0.00e+00

  ==> Primary Basis <==

  Basis Set: AUG-CC-PVTZ
    Blend: AUG-CC-PVTZ
    Number of shells: 205
    Number of basis function: 625
    Number of Cartesian functions: 729
    Spherical Harmonics?: true
    Max angular momentum: 3

   => Loading Basis Set <=

    Name: (AUG-CC-PVTZ AUX)
    Role: JKFIT
    Keyword: DF_BASIS_SCF
    atoms 1     entry CL         line   816 file /home/xy3866/psi4conda/share/psi4/basis/aug-cc-pvtz-jkfit.gbs 
    atoms 2     entry O          line   286 file /home/xy3866/psi4conda/share/psi4/basis/aug-cc-pvtz-jkfit.gbs 
    atoms 3-10  entry C          line   162 file /home/xy3866/psi4conda/share/psi4/basis/aug-cc-pvtz-jkfit.gbs 
    atoms 11-17 entry H          line    70 file /home/xy3866/psi4conda/share/psi4/basis/aug-cc-pvtz-jkfit.gbs 

  ==> Pre-Iterations <==

   -------------------------------------------------------
    Irrep   Nso     Nmo     Nalpha   Nbeta   Ndocc  Nsocc
   -------------------------------------------------------
     A        625     625       0       0       0       0
   -------------------------------------------------------
    Total     625     625      40      40      40       0
   -------------------------------------------------------

  ==> Integral Setup <==

  DFHelper Memory: AOs need 4.020 GiB; user supplied 22.352 GiB. Using in-core AOs.

  ==> MemDFJK: Density-Fitted J/K Matrices <==

    J tasked:                   Yes
    K tasked:                   Yes
    wK tasked:                   No
    OpenMP threads:               8
    Memory [MiB]:             22888
    Algorithm:                 Disk
    Schwarz Cutoff:           1E-12
    Mask sparsity (%):       4.4749
    Fitting Condition:        1E-10

   => Auxiliary Basis Set <=

  Basis Set: (AUG-CC-PVTZ AUX)
    Blend: AUG-CC-PVTZ-JKFIT
    Number of shells: 410
    Number of basis function: 1404
    Number of Cartesian functions: 1744
    Spherical Harmonics?: true
    Max angular momentum: 4

  Minimum eigenvalue in the overlap matrix is 7.5639953626E-07.
  Using Symmetric Orthogonalization.

  SCF Guess: Superposition of Atomic Densities via on-the-fly atomic UHF.

  ==> Iterations <==

                           Total Energy        Delta E     RMS |[F,P]|

   @DF-RHF iter SAD:  -840.83997266592314   -8.40840e+02   0.00000e+00 
   @DF-RHF iter   1:  -841.24589296291333   -4.05920e-01   1.12399e-03 DIIS
   @DF-RHF iter   2:  -841.45905516308517   -2.13162e-01   6.35103e-04 DIIS
   @DF-RHF iter   3:  -841.52140514392102   -6.23500e-02   1.33879e-04 DIIS
   @DF-RHF iter   4:  -841.52580288468766   -4.39774e-03   6.53267e-05 DIIS
   @DF-RHF iter   5:  -841.52677707236091   -9.74188e-04   1.37481e-05 DIIS
   @DF-RHF iter   6:  -841.52686608489034   -8.90125e-05   6.62468e-06 DIIS
   @DF-RHF iter   7:  -841.52688957295800   -2.34881e-05   2.79642e-06 DIIS
   @DF-RHF iter   8:  -841.52689510703624   -5.53408e-06   1.19718e-06 DIIS
   @DF-RHF iter   9:  -841.52689618344459   -1.07641e-06   5.08889e-07 DIIS
   @DF-RHF iter  10:  -841.52689639027551   -2.06831e-07   1.93796e-07 DIIS
   @DF-RHF iter  11:  -841.52689642647681   -3.62013e-08   9.10718e-08 DIIS
   @DF-RHF iter  12:  -841.52689643280007   -6.32326e-09   4.15181e-08 DIIS
   @DF-RHF iter  13:  -841.52689643415681   -1.35674e-09   1.83653e-08 DIIS
   @DF-RHF iter  14:  -841.52689643434530   -1.88493e-10   6.46965e-09 DIIS
   @DF-RHF iter  15:  -841.52689643437816   -3.28555e-11   2.30671e-09 DIIS
   @DF-RHF iter  16:  -841.52689643438009   -1.93268e-12   8.73529e-10 DIIS
   @DF-RHF iter  17:  -841.52689643438157   -1.47793e-12   3.23709e-10 DIIS
   @DF-RHF iter  18:  -841.52689643438055    1.02318e-12   1.52742e-10 DIIS
   @DF-RHF iter  19:  -841.52689643438214   -1.59162e-12   8.70340e-11 DIIS
  Energy and wave function converged.


  ==> Post-Iterations <==

    Orbital Energies [Eh]
    ---------------------

    Doubly Occupied:                                                      

       1A   -104.841224     2A    -20.553324     3A    -11.346272  
       4A    -11.320403     5A    -11.270531     6A    -11.267398  
       7A    -11.263929     8A    -11.260083     9A    -11.258003  
      10A    -11.243073    11A    -10.565000    12A     -8.031897  
      13A     -8.029937    14A     -8.029881    15A     -1.384103  
      16A     -1.199466    17A     -1.126752    18A     -1.066451  
      19A     -1.013175    20A     -0.999808    21A     -0.876287  
      22A     -0.837932    23A     -0.771889    24A     -0.704277  
      25A     -0.668974    26A     -0.663827    27A     -0.634335  
      28A     -0.621723    29A     -0.603940    30A     -0.593740  
      31A     -0.564330    32A     -0.552179    33A     -0.536194  
      34A     -0.524386    35A     -0.497748    36A     -0.473609  
      37A     -0.457932    38A     -0.419841    39A     -0.361864  
      40A     -0.344385  

    Virtual:                                                              

      41A      0.022685    42A      0.029000    43A      0.035333  
      44A      0.043851    45A      0.046138    46A      0.054733  
      47A      0.064932    48A      0.069649    49A      0.079896  
      50A      0.084207    51A      0.087153    52A      0.090038  
      53A      0.098628    54A      0.105648    55A      0.108804  
      56A      0.113038    57A      0.115502    58A      0.120460  
      59A      0.126952    60A      0.129558    61A      0.131113  
      62A      0.133723    63A      0.137483    64A      0.140129  
      65A      0.144223    66A      0.144914    67A      0.155993  
      68A      0.161714    69A      0.164408    70A      0.165398  
      71A      0.171204    72A      0.180639    73A      0.184164  
      74A      0.192139    75A      0.195653    76A      0.197743  
      77A      0.204414    78A      0.209838    79A      0.219913  
      80A      0.226795    81A      0.229523    82A      0.243039  
      83A      0.248548    84A      0.252103    85A      0.256022  
      86A      0.263995    87A      0.269830    88A      0.276791  
      89A      0.284287    90A      0.288915    91A      0.292806  
      92A      0.294360    93A      0.299933    94A      0.306484  
      95A      0.307605    96A      0.314251    97A      0.317301  
      98A      0.318190    99A      0.326448   100A      0.331016  
     101A      0.337200   102A      0.341574   103A      0.351575  
     104A      0.353531   105A      0.360223   106A      0.362616  
     107A      0.374225   108A      0.384343   109A      0.389092  
     110A      0.392762   111A      0.399821   112A      0.402035  
     113A      0.411332   114A      0.412504   115A      0.419129  
     116A      0.422630   117A      0.423680   118A      0.431910  
     119A      0.435824   120A      0.444837   121A      0.448072  
     122A      0.453828   123A      0.461225   124A      0.463439  
     125A      0.465270   126A      0.467298   127A      0.473148  
     128A      0.483099   129A      0.485558   130A      0.492422  
     131A      0.496094   132A      0.497499   133A      0.499089  
     134A      0.504332   135A      0.506622   136A      0.513122  
     137A      0.518255   138A      0.521483   139A      0.526477  
     140A      0.530931   141A      0.535122   142A      0.545574  
     143A      0.549761   144A      0.552296   145A      0.562861  
     146A      0.570297   147A      0.576628   148A      0.582455  
     149A      0.587200   150A      0.596440   151A      0.606153  
     152A      0.614398   153A      0.623790   154A      0.629608  
     155A      0.631180   156A      0.641338   157A      0.647632  
     158A      0.654865   159A      0.669463   160A      0.669855  
     161A      0.675510   162A      0.683613   163A      0.689488  
     164A      0.698808   165A      0.704456   166A      0.712447  
     167A      0.720178   168A      0.724772   169A      0.740607  
     170A      0.743297   171A      0.759936   172A      0.765750  
     173A      0.773835   174A      0.774470   175A      0.784267  
     176A      0.796154   177A      0.812276   178A      0.815176  
     179A      0.816144   180A      0.824568   181A      0.837015  
     182A      0.839413   183A      0.847999   184A      0.852420  
     185A      0.858220   186A      0.861029   187A      0.865100  
     188A      0.871443   189A      0.877337   190A      0.882767  
     191A      0.890039   192A      0.893151   193A      0.895624  
     194A      0.901623   195A      0.905108   196A      0.914534  
     197A      0.919616   198A      0.925025   199A      0.931487  
     200A      0.934765   201A      0.943646   202A      0.950153  
     203A      0.955658   204A      0.956626   205A      0.963318  
     206A      0.970076   207A      0.981289   208A      0.987227  
     209A      0.992557   210A      1.000018   211A      1.004460  
     212A      1.009412   213A      1.020786   214A      1.029893  
     215A      1.032029   216A      1.038461   217A      1.042606  
     218A      1.049899   219A      1.060108   220A      1.061604  
     221A      1.063337   222A      1.071305   223A      1.076163  
     224A      1.083906   225A      1.086066   226A      1.092082  
     227A      1.096213   228A      1.101274   229A      1.110417  
     230A      1.115681   231A      1.122053   232A      1.123144  
     233A      1.130169   234A      1.138129   235A      1.144346  
     236A      1.154568   237A      1.156953   238A      1.162928  
     239A      1.171089   240A      1.180622   241A      1.185222  
     242A      1.190932   243A      1.205640   244A      1.207111  
     245A      1.211892   246A      1.213607   247A      1.225054  
     248A      1.230774   249A      1.235286   250A      1.241299  
     251A      1.249034   252A      1.253408   253A      1.259817  
     254A      1.264717   255A      1.288088   256A      1.292398  
     257A      1.302894   258A      1.306137   259A      1.318635  
     260A      1.327398   261A      1.339661   262A      1.351185  
     263A      1.360191   264A      1.366948   265A      1.373676  
     266A      1.375056   267A      1.392538   268A      1.401763  
     269A      1.411561   270A      1.416688   271A      1.424205  
     272A      1.437447   273A      1.447796   274A      1.458314  
     275A      1.460905   276A      1.478657   277A      1.486087  
     278A      1.491692   279A      1.503316   280A      1.516707  
     281A      1.530879   282A      1.534473   283A      1.546212  
     284A      1.551524   285A      1.558820   286A      1.570762  
     287A      1.580013   288A      1.592915   289A      1.604068  
     290A      1.612423   291A      1.620573   292A      1.637716  
     293A      1.647909   294A      1.654070   295A      1.657265  
     296A      1.669978   297A      1.674779   298A      1.679799  
     299A      1.697402   300A      1.709372   301A      1.716549  
     302A      1.726153   303A      1.732615   304A      1.748251  
     305A      1.754595   306A      1.761434   307A      1.772752  
     308A      1.774297   309A      1.781747   310A      1.787578  
     311A      1.796809   312A      1.813026   313A      1.837685  
     314A      1.841060   315A      1.844968   316A      1.852866  
     317A      1.854879   318A      1.872202   319A      1.881458  
     320A      1.885676   321A      1.898758   322A      1.914970  
     323A      1.924699   324A      1.927505   325A      1.942616  
     326A      1.950761   327A      1.959104   328A      1.964557  
     329A      1.971353   330A      1.984668   331A      1.995792  
     332A      2.001769   333A      2.008922   334A      2.017423  
     335A      2.028265   336A      2.034657   337A      2.039515  
     338A      2.057783   339A      2.067781   340A      2.082560  
     341A      2.089044   342A      2.101595   343A      2.112794  
     344A      2.123682   345A      2.126296   346A      2.139358  
     347A      2.151890   348A      2.185472   349A      2.194008  
     350A      2.201902   351A      2.206470   352A      2.214838  
     353A      2.222846   354A      2.248255   355A      2.264332  
     356A      2.273710   357A      2.274198   358A      2.293399  
     359A      2.303144   360A      2.314222   361A      2.327252  
     362A      2.336757   363A      2.345800   364A      2.359940  
     365A      2.389037   366A      2.401788   367A      2.425616  
     368A      2.444560   369A      2.456126   370A      2.468760  
     371A      2.482143   372A      2.499003   373A      2.519609  
     374A      2.537408   375A      2.543711   376A      2.548759  
     377A      2.575496   378A      2.586406   379A      2.607629  
     380A      2.619074   381A      2.661248   382A      2.673630  
     383A      2.675029   384A      2.696082   385A      2.708956  
     386A      2.739629   387A      2.749176   388A      2.759623  
     389A      2.764932   390A      2.786013   391A      2.799955  
     392A      2.819819   393A      2.834514   394A      2.872698  
     395A      2.883180   396A      2.903502   397A      2.931588  
     398A      2.953042   399A      3.003738   400A      3.015914  
     401A      3.040570   402A      3.052712   403A      3.081018  
     404A      3.099007   405A      3.129521   406A      3.148747  
     407A      3.164213   408A      3.174205   409A      3.187415  
     410A      3.199654   411A      3.219539   412A      3.223561  
     413A      3.254812   414A      3.266252   415A      3.276772  
     416A      3.285231   417A      3.287684   418A      3.312835  
     419A      3.319638   420A      3.327538   421A      3.332581  
     422A      3.357217   423A      3.375660   424A      3.383258  
     425A      3.396316   426A      3.403289   427A      3.416387  
     428A      3.421916   429A      3.425823   430A      3.435623  
     431A      3.453670   432A      3.459723   433A      3.473931  
     434A      3.496711   435A      3.502955   436A      3.515399  
     437A      3.531177   438A      3.540256   439A      3.548293  
     440A      3.566456   441A      3.573861   442A      3.580962  
     443A      3.590466   444A      3.602893   445A      3.614767  
     446A      3.623200   447A      3.634949   448A      3.655469  
     449A      3.664957   450A      3.677086   451A      3.681822  
     452A      3.690447   453A      3.716635   454A      3.732757  
     455A      3.737634   456A      3.767783   457A      3.769558  
     458A      3.785949   459A      3.802368   460A      3.816282  
     461A      3.824838   462A      3.841557   463A      3.850675  
     464A      3.853200   465A      3.865829   466A      3.874560  
     467A      3.881252   468A      3.895173   469A      3.911539  
     470A      3.918878   471A      3.935413   472A      3.951979  
     473A      3.968167   474A      3.973651   475A      3.978976  
     476A      3.987819   477A      4.004616   478A      4.009870  
     479A      4.010580   480A      4.039025   481A      4.049815  
     482A      4.061231   483A      4.069772   484A      4.090032  
     485A      4.094993   486A      4.112089   487A      4.125108  
     488A      4.127623   489A      4.140918   490A      4.157163  
     491A      4.158160   492A      4.179451   493A      4.184918  
     494A      4.198899   495A      4.201678   496A      4.218025  
     497A      4.239408   498A      4.256338   499A      4.273625  
     500A      4.276326   501A      4.293150   502A      4.324295  
     503A      4.332472   504A      4.342725   505A      4.349275  
     506A      4.363230   507A      4.367154   508A      4.377465  
     509A      4.386355   510A      4.399554   511A      4.415423  
     512A      4.426342   513A      4.441521   514A      4.453883  
     515A      4.463250   516A      4.494151   517A      4.499307  
     518A      4.512533   519A      4.535813   520A      4.536565  
     521A      4.568145   522A      4.581419   523A      4.621729  
     524A      4.626422   525A      4.651606   526A      4.664143  
     527A      4.682021   528A      4.713697   529A      4.720424  
     530A      4.731835   531A      4.736840   532A      4.750487  
     533A      4.782700   534A      4.791053   535A      4.810478  
     536A      4.838528   537A      4.857180   538A      4.882124  
     539A      4.893912   540A      4.913708   541A      4.925649  
     542A      4.944952   543A      4.952456   544A      4.962850  
     545A      4.987470   546A      5.000556   547A      5.021918  
     548A      5.059512   549A      5.065106   550A      5.079375  
     551A      5.097933   552A      5.108839   553A      5.134521  
     554A      5.140383   555A      5.145274   556A      5.175813  
     557A      5.189803   558A      5.213438   559A      5.225796  
     560A      5.243371   561A      5.260297   562A      5.302081  
     563A      5.307973   564A      5.328788   565A      5.351146  
     566A      5.363072   567A      5.372176   568A      5.403827  
     569A      5.415806   570A      5.447633   571A      5.480609  
     572A      5.510103   573A      5.568525   574A      5.599764  
     575A      5.625617   576A      5.664877   577A      5.670773  
     578A      5.702373   579A      5.720967   580A      5.774590  
     581A      5.824666   582A      5.872262   583A      5.998409  
     584A      6.002361   585A      6.057627   586A      6.071804  
     587A      6.120732   588A      6.145406   589A      6.166181  
     590A      6.190046   591A      6.199200   592A      6.246177  
     593A      6.319624   594A      6.372128   595A      6.419466  
     596A      6.479923   597A      6.604272   598A      6.729409  
     599A      6.742407   600A      6.765123   601A      6.783841  
     602A      6.817203   603A      6.940230   604A      7.041660  
     605A      7.066399   606A      7.097554   607A      7.180706  
     608A      7.253323   609A      7.397175   610A      7.479349  
     611A      7.510282   612A      7.645068   613A      7.747759  
     614A      7.886499   615A      7.965229   616A      8.591625  
     617A     15.326125   618A     15.944740   619A     16.227656  
     620A     17.206542   621A     18.298432   622A     18.903788  
     623A     19.632978   624A     19.768531   625A     20.590039  

    Final Occupation by Irrep:
              A 
    DOCC [    40 ]

  @DF-RHF Final Energy:  -841.52689643438214

   => Energetics <=

    Nuclear Repulsion Energy =            563.6174464403553657
    One-Electron Energy =               -2272.7284856215551372
    Two-Electron Energy =                 867.5841427468177471
    Total Energy =                       -841.5268964343821381

Computation Completed

*** tstop() called on node142.bme.utexas.edu at Sat Mar 27 21:00:07 2021
Module time:
	user time   =     326.23 seconds =       5.44 minutes
	system time =      41.22 seconds =       0.69 minutes
	total time  =         76 seconds =       1.27 minutes
Total time:
	user time   =     326.23 seconds =       5.44 minutes
	system time =      41.22 seconds =       0.69 minutes
	total time  =         76 seconds =       1.27 minutes
   => Loading Basis Set <=

    Name: (AUG-CC-PVTZ AUX)
    Role: RIFIT
    Keyword: DF_BASIS_MP2
    atoms 1     entry CL         line   742 file /home/xy3866/psi4conda/share/psi4/basis/aug-cc-pvtz-ri.gbs 
    atoms 2     entry O          line   264 file /home/xy3866/psi4conda/share/psi4/basis/aug-cc-pvtz-ri.gbs 
    atoms 3-10  entry C          line   148 file /home/xy3866/psi4conda/share/psi4/basis/aug-cc-pvtz-ri.gbs 
    atoms 11-17 entry H          line    30 file /home/xy3866/psi4conda/share/psi4/basis/aug-cc-pvtz-ri.gbs 


*** tstart() called on node142.bme.utexas.edu
*** at Sat Mar 27 21:00:07 2021


  //>>>>>>>>>>>>>>>>>>>>>>>>>>>>>>>>>>>//
  //               DFMP2               //
  //<<<<<<<<<<<<<<<<<<<<<<<<<<<<<<<<<<<//

	 --------------------------------------------------------
	                          DF-MP2                         
	      2nd-Order Density-Fitted Moller-Plesset Theory     
	              RMP2 Wavefunction,   8 Threads             
	                                                         
	        Rob Parrish, Justin Turney, Andy Simmonett,      
	           Ed Hohenstein, and C. David Sherrill          
	 --------------------------------------------------------

   => Auxiliary Basis Set <=

  Basis Set: (AUG-CC-PVTZ AUX)
    Blend: AUG-CC-PVTZ-RI
    Number of shells: 387
    Number of basis function: 1423
    Number of Cartesian functions: 1800
    Spherical Harmonics?: true
    Max angular momentum: 4

	 --------------------------------------------------------
	                 NBF =   625, NAUX =  1423
	 --------------------------------------------------------
	   CLASS    FOCC     OCC    AOCC    AVIR     VIR    FVIR
	   PAIRS       0      40      40     585     585       0
	 --------------------------------------------------------

  DFHelper Memory: AOs need 4.020 GiB; user supplied 22.352 GiB. Using in-core AOs.


         ------------------------------------------------------------
                                     CPHF                           
                                  Rob Parrish                       
         ------------------------------------------------------------

  ==> Geometry <==

    Molecular point group: c1
    Full point group: C1

    Geometry (in Angstrom), charge = 0, multiplicity = 1:

       Center              X                  Y                   Z               Mass       
    ------------   -----------------  -----------------  -----------------  -----------------
         CL           0.200188129170     2.172227319565     0.200387821090    34.968852682000
         O            2.257823129170     0.208127319565    -0.864050178910    15.994914619570
         C            0.156720129170    -0.565311680435    -0.052804178910    12.000000000000
         C           -0.580467870830     0.626794319565     0.043953821090    12.000000000000
         C           -0.549572870830    -1.776731680435    -0.119500178910    12.000000000000
         C            1.655758129170    -0.585946680435    -0.146046178910    12.000000000000
         C           -1.975961870830     0.601503319565     0.081659821090    12.000000000000
         C           -1.942447870830    -1.806972680435    -0.106370178910    12.000000000000
         C           -2.656297870830    -0.612114680435    -0.006904178910    12.000000000000
         C            2.385551129170    -1.630211680435     0.670710821090    12.000000000000
         H            0.002184129170    -2.709703680435    -0.200268178910     1.007825032230
         H           -2.519875870830     1.537363319565     0.173311821090     1.007825032230
         H           -2.466265870830    -2.756737680435    -0.174483178910     1.007825032230
         H           -3.743148870830    -0.620012680435     0.012369821090     1.007825032230
         H            2.198913129170    -2.635310680435     0.279211821090     1.007825032230
         H            2.047135129170    -1.611997680435     1.710732821090     1.007825032230
         H            3.455672129170    -1.424996680435     0.616887821090     1.007825032230

  Nuclear repulsion =  563.617446440355366
  Reference energy  = -841.526896434382138

  ==> Basis Set <==

  Basis Set: AUG-CC-PVTZ
    Blend: AUG-CC-PVTZ
    Number of shells: 205
    Number of basis function: 625
    Number of Cartesian functions: 729
    Spherical Harmonics?: true
    Max angular momentum: 3

  ==> CGRSolver (by Rob Parrish) <==

   Number of roots    =         1
   Preconditioning    =    JACOBI
   Convergence cutoff =     1E-06
   Maximum iterations =       100

  ==> CPHFRHamiltonian (by Rob Parrish) <== 

  ==> MemDFJK: Density-Fitted J/K Matrices <==

    J tasked:                   Yes
    K tasked:                   Yes
    wK tasked:                   No
    OpenMP threads:               8
    Memory [MiB]:             22888
    Algorithm:                 Disk
    Schwarz Cutoff:           1E-12
    Mask sparsity (%):       4.4749
    Fitting Condition:        1E-10

   => Auxiliary Basis Set <=

  Basis Set: (AUG-CC-PVTZ AUX)
    Blend: AUG-CC-PVTZ-JKFIT
    Number of shells: 410
    Number of basis function: 1404
    Number of Cartesian functions: 1744
    Spherical Harmonics?: true
    Max angular momentum: 4

  ==> CPHF Iterations <==

  => Iterations <=

             Iter  Converged  Remaining    Residual
  CGR           1          0          1   1.091E-01
  CGR           2          0          1   3.113E-02
  CGR           3          0          1   1.098E-02
  CGR           4          0          1   5.143E-03
  CGR           5          0          1   2.403E-03
  CGR           6          0          1   1.121E-03
  CGR           7          0          1   4.267E-04
  CGR           8          0          1   1.748E-04
  CGR           9          0          1   6.708E-05
  CGR          10          0          1   2.808E-05
  CGR          11          0          1   1.207E-05
  CGR          12          0          1   4.020E-06
  CGR          13          0          1   1.676E-06
  CGR          14          1          0   7.213E-07

    CGRSolver converged.

	-----------------------------------------------------------
	 ==================> DF-MP2 Energies <==================== 
	-----------------------------------------------------------
	 Reference Energy          =    -841.5268964343821381 [Eh]
	 Singles Energy            =      -0.0000000000000000 [Eh]
	 Same-Spin Energy          =      -0.4742275800313086 [Eh]
	 Opposite-Spin Energy      =      -1.4491255641464482 [Eh]
	 Correlation Energy        =      -1.9233531441777569 [Eh]
	 Total Energy              =    -843.4502495785599194 [Eh]
	-----------------------------------------------------------
	 ================> DF-SCS-MP2 Energies <================== 
	-----------------------------------------------------------
	 SCS Same-Spin Scale       =       0.3333333333333333 [-]
	 SCS Opposite-Spin Scale   =       1.2000000000000000 [-]
	 SCS Same-Spin Energy      =      -0.1580758600104362 [Eh]
	 SCS Opposite-Spin Energy  =      -1.7389506769757379 [Eh]
	 SCS Correlation Energy    =      -1.8970265369861741 [Eh]
	 SCS Total Energy          =    -843.4239229713682562 [Eh]
	-----------------------------------------------------------



Properties will be evaluated at   0.000000,   0.000000,  -0.000000 [a0]

Properties computed using the MP2 density matrix

  Nuclear Dipole Moment: [e a0]
     X:    -1.1337      Y:   -11.5698      Z:     2.0790

  Electronic Dipole Moment: [e a0]
     X:     0.2663      Y:    10.3930      Z:    -1.5174

  Dipole Moment: [e a0]
     X:    -0.8673      Y:    -1.1768      Z:     0.5616     Total:     1.5660

  Dipole Moment: [D]
     X:    -2.2046      Y:    -2.9910      Z:     1.4274     Total:     3.9804


*** tstop() called on node142.bme.utexas.edu at Sat Mar 27 21:02:57 2021
Module time:
	user time   =     972.90 seconds =      16.21 minutes
	system time =      50.04 seconds =       0.83 minutes
	total time  =        170 seconds =       2.83 minutes
Total time:
	user time   =    1299.30 seconds =      21.65 minutes
	system time =      91.26 seconds =       1.52 minutes
	total time  =        246 seconds =       4.10 minutes

    Psi4 stopped on: Saturday, 27 March 2021 09:02PM
    Psi4 wall time for execution: 0:04:06.41

*** Psi4 exiting successfully. Buy a developer a beer!
