212_135-Trichlorobenzene Gaussian OPT Calculation on node144.bme.utexas.
Freq      RMP2-FC                                                     6-31G(d)            
Number of atoms                            I               12
Info1-9                                    I   N=           9
          22          22        1002           0           0         100
           6           2           1
Charge                                     I                0
Multiplicity                               I                1
Number of electrons                        I               90
Number of alpha electrons                  I               45
Number of beta electrons                   I               45
Number of basis functions                  I              153
Number of independent functions            I              153
Number of point charges in /Mol/           I                0
Number of translation vectors              I                0
Atomic numbers                             I   N=          12
          17          17          17           6           6           6
           6           6           6           1           1           1
Nuclear charges                            R   N=          12
  1.70000000E+01  1.70000000E+01  1.70000000E+01  6.00000000E+00  6.00000000E+00
  6.00000000E+00  6.00000000E+00  6.00000000E+00  6.00000000E+00  1.00000000E+00
  1.00000000E+00  1.00000000E+00
Current cartesian coordinates              R   N=          36
 -5.89015006E+00 -3.68857173E-06  0.00000000E+00  2.94507568E+00  5.10102325E+00
  0.00000000E+00  2.94507201E+00 -5.10102324E+00  0.00000000E+00 -2.60942982E+00
  2.66568304E-06 -1.23259516E-32  1.30471740E+00  2.25983513E+00  9.86076132E-32
  1.30471740E+00 -2.25983421E+00  0.00000000E+00 -1.32997451E+00  2.30358905E+00
 -4.93038066E-32 -1.32997408E+00 -2.30358465E+00  9.86076132E-32  2.65995126E+00
 -1.82240853E-07 -1.23259516E-32 -2.35529545E+00  4.07949232E+00 -4.93038066E-32
 -2.35529960E+00 -4.07948554E+00  1.97215226E-31  4.71058955E+00  8.91653755E-06
 -2.46519033E-32
Force Field                                I                0
Int Atom Types                             I   N=          12
           0           0           0           0           0           0
           0           0           0           0           0           0
MM charges                                 R   N=          12
  0.00000000E+00  0.00000000E+00  0.00000000E+00  0.00000000E+00  0.00000000E+00
  0.00000000E+00  0.00000000E+00  0.00000000E+00  0.00000000E+00  0.00000000E+00
  0.00000000E+00  0.00000000E+00
Integer atomic weights                     I   N=          12
          35          35          35          12          12          12
          12          12          12           1           1           1
Real atomic weights                        R   N=          12
  3.49688527E+01  3.49688527E+01  3.49688527E+01  1.20000000E+01  1.20000000E+01
  1.20000000E+01  1.20000000E+01  1.20000000E+01  1.20000000E+01  1.00782504E+00
  1.00782504E+00  1.00782504E+00
Atom fragment info                         I   N=          12
           0           0           0           0           0           0
           0           0           0           0           0           0
Atom residue num                           I   N=          12
           0           0           0           0           0           0
           0           0           0           0           0           0
Nuclear spins                              I   N=          12
           3           3           3           0           0           0
           0           0           0           1           1           1
Nuclear ZEff                               R   N=          12
 -1.42400000E+01 -1.42400000E+01 -1.42400000E+01 -3.60000000E+00 -3.60000000E+00
 -3.60000000E+00 -3.60000000E+00 -3.60000000E+00 -3.60000000E+00 -1.00000000E+00
 -1.00000000E+00 -1.00000000E+00
Nuclear QMom                               R   N=          12
 -8.16500000E+00 -8.16500000E+00 -8.16500000E+00  0.00000000E+00  0.00000000E+00
  0.00000000E+00  0.00000000E+00  0.00000000E+00  0.00000000E+00  0.00000000E+00
  0.00000000E+00  0.00000000E+00
Nuclear GFac                               R   N=          12
  8.21874000E-01  8.21874000E-01  8.21874000E-01  0.00000000E+00  0.00000000E+00
  0.00000000E+00  0.00000000E+00  0.00000000E+00  0.00000000E+00  2.79284600E+00
  2.79284600E+00  2.79284600E+00
MicOpt                                     I   N=          12
          -1          -1          -1          -1          -1          -1
          -1          -1          -1          -1          -1          -1
Number of contracted shells                I               45
Number of primitive shells                 I              129
Pure/Cartesian d shells                    I                1
Pure/Cartesian f shells                    I                0
Highest angular momentum                   I                2
Largest degree of contraction              I                6
Shell types                                I   N=          45
           0          -1          -1          -1           2           0
          -1          -1          -1           2           0          -1
          -1          -1           2           0          -1          -1
           2           0          -1          -1           2           0
          -1          -1           2           0          -1          -1
           2           0          -1          -1           2           0
          -1          -1           2           0           0           0
           0           0           0
Number of primitives per shell             I   N=          45
           6           6           3           1           1           6
           6           3           1           1           6           6
           3           1           1           6           3           1
           1           6           3           1           1           6
           3           1           1           6           3           1
           1           6           3           1           1           6
           3           1           1           3           1           3
           1           3           1
Shell to atom map                          I   N=          45
           1           1           1           1           1           2
           2           2           2           2           3           3
           3           3           3           4           4           4
           4           5           5           5           5           6
           6           6           6           7           7           7
           7           8           8           8           8           9
           9           9           9          10          10          11
          11          12          12
Primitive exponents                        R   N=         129
  2.51801000E+04  3.78035000E+03  8.60474000E+02  2.42145000E+02  7.73349000E+01
  2.62470000E+01  4.91765000E+02  1.16984000E+02  3.74153000E+01  1.37834000E+01
  5.45215000E+00  2.22588000E+00  3.18649000E+00  1.14427000E+00  4.20377000E-01
  1.42657000E-01  7.50000000E-01  2.51801000E+04  3.78035000E+03  8.60474000E+02
  2.42145000E+02  7.73349000E+01  2.62470000E+01  4.91765000E+02  1.16984000E+02
  3.74153000E+01  1.37834000E+01  5.45215000E+00  2.22588000E+00  3.18649000E+00
  1.14427000E+00  4.20377000E-01  1.42657000E-01  7.50000000E-01  2.51801000E+04
  3.78035000E+03  8.60474000E+02  2.42145000E+02  7.73349000E+01  2.62470000E+01
  4.91765000E+02  1.16984000E+02  3.74153000E+01  1.37834000E+01  5.45215000E+00
  2.22588000E+00  3.18649000E+00  1.14427000E+00  4.20377000E-01  1.42657000E-01
  7.50000000E-01  3.04752488E+03  4.57369518E+02  1.03948685E+02  2.92101553E+01
  9.28666296E+00  3.16392696E+00  7.86827235E+00  1.88128854E+00  5.44249258E-01
  1.68714478E-01  8.00000000E-01  3.04752488E+03  4.57369518E+02  1.03948685E+02
  2.92101553E+01  9.28666296E+00  3.16392696E+00  7.86827235E+00  1.88128854E+00
  5.44249258E-01  1.68714478E-01  8.00000000E-01  3.04752488E+03  4.57369518E+02
  1.03948685E+02  2.92101553E+01  9.28666296E+00  3.16392696E+00  7.86827235E+00
  1.88128854E+00  5.44249258E-01  1.68714478E-01  8.00000000E-01  3.04752488E+03
  4.57369518E+02  1.03948685E+02  2.92101553E+01  9.28666296E+00  3.16392696E+00
  7.86827235E+00  1.88128854E+00  5.44249258E-01  1.68714478E-01  8.00000000E-01
  3.04752488E+03  4.57369518E+02  1.03948685E+02  2.92101553E+01  9.28666296E+00
  3.16392696E+00  7.86827235E+00  1.88128854E+00  5.44249258E-01  1.68714478E-01
  8.00000000E-01  3.04752488E+03  4.57369518E+02  1.03948685E+02  2.92101553E+01
  9.28666296E+00  3.16392696E+00  7.86827235E+00  1.88128854E+00  5.44249258E-01
  1.68714478E-01  8.00000000E-01  1.87311370E+01  2.82539436E+00  6.40121692E-01
  1.61277759E-01  1.87311370E+01  2.82539436E+00  6.40121692E-01  1.61277759E-01
  1.87311370E+01  2.82539436E+00  6.40121692E-01  1.61277759E-01
Contraction coefficients                   R   N=         129
  1.83295985E-03  1.40341988E-02  6.90973943E-02  2.37451980E-01  4.83033960E-01
  3.39855972E-01 -2.29739142E-03 -3.07137189E-02 -1.12528069E-01  4.50163278E-02
  5.89353363E-01  4.65206287E-01 -2.51828028E-01  6.15892514E-02  1.06018433E+00
  1.00000000E+00  1.00000000E+00  1.83295985E-03  1.40341988E-02  6.90973943E-02
  2.37451980E-01  4.83033960E-01  3.39855972E-01 -2.29739142E-03 -3.07137189E-02
 -1.12528069E-01  4.50163278E-02  5.89353363E-01  4.65206287E-01 -2.51828028E-01
  6.15892514E-02  1.06018433E+00  1.00000000E+00  1.00000000E+00  1.83295985E-03
  1.40341988E-02  6.90973943E-02  2.37451980E-01  4.83033960E-01  3.39855972E-01
 -2.29739142E-03 -3.07137189E-02 -1.12528069E-01  4.50163278E-02  5.89353363E-01
  4.65206287E-01 -2.51828028E-01  6.15892514E-02  1.06018433E+00  1.00000000E+00
  1.00000000E+00  1.83473713E-03  1.40373228E-02  6.88426223E-02  2.32184443E-01
  4.67941348E-01  3.62311985E-01 -1.19332420E-01 -1.60854152E-01  1.14345644E+00
  1.00000000E+00  1.00000000E+00  1.83473713E-03  1.40373228E-02  6.88426223E-02
  2.32184443E-01  4.67941348E-01  3.62311985E-01 -1.19332420E-01 -1.60854152E-01
  1.14345644E+00  1.00000000E+00  1.00000000E+00  1.83473713E-03  1.40373228E-02
  6.88426223E-02  2.32184443E-01  4.67941348E-01  3.62311985E-01 -1.19332420E-01
 -1.60854152E-01  1.14345644E+00  1.00000000E+00  1.00000000E+00  1.83473713E-03
  1.40373228E-02  6.88426223E-02  2.32184443E-01  4.67941348E-01  3.62311985E-01
 -1.19332420E-01 -1.60854152E-01  1.14345644E+00  1.00000000E+00  1.00000000E+00
  1.83473713E-03  1.40373228E-02  6.88426223E-02  2.32184443E-01  4.67941348E-01
  3.62311985E-01 -1.19332420E-01 -1.60854152E-01  1.14345644E+00  1.00000000E+00
  1.00000000E+00  1.83473713E-03  1.40373228E-02  6.88426223E-02  2.32184443E-01
  4.67941348E-01  3.62311985E-01 -1.19332420E-01 -1.60854152E-01  1.14345644E+00
  1.00000000E+00  1.00000000E+00  3.34946043E-02  2.34726953E-01  8.13757326E-01
  1.00000000E+00  3.34946043E-02  2.34726953E-01  8.13757326E-01  1.00000000E+00
  3.34946043E-02  2.34726953E-01  8.13757326E-01  1.00000000E+00
P(S=P) Contraction coefficients            R   N=         129
  0.00000000E+00  0.00000000E+00  0.00000000E+00  0.00000000E+00  0.00000000E+00
  0.00000000E+00  3.98940088E-03  3.03177067E-02  1.29880029E-01  3.27951072E-01
  4.53527100E-01  2.52154056E-01 -1.42993147E-02  3.23572333E-01  7.43507765E-01
  1.00000000E+00  0.00000000E+00  0.00000000E+00  0.00000000E+00  0.00000000E+00
  0.00000000E+00  0.00000000E+00  0.00000000E+00  3.98940088E-03  3.03177067E-02
  1.29880029E-01  3.27951072E-01  4.53527100E-01  2.52154056E-01 -1.42993147E-02
  3.23572333E-01  7.43507765E-01  1.00000000E+00  0.00000000E+00  0.00000000E+00
  0.00000000E+00  0.00000000E+00  0.00000000E+00  0.00000000E+00  0.00000000E+00
  3.98940088E-03  3.03177067E-02  1.29880029E-01  3.27951072E-01  4.53527100E-01
  2.52154056E-01 -1.42993147E-02  3.23572333E-01  7.43507765E-01  1.00000000E+00
  0.00000000E+00  0.00000000E+00  0.00000000E+00  0.00000000E+00  0.00000000E+00
  0.00000000E+00  0.00000000E+00  6.89990666E-02  3.16423961E-01  7.44308291E-01
  1.00000000E+00  0.00000000E+00  0.00000000E+00  0.00000000E+00  0.00000000E+00
  0.00000000E+00  0.00000000E+00  0.00000000E+00  6.89990666E-02  3.16423961E-01
  7.44308291E-01  1.00000000E+00  0.00000000E+00  0.00000000E+00  0.00000000E+00
  0.00000000E+00  0.00000000E+00  0.00000000E+00  0.00000000E+00  6.89990666E-02
  3.16423961E-01  7.44308291E-01  1.00000000E+00  0.00000000E+00  0.00000000E+00
  0.00000000E+00  0.00000000E+00  0.00000000E+00  0.00000000E+00  0.00000000E+00
  6.89990666E-02  3.16423961E-01  7.44308291E-01  1.00000000E+00  0.00000000E+00
  0.00000000E+00  0.00000000E+00  0.00000000E+00  0.00000000E+00  0.00000000E+00
  0.00000000E+00  6.89990666E-02  3.16423961E-01  7.44308291E-01  1.00000000E+00
  0.00000000E+00  0.00000000E+00  0.00000000E+00  0.00000000E+00  0.00000000E+00
  0.00000000E+00  0.00000000E+00  6.89990666E-02  3.16423961E-01  7.44308291E-01
  1.00000000E+00  0.00000000E+00  0.00000000E+00  0.00000000E+00  0.00000000E+00
  0.00000000E+00  0.00000000E+00  0.00000000E+00  0.00000000E+00  0.00000000E+00
  0.00000000E+00  0.00000000E+00  0.00000000E+00  0.00000000E+00
Coordinates of each shell                  R   N=         135
 -5.89015006E+00 -3.68857173E-06  4.93038066E-32 -5.89015006E+00 -3.68857173E-06
  4.93038066E-32 -5.89015006E+00 -3.68857173E-06  4.93038066E-32 -5.89015006E+00
 -3.68857173E-06  4.93038066E-32 -5.89015006E+00 -3.68857173E-06  4.93038066E-32
  2.94507568E+00  5.10102325E+00  0.00000000E+00  2.94507568E+00  5.10102325E+00
  0.00000000E+00  2.94507568E+00  5.10102325E+00  0.00000000E+00  2.94507568E+00
  5.10102325E+00  0.00000000E+00  2.94507568E+00  5.10102325E+00  0.00000000E+00
  2.94507201E+00 -5.10102324E+00  0.00000000E+00  2.94507201E+00 -5.10102324E+00
  0.00000000E+00  2.94507201E+00 -5.10102324E+00  0.00000000E+00  2.94507201E+00
 -5.10102324E+00  0.00000000E+00  2.94507201E+00 -5.10102324E+00  0.00000000E+00
 -2.60942982E+00  2.66568304E-06  1.23259516E-32 -2.60942982E+00  2.66568304E-06
  1.23259516E-32 -2.60942982E+00  2.66568304E-06  1.23259516E-32 -2.60942982E+00
  2.66568304E-06  1.23259516E-32  1.30471740E+00  2.25983513E+00  4.93038066E-32
  1.30471740E+00  2.25983513E+00  4.93038066E-32  1.30471740E+00  2.25983513E+00
  4.93038066E-32  1.30471740E+00  2.25983513E+00  4.93038066E-32  1.30471740E+00
 -2.25983421E+00  2.46519033E-32  1.30471740E+00 -2.25983421E+00  2.46519033E-32
  1.30471740E+00 -2.25983421E+00  2.46519033E-32  1.30471740E+00 -2.25983421E+00
  2.46519033E-32 -1.32997451E+00  2.30358905E+00 -2.46519033E-32 -1.32997451E+00
  2.30358905E+00 -2.46519033E-32 -1.32997451E+00  2.30358905E+00 -2.46519033E-32
 -1.32997451E+00  2.30358905E+00 -2.46519033E-32 -1.32997408E+00 -2.30358465E+00
  4.93038066E-32 -1.32997408E+00 -2.30358465E+00  4.93038066E-32 -1.32997408E+00
 -2.30358465E+00  4.93038066E-32 -1.32997408E+00 -2.30358465E+00  4.93038066E-32
  2.65995126E+00 -1.82240853E-07  0.00000000E+00  2.65995126E+00 -1.82240853E-07
  0.00000000E+00  2.65995126E+00 -1.82240853E-07  0.00000000E+00  2.65995126E+00
 -1.82240853E-07  0.00000000E+00 -2.35529545E+00  4.07949232E+00  0.00000000E+00
 -2.35529545E+00  4.07949232E+00  0.00000000E+00 -2.35529960E+00 -4.07948554E+00
  9.86076132E-32 -2.35529960E+00 -4.07948554E+00  9.86076132E-32  4.71058955E+00
  8.91653755E-06 -2.46519033E-32  4.71058955E+00  8.91653755E-06 -2.46519033E-32
Constraint Structure                       R   N=          36
 -5.89015006E+00 -3.68857173E-06  4.93038066E-32  2.94507568E+00  5.10102325E+00
  0.00000000E+00  2.94507201E+00 -5.10102324E+00  0.00000000E+00 -2.60942982E+00
  2.66568304E-06  1.23259516E-32  1.30471740E+00  2.25983513E+00  4.93038066E-32
  1.30471740E+00 -2.25983421E+00  2.46519033E-32 -1.32997451E+00  2.30358905E+00
 -2.46519033E-32 -1.32997408E+00 -2.30358465E+00  4.93038066E-32  2.65995126E+00
 -1.82240853E-07  0.00000000E+00 -2.35529545E+00  4.07949232E+00  0.00000000E+00
 -2.35529960E+00 -4.07948554E+00  9.86076132E-32  4.71058955E+00  8.91653755E-06
 -2.46519033E-32
Num ILSW                                   I              100
ILSW                                       I   N=         100
           0           1           0           0           2           0
           0           0           0           0           0          -1
           0           0           0           0           0           0
           0           0           0           0           1           0
           1           0           0           0           0           0
           0           0      100000           0          -1           0
           0           0           0           0           0           0
           0           0           0           1           1           0
           0           0           1           0           0           0
           0           0           4          40           0           0
           0           0           0           0           0           0
           0           0           0           0           0           0
           0           0           0           0           0           0
           0           0           0           0           0           0
           0           0           0           0           0           0
           0           0           0           0           0           0
           0           0           0           0
Num RLSW                                   I               40
RLSW                                       R   N=          40
  1.00000000E+00  1.00000000E+00  1.00000000E+00  1.00000000E+00  1.00000000E+00
  0.00000000E+00  0.00000000E+00  1.00000000E+00  0.00000000E+00  0.00000000E+00
  0.00000000E+00  0.00000000E+00  1.00000000E+00  0.00000000E+00  0.00000000E+00
  0.00000000E+00  0.00000000E+00  1.00000000E+00  0.00000000E+00  0.00000000E+00
  0.00000000E+00  0.00000000E+00  1.00000000E+00  0.00000000E+00  0.00000000E+00
  0.00000000E+00  0.00000000E+00  1.00000000E+00  0.00000000E+00  0.00000000E+00
  0.00000000E+00  0.00000000E+00  0.00000000E+00  0.00000000E+00  0.00000000E+00
  0.00000000E+00  0.00000000E+00  0.00000000E+00  1.00000000E+00  1.00000000E+00
MxBond                                     I                3
NBond                                      I   N=          12
           1           1           1           3           3           3
           3           3           3           1           1           1
IBond                                      I   N=          36
           4           0           0           5           0           0
           6           0           0           1           7           8
           2           7           9           3           8           9
           4           5          10           4           6          11
           5           6          12           7           0           0
           8           0           0           9           0           0
RBond                                      R   N=          36
  1.00000000E+00  0.00000000E+00  0.00000000E+00  1.00000000E+00  0.00000000E+00
  0.00000000E+00  1.00000000E+00  0.00000000E+00  0.00000000E+00  1.00000000E+00
  1.50000000E+00  1.50000000E+00  1.00000000E+00  1.50000000E+00  1.50000000E+00
  1.00000000E+00  1.50000000E+00  1.50000000E+00  1.50000000E+00  1.50000000E+00
  1.00000000E+00  1.50000000E+00  1.50000000E+00  1.00000000E+00  1.50000000E+00
  1.50000000E+00  1.00000000E+00  1.00000000E+00  0.00000000E+00  0.00000000E+00
  1.00000000E+00  0.00000000E+00  0.00000000E+00  1.00000000E+00  0.00000000E+00
  0.00000000E+00
Virial Ratio                               R      2.000678871007400E+00
SCF Energy                                 R     -1.607396647429273E+03
MP2 Energy                                 R     -1.608552059848184E+03
Total Energy                               R     -1.608552059848184E+03
Post-SCF wavefunction norm                 R      1.692098515700192E+00
RMS Force                                  R      6.142691569446434E-07
RMS Density                                R      4.071769258971250E-09
External E-field                           R   N=          35
  0.00000000E+00  0.00000000E+00  0.00000000E+00  0.00000000E+00  0.00000000E+00
  0.00000000E+00  0.00000000E+00  0.00000000E+00  0.00000000E+00  0.00000000E+00
  0.00000000E+00  0.00000000E+00  0.00000000E+00  0.00000000E+00  0.00000000E+00
  0.00000000E+00  0.00000000E+00  0.00000000E+00  0.00000000E+00  0.00000000E+00
  0.00000000E+00  0.00000000E+00  0.00000000E+00  0.00000000E+00  0.00000000E+00
  0.00000000E+00  0.00000000E+00  0.00000000E+00  0.00000000E+00  0.00000000E+00
  0.00000000E+00  0.00000000E+00  0.00000000E+00  0.00000000E+00  0.00000000E+00
IOpCl                                      I                0
IROHF                                      I                0
Alpha Orbital Energies                     R   N=         153
 -1.04846414E+02 -1.04846414E+02 -1.04846414E+02 -1.13358163E+01 -1.13358013E+01
 -1.13358010E+01 -1.12805773E+01 -1.12805772E+01 -1.12805433E+01 -1.05798338E+01
 -1.05798337E+01 -1.05798327E+01 -8.04925656E+00 -8.04925648E+00 -8.04925473E+00
 -8.04580028E+00 -8.04579359E+00 -8.04579351E+00 -8.04577397E+00 -8.04577334E+00
 -8.04577326E+00 -1.23596730E+00 -1.17552953E+00 -1.17552929E+00 -1.09354721E+00
 -1.01868957E+00 -1.01868932E+00 -8.41480804E-01 -8.41480419E-01 -7.26214592E-01
 -6.99305533E-01 -6.43415013E-01 -6.15568360E-01 -6.15568102E-01 -5.89256990E-01
 -5.49414996E-01 -5.49414769E-01 -5.20601255E-01 -5.20601098E-01 -4.77462962E-01
 -4.77462903E-01 -4.63638404E-01 -4.51232161E-01 -3.56191273E-01 -3.56191066E-01
  9.89002934E-02  9.89004417E-02  1.46488610E-01  2.17165161E-01  2.17165213E-01
  2.80059586E-01  2.98975315E-01  2.98975584E-01  3.08675039E-01  3.83768650E-01
  3.83768819E-01  4.42564751E-01  4.42564993E-01  4.95699329E-01  5.24147753E-01
  5.80095399E-01  5.80095541E-01  5.86368356E-01  6.11220330E-01  6.14258843E-01
  6.14258950E-01  6.25160901E-01  6.25160958E-01  6.64862872E-01  6.64863067E-01
  6.67149181E-01  6.75671923E-01  7.32391208E-01  7.64583771E-01  8.09008923E-01
  8.09009248E-01  8.10952125E-01  8.10952259E-01  8.51294360E-01  8.71467108E-01
  8.71467254E-01  9.50975167E-01  9.63781002E-01  9.63781123E-01  1.02743294E+00
  1.04887675E+00  1.04887749E+00  1.07382150E+00  1.08709585E+00  1.08709687E+00
  1.12668724E+00  1.13229861E+00  1.13229870E+00  1.14123015E+00  1.15334097E+00
  1.16822079E+00  1.16822111E+00  1.18163417E+00  1.18163449E+00  1.23695149E+00
  1.24982395E+00  1.24982441E+00  1.35470037E+00  1.38359752E+00  1.38359808E+00
  1.41025170E+00  1.41025216E+00  1.44937809E+00  1.45466162E+00  1.51867229E+00
  1.62876239E+00  1.62876257E+00  1.66442148E+00  1.66442167E+00  1.70507167E+00
  1.70507206E+00  1.74531790E+00  1.83870127E+00  1.83870153E+00  1.99356050E+00
  2.07146325E+00  2.08023345E+00  2.22871504E+00  2.24151441E+00  2.24151555E+00
  2.37350790E+00  2.37350857E+00  2.41618374E+00  2.41618465E+00  2.43037562E+00
  2.43037609E+00  2.57573820E+00  2.57573879E+00  2.59813306E+00  2.84119352E+00
  2.84119550E+00  2.93730205E+00  2.99169380E+00  2.99169386E+00  3.08386446E+00
  3.08386516E+00  3.08903527E+00  3.34831664E+00  3.65704652E+00  4.44755351E+00
  4.46001383E+00  4.46001405E+00  4.64305659E+00  4.64305684E+00  4.71033076E+00
  4.78568631E+00  4.78568635E+00  5.05186323E+00
Alpha MO coefficients                      R   N=       23409
  2.74089915E-01  4.02945328E-03  1.58055488E-05 -6.04327825E-09  0.00000000E+00
 -4.88365211E-03 -1.07362760E-05 -5.65058741E-09  0.00000000E+00  4.25029718E-04
  3.02667092E-05 -6.75200058E-07  0.00000000E+00  1.72962869E-03  1.72258419E-03
  1.72271118E-03 -1.53827410E-07  0.00000000E+00  0.00000000E+00  6.03746680E-01
  8.87577642E-03 -1.81721471E-05 -3.15160178E-05  0.00000000E+00 -1.07520602E-02
  1.64119633E-05  2.83882890E-05  0.00000000E+00  8.90327541E-04 -1.81695212E-05
 -3.60091230E-05  0.00000000E+00  3.79698391E-03  3.80052892E-03  3.79406954E-03
  2.51081673E-06  0.00000000E+00  0.00000000E+00  7.43379732E-01  1.09285385E-02
 -2.25346886E-05  3.90601164E-05  0.00000000E+00 -1.32377479E-02  2.10778935E-05
 -3.64812809E-05  0.00000000E+00  1.08741410E-03 -2.08727031E-05  3.93407484E-05
  0.00000000E+00  4.67517326E-03  4.67816863E-03  4.67143696E-03 -2.26886196E-06
  0.00000000E+00  0.00000000E+00  1.13353786E-06  2.27106092E-05 -1.95613319E-05
  2.44266751E-07  0.00000000E+00 -1.55725425E-04 -1.44484882E-05  8.15080662E-06
  0.00000000E+00 -1.63326998E-05  1.66673700E-05 -5.81306706E-06  1.21079066E-07
  0.00000000E+00  0.00000000E+00  3.44161431E-06  5.17080756E-05  1.26683801E-05
  2.35843192E-05  0.00000000E+00 -1.59220380E-04  1.36499384E-05  7.84308438E-05
  0.00000000E+00  1.26853480E-05 -1.59395381E-05 -5.84150604E-06 -2.78105343E-05
  0.00000000E+00  0.00000000E+00  4.41926179E-06  6.39907106E-05  1.44042223E-05
 -2.61023302E-05  0.00000000E+00 -1.60700307E-04  3.34789773E-05 -9.64748491E-05
  0.00000000E+00  1.42729166E-05 -1.90475286E-05 -5.85356925E-06  3.27481842E-05
  0.00000000E+00  0.00000000E+00 -1.46295075E-06  9.16586336E-06 -2.27211939E-06
  1.38379710E-06  0.00000000E+00  6.28466613E-05  2.66979844E-06 -7.36462920E-05
  0.00000000E+00 -2.19088978E-05 -4.75699432E-06 -8.39518372E-06 -1.78763373E-05
  0.00000000E+00  0.00000000E+00 -1.69510479E-06  9.80002667E-06 -2.42323771E-06
 -5.64848715E-07  0.00000000E+00  8.68291156E-05 -3.42347299E-06  9.23283384E-05
  0.00000000E+00 -2.45370171E-05 -4.84969844E-06 -9.62112812E-06  2.07187925E-05
  0.00000000E+00  0.00000000E+00 -2.24317334E-06  1.12975193E-05  2.04729922E-07
  5.40348319E-07  0.00000000E+00  1.43450695E-04 -1.09252130E-04  1.46178267E-05
  0.00000000E+00  9.08537862E-06 -4.48957235E-05 -1.25152642E-05  1.53446335E-07
  0.00000000E+00  0.00000000E+00  1.06272431E-05 -1.74674470E-05  1.19349238E-05
 -1.99059116E-05  1.50223455E-05 -2.56619333E-05  5.06725486E-02  7.44945851E-04
  3.02186416E-06  6.09889811E-08  0.00000000E+00 -9.02529007E-04 -2.56811131E-06
  5.68381984E-08  0.00000000E+00  7.56492905E-05  3.91121956E-06  6.77632627E-06
  0.00000000E+00  3.19231353E-04  3.18565683E-04  3.18448959E-04  1.54404165E-06
  0.00000000E+00  0.00000000E+00  7.63000960E-01  1.12169702E-02 -2.37653700E-05
 -4.11030029E-05  0.00000000E+00 -1.35830933E-02  2.50878220E-05  4.35094058E-05
  0.00000000E+00  1.08107444E-03 -1.56485644E-05 -2.04403500E-05  0.00000000E+00
  4.79873516E-03  4.79630237E-03  4.79427823E-03 -9.14374311E-07  0.00000000E+00
  0.00000000E+00 -6.38365745E-01 -9.38468772E-03  2.00175898E-05 -3.46096953E-05
  0.00000000E+00  1.13634347E-02 -2.17398090E-05  3.77124595E-05  0.00000000E+00
 -8.96902018E-04  1.14813505E-05 -1.29972366E-05  0.00000000E+00 -4.01483179E-03
 -4.01174798E-03 -4.01103972E-03 -1.51402651E-06  0.00000000E+00  0.00000000E+00
  2.69809873E-07  4.30580785E-06 -2.57451173E-06 -2.45164166E-06  0.00000000E+00
 -1.70590354E-05 -5.40791309E-06 -8.18019368E-05  0.00000000E+00 -2.61525846E-06
  2.42248947E-06 -6.30468201E-07 -1.21572049E-06  0.00000000E+00  0.00000000E+00
  5.25708192E-06  6.69637501E-05  1.01074728E-05  1.50958163E-05  0.00000000E+00
 -2.46072257E-05  1.02683497E-04  9.74099525E-05  0.00000000E+00  9.27711296E-06
 -1.72248837E-05 -6.92042949E-07 -2.76974203E-05  0.00000000E+00  0.00000000E+00
 -4.55440946E-06 -5.63036519E-05 -7.31386221E-06  1.01758766E-05  0.00000000E+00
 -9.75657563E-06 -9.63238694E-05  8.36752298E-05  0.00000000E+00 -6.65585345E-06
  1.39648603E-05 -5.70873501E-07 -2.18563780E-05  0.00000000E+00  0.00000000E+00
 -1.35310497E-06  4.25609606E-06 -8.82759640E-07 -3.98457689E-06  0.00000000E+00
  1.30240043E-04 -2.72629312E-05 -1.01923253E-04  0.00000000E+00 -1.59322108E-05
 -9.56631914E-07 -7.21794212E-06 -1.65410426E-05  0.00000000E+00  0.00000000E+00
  9.76704102E-07 -2.10930573E-06  6.34206976E-07 -4.23474775E-06  0.00000000E+00
 -1.10448905E-04  3.38891658E-05 -8.55692178E-05  0.00000000E+00  1.04444928E-05
 -2.67940857E-08  5.08521202E-06 -1.19857201E-05  0.00000000E+00  0.00000000E+00
 -2.07563879E-07  1.12632054E-06  1.17487010E-07 -5.42307320E-06  0.00000000E+00
  1.18959496E-05 -9.83198736E-06 -1.46706911E-04  0.00000000E+00  7.70674021E-07
 -4.23322047E-06 -1.16861032E-06 -1.54014255E-06  0.00000000E+00  0.00000000E+00
  7.88037855E-06 -1.44407074E-05 -5.24377821E-06  1.00309488E-05  1.42721326E-06
 -2.40917827E-06  9.56324171E-01  1.40590436E-02  5.92328382E-05 -1.34590982E-09
  0.00000000E+00 -1.70256090E-02 -6.13372900E-05 -1.49030019E-09  0.00000000E+00
  1.36308340E-03  3.66496764E-05 -1.65563262E-07  0.00000000E+00  6.01293316E-03
  6.01441698E-03  6.00912106E-03 -3.77292611E-08  0.00000000E+00  0.00000000E+00
 -2.13467541E-01 -3.13820290E-03  6.84464439E-06  1.19541152E-05  0.00000000E+00
  3.79852039E-03 -8.50189126E-06 -1.46334882E-05  0.00000000E+00 -2.88033947E-04
 -5.33218739E-06  1.74643668E-06  0.00000000E+00 -1.34117923E-03 -1.34112635E-03
 -1.34112343E-03  2.55528310E-06  0.00000000E+00  0.00000000E+00 -1.79233531E-01
 -2.63492467E-03  5.77505075E-06 -1.01045486E-05  0.00000000E+00  3.18910128E-03
 -7.35787387E-06  1.26493714E-05  0.00000000E+00 -2.39713634E-04 -5.99500647E-06
 -9.29446369E-07  0.00000000E+00 -1.12587251E-03 -1.12595434E-03 -1.12601820E-03
 -2.49593954E-06  0.00000000E+00  0.00000000E+00  6.42249101E-06  8.36338915E-05
 -2.55999541E-05  5.97846953E-08  0.00000000E+00 -6.32609378E-05 -1.62515701E-04
  1.99808897E-06  0.00000000E+00 -4.04387224E-05  3.11811840E-05 -2.09539264E-06
  2.94955198E-08  0.00000000E+00  0.00000000E+00 -1.76765508E-06 -1.92635553E-05
  1.75011522E-06 -9.41817010E-07  0.00000000E+00 -5.08640981E-05  3.16794688E-05
 -7.77041835E-05  0.00000000E+00 -1.52382916E-06  5.00163778E-06 -1.99428378E-06