140_Nitroethane Gaussian SP Calculation on node142.bme.utexas.edu       
Freq      RMP2-FC                                                     6-31G(d)            
Number of atoms                            I               10
Info1-9                                    I   N=           9
          21          20        1002           0           0         100
           6           2           1
Charge                                     I                0
Multiplicity                               I                1
Number of electrons                        I               40
Number of alpha electrons                  I               20
Number of beta electrons                   I               20
Number of basis functions                  I               85
Number of independent functions            I               85
Number of point charges in /Mol/           I                0
Number of translation vectors              I                0
Atomic numbers                             I   N=          10
           8           8           7           6           6           1
           1           1           1           1
Nuclear charges                            R   N=          10
  8.00000000E+00  8.00000000E+00  7.00000000E+00  6.00000000E+00  6.00000000E+00
  1.00000000E+00  1.00000000E+00  1.00000000E+00  1.00000000E+00  1.00000000E+00
Current cartesian coordinates              R   N=          30
  3.18503081E+00 -1.14946598E+00 -2.34558781E-01  1.08061920E+00  2.43093528E+00
  1.31123771E-01  1.21103897E+00  9.06956940E-02  2.30235742E-02 -1.18384485E+00
 -1.40072705E+00  3.09221314E-01 -3.51308128E+00  1.67230236E-01 -2.29471942E-01
 -9.63793448E-01 -3.00520039E+00 -9.65988575E-01 -1.14100918E+00 -2.11082557E+00
  2.24946244E+00 -3.66289162E+00  1.74486642E+00  1.08525409E+00 -3.46915849E+00
  9.17195144E-01 -2.15042877E+00 -5.18406336E+00 -1.03167901E+00 -3.04803561E-02
Force Field                                I                0
Int Atom Types                             I   N=          10
           0           0           0           0           0           0
           0           0           0           0
MM charges                                 R   N=          10
  0.00000000E+00  0.00000000E+00  0.00000000E+00  0.00000000E+00  0.00000000E+00
  0.00000000E+00  0.00000000E+00  0.00000000E+00  0.00000000E+00  0.00000000E+00
Integer atomic weights                     I   N=          10
          16          16          14          12          12           1
           1           1           1           1
Real atomic weights                        R   N=          10
  1.59949146E+01  1.59949146E+01  1.40030740E+01  1.20000000E+01  1.20000000E+01
  1.00782504E+00  1.00782504E+00  1.00782504E+00  1.00782504E+00  1.00782504E+00
Atom fragment info                         I   N=          10
           0           0           0           0           0           0
           0           0           0           0
Atom residue num                           I   N=          10
           0           0           0           0           0           0
           0           0           0           0
Nuclear spins                              I   N=          10
           0           0           2           0           0           1
           1           1           1           1
Nuclear ZEff                               R   N=          10
 -5.60000000E+00 -5.60000000E+00 -4.55000000E+00 -3.60000000E+00 -3.60000000E+00
 -1.00000000E+00 -1.00000000E+00 -1.00000000E+00 -1.00000000E+00 -1.00000000E+00
Nuclear QMom                               R   N=          10
  0.00000000E+00  0.00000000E+00  2.04400000E+00  0.00000000E+00  0.00000000E+00
  0.00000000E+00  0.00000000E+00  0.00000000E+00  0.00000000E+00  0.00000000E+00
Nuclear GFac                               R   N=          10
  0.00000000E+00  0.00000000E+00  4.03761000E-01  0.00000000E+00  0.00000000E+00
  2.79284600E+00  2.79284600E+00  2.79284600E+00  2.79284600E+00  2.79284600E+00
MicOpt                                     I   N=          10
          -1          -1          -1          -1          -1          -1
          -1          -1          -1          -1
Number of contracted shells                I               30
Number of primitive shells                 I               75
Pure/Cartesian d shells                    I                1
Pure/Cartesian f shells                    I                0
Highest angular momentum                   I                2
Largest degree of contraction              I                6
Shell types                                I   N=          30
           0          -1          -1           2           0          -1
          -1           2           0          -1          -1           2
           0          -1          -1           2           0          -1
          -1           2           0           0           0           0
           0           0           0           0           0           0
Number of primitives per shell             I   N=          30
           6           3           1           1           6           3
           1           1           6           3           1           1
           6           3           1           1           6           3
           1           1           3           1           3           1
           3           1           3           1           3           1
Shell to atom map                          I   N=          30
           1           1           1           1           2           2
           2           2           3           3           3           3
           4           4           4           4           5           5
           5           5           6           6           7           7
           8           8           9           9          10          10
Primitive exponents                        R   N=          75
  5.48467166E+03  8.25234946E+02  1.88046958E+02  5.29645000E+01  1.68975704E+01
  5.79963534E+00  1.55396162E+01  3.59993359E+00  1.01376175E+00  2.70005823E-01
  8.00000000E-01  5.48467166E+03  8.25234946E+02  1.88046958E+02  5.29645000E+01
  1.68975704E+01  5.79963534E+00  1.55396162E+01  3.59993359E+00  1.01376175E+00
  2.70005823E-01  8.00000000E-01  4.17351146E+03  6.27457911E+02  1.42902093E+02
  4.02343293E+01  1.28202129E+01  4.39043701E+00  1.16263619E+01  2.71627981E+00
  7.72218397E-01  2.12031498E-01  8.00000000E-01  3.04752488E+03  4.57369518E+02
  1.03948685E+02  2.92101553E+01  9.28666296E+00  3.16392696E+00  7.86827235E+00
  1.88128854E+00  5.44249258E-01  1.68714478E-01  8.00000000E-01  3.04752488E+03
  4.57369518E+02  1.03948685E+02  2.92101553E+01  9.28666296E+00  3.16392696E+00
  7.86827235E+00  1.88128854E+00  5.44249258E-01  1.68714478E-01  8.00000000E-01
  1.87311370E+01  2.82539436E+00  6.40121692E-01  1.61277759E-01  1.87311370E+01
  2.82539436E+00  6.40121692E-01  1.61277759E-01  1.87311370E+01  2.82539436E+00
  6.40121692E-01  1.61277759E-01  1.87311370E+01  2.82539436E+00  6.40121692E-01
  1.61277759E-01  1.87311370E+01  2.82539436E+00  6.40121692E-01  1.61277759E-01
Contraction coefficients                   R   N=          75
  1.83107443E-03  1.39501722E-02  6.84450781E-02  2.32714336E-01  4.70192898E-01
  3.58520853E-01 -1.10777550E-01 -1.48026263E-01  1.13076702E+00  1.00000000E+00
  1.00000000E+00  1.83107443E-03  1.39501722E-02  6.84450781E-02  2.32714336E-01
  4.70192898E-01  3.58520853E-01 -1.10777550E-01 -1.48026263E-01  1.13076702E+00
  1.00000000E+00  1.00000000E+00  1.83477216E-03  1.39946270E-02  6.85865518E-02
  2.32240873E-01  4.69069948E-01  3.60455199E-01 -1.14961182E-01 -1.69117479E-01
  1.14585195E+00  1.00000000E+00  1.00000000E+00  1.83473713E-03  1.40373228E-02
  6.88426223E-02  2.32184443E-01  4.67941348E-01  3.62311985E-01 -1.19332420E-01
 -1.60854152E-01  1.14345644E+00  1.00000000E+00  1.00000000E+00  1.83473713E-03
  1.40373228E-02  6.88426223E-02  2.32184443E-01  4.67941348E-01  3.62311985E-01
 -1.19332420E-01 -1.60854152E-01  1.14345644E+00  1.00000000E+00  1.00000000E+00
  3.34946043E-02  2.34726953E-01  8.13757326E-01  1.00000000E+00  3.34946043E-02
  2.34726953E-01  8.13757326E-01  1.00000000E+00  3.34946043E-02  2.34726953E-01
  8.13757326E-01  1.00000000E+00  3.34946043E-02  2.34726953E-01  8.13757326E-01
  1.00000000E+00  3.34946043E-02  2.34726953E-01  8.13757326E-01  1.00000000E+00
P(S=P) Contraction coefficients            R   N=          75
  0.00000000E+00  0.00000000E+00  0.00000000E+00  0.00000000E+00  0.00000000E+00
  0.00000000E+00  7.08742682E-02  3.39752839E-01  7.27158577E-01  1.00000000E+00
  0.00000000E+00  0.00000000E+00  0.00000000E+00  0.00000000E+00  0.00000000E+00
  0.00000000E+00  0.00000000E+00  7.08742682E-02  3.39752839E-01  7.27158577E-01
  1.00000000E+00  0.00000000E+00  0.00000000E+00  0.00000000E+00  0.00000000E+00
  0.00000000E+00  0.00000000E+00  0.00000000E+00  6.75797439E-02  3.23907296E-01
  7.40895140E-01  1.00000000E+00  0.00000000E+00  0.00000000E+00  0.00000000E+00
  0.00000000E+00  0.00000000E+00  0.00000000E+00  0.00000000E+00  6.89990666E-02
  3.16423961E-01  7.44308291E-01  1.00000000E+00  0.00000000E+00  0.00000000E+00
  0.00000000E+00  0.00000000E+00  0.00000000E+00  0.00000000E+00  0.00000000E+00
  6.89990666E-02  3.16423961E-01  7.44308291E-01  1.00000000E+00  0.00000000E+00
  0.00000000E+00  0.00000000E+00  0.00000000E+00  0.00000000E+00  0.00000000E+00
  0.00000000E+00  0.00000000E+00  0.00000000E+00  0.00000000E+00  0.00000000E+00
  0.00000000E+00  0.00000000E+00  0.00000000E+00  0.00000000E+00  0.00000000E+00
  0.00000000E+00  0.00000000E+00  0.00000000E+00  0.00000000E+00  0.00000000E+00
Coordinates of each shell                  R   N=          90
  3.18503081E+00 -1.14946598E+00 -2.34558781E-01  3.18503081E+00 -1.14946598E+00
 -2.34558781E-01  3.18503081E+00 -1.14946598E+00 -2.34558781E-01  3.18503081E+00
 -1.14946598E+00 -2.34558781E-01  1.08061920E+00  2.43093528E+00  1.31123771E-01
  1.08061920E+00  2.43093528E+00  1.31123771E-01  1.08061920E+00  2.43093528E+00
  1.31123771E-01  1.08061920E+00  2.43093528E+00  1.31123771E-01  1.21103897E+00
  9.06956940E-02  2.30235742E-02  1.21103897E+00  9.06956940E-02  2.30235742E-02
  1.21103897E+00  9.06956940E-02  2.30235742E-02  1.21103897E+00  9.06956940E-02
  2.30235742E-02 -1.18384485E+00 -1.40072705E+00  3.09221314E-01 -1.18384485E+00
 -1.40072705E+00  3.09221314E-01 -1.18384485E+00 -1.40072705E+00  3.09221314E-01
 -1.18384485E+00 -1.40072705E+00  3.09221314E-01 -3.51308128E+00  1.67230236E-01
 -2.29471942E-01 -3.51308128E+00  1.67230236E-01 -2.29471942E-01 -3.51308128E+00
  1.67230236E-01 -2.29471942E-01 -3.51308128E+00  1.67230236E-01 -2.29471942E-01
 -9.63793448E-01 -3.00520039E+00 -9.65988575E-01 -9.63793448E-01 -3.00520039E+00
 -9.65988575E-01 -1.14100918E+00 -2.11082557E+00  2.24946244E+00 -1.14100918E+00
 -2.11082557E+00  2.24946244E+00 -3.66289162E+00  1.74486642E+00  1.08525409E+00
 -3.66289162E+00  1.74486642E+00  1.08525409E+00 -3.46915849E+00  9.17195144E-01
 -2.15042877E+00 -3.46915849E+00  9.17195144E-01 -2.15042877E+00 -5.18406336E+00
 -1.03167901E+00 -3.04803561E-02 -5.18406336E+00 -1.03167901E+00 -3.04803561E-02
Constraint Structure                       R   N=          30
  3.18503081E+00 -1.14946598E+00 -2.34558781E-01  1.08061920E+00  2.43093528E+00
  1.31123771E-01  1.21103897E+00  9.06956940E-02  2.30235742E-02 -1.18384485E+00
 -1.40072705E+00  3.09221314E-01 -3.51308128E+00  1.67230236E-01 -2.29471942E-01
 -9.63793448E-01 -3.00520039E+00 -9.65988575E-01 -1.14100918E+00 -2.11082557E+00
  2.24946244E+00 -3.66289162E+00  1.74486642E+00  1.08525409E+00 -3.46915849E+00
  9.17195144E-01 -2.15042877E+00 -5.18406336E+00 -1.03167901E+00 -3.04803561E-02
Num ILSW                                   I              100
ILSW                                       I   N=         100
           0           1           0           0           2           0
           0           0           0           0           0          -1
           0           0           0           0           0           0
           0           0           0           0           1           0
           1           0           0           0           0           0
           0           0      100000           0          -1           0
           0           0           0           0           0           0
           0           0           0           1           1           0
           0           0           1           0           0           0
           0           0           4          40           0           0
           0           0           0           0           0           0
           0           0           0           0           0           0
           0           0           0           0           0           0
           0           0           0           0           0           0
           0           0           0           0           0           0
           0           0           0           0           0           0
           0           0           0           0
Num RLSW                                   I               40
RLSW                                       R   N=          40
  1.00000000E+00  1.00000000E+00  1.00000000E+00  1.00000000E+00  1.00000000E+00
  0.00000000E+00  0.00000000E+00  1.00000000E+00  0.00000000E+00  0.00000000E+00
  0.00000000E+00  0.00000000E+00  1.00000000E+00  0.00000000E+00  0.00000000E+00
  0.00000000E+00  0.00000000E+00  1.00000000E+00  0.00000000E+00  0.00000000E+00
  0.00000000E+00  0.00000000E+00  1.00000000E+00  0.00000000E+00  0.00000000E+00
  0.00000000E+00  0.00000000E+00  1.00000000E+00  0.00000000E+00  0.00000000E+00
  0.00000000E+00  0.00000000E+00  0.00000000E+00  0.00000000E+00  0.00000000E+00
  0.00000000E+00  0.00000000E+00  0.00000000E+00  1.00000000E+00  1.00000000E+00
MxBond                                     I                4
NBond                                      I   N=          10
           1           1           3           4           4           1
           1           1           1           1
IBond                                      I   N=          40
           3           0           0           0           3           0
           0           0           1           2           4           0
           3           5           6           7           4           8
           9          10           4           0           0           0
           4           0           0           0           5           0
           0           0           5           0           0           0
           5           0           0           0
RBond                                      R   N=          40
  2.00000000E+00  0.00000000E+00  0.00000000E+00  0.00000000E+00  2.00000000E+00
  0.00000000E+00  0.00000000E+00  0.00000000E+00  2.00000000E+00  2.00000000E+00
  1.00000000E+00  0.00000000E+00  1.00000000E+00  1.00000000E+00  1.00000000E+00
  1.00000000E+00  1.00000000E+00  1.00000000E+00  1.00000000E+00  1.00000000E+00
  1.00000000E+00  0.00000000E+00  0.00000000E+00  0.00000000E+00  1.00000000E+00
  0.00000000E+00  0.00000000E+00  0.00000000E+00  1.00000000E+00  0.00000000E+00
  0.00000000E+00  0.00000000E+00  1.00000000E+00  0.00000000E+00  0.00000000E+00
  0.00000000E+00  1.00000000E+00  0.00000000E+00  0.00000000E+00  0.00000000E+00
Virial Ratio                               R      2.003486586426796E+00
SCF Energy                                 R     -2.826922706738546E+02
MP2 Energy                                 R     -2.835022287810245E+02
Total Energy                               R     -2.835022287810245E+02
Post-SCF wavefunction norm                 R      1.587553678485483E+00
RMS Force                                  R      1.114927603826170E-08
RMS Density                                R      6.023576307226389E-10
External E-field                           R   N=          35
  0.00000000E+00  0.00000000E+00  0.00000000E+00  0.00000000E+00  0.00000000E+00
  0.00000000E+00  0.00000000E+00  0.00000000E+00  0.00000000E+00  0.00000000E+00
  0.00000000E+00  0.00000000E+00  0.00000000E+00  0.00000000E+00  0.00000000E+00
  0.00000000E+00  0.00000000E+00  0.00000000E+00  0.00000000E+00  0.00000000E+00
  0.00000000E+00  0.00000000E+00  0.00000000E+00  0.00000000E+00  0.00000000E+00
  0.00000000E+00  0.00000000E+00  0.00000000E+00  0.00000000E+00  0.00000000E+00
  0.00000000E+00  0.00000000E+00  0.00000000E+00  0.00000000E+00  0.00000000E+00
IOpCl                                      I                0
IROHF                                      I                0
Alpha Orbital Energies                     R   N=          85
 -2.06136215E+01 -2.06102388E+01 -1.58531695E+01 -1.13143114E+01 -1.12515238E+01
 -1.58592012E+00 -1.38596744E+00 -1.12438831E+00 -9.68058747E-01 -8.36800469E-01
 -7.47008531E-01 -7.28848035E-01 -7.14483483E-01 -6.32312197E-01 -5.91847008E-01
 -5.63333965E-01 -5.37417588E-01 -4.88962770E-01 -4.82027196E-01 -4.45055490E-01
  9.18661328E-02  2.17790227E-01  2.65342107E-01  2.74946253E-01  2.87093873E-01
  3.18292241E-01  3.21991009E-01  3.74852560E-01  4.81652945E-01  5.62890511E-01
  6.87181351E-01  7.04001176E-01  7.33205579E-01  7.65469219E-01  8.39297569E-01
  8.55349783E-01  9.24126921E-01  9.93894560E-01  1.01593231E+00  1.07233038E+00
  1.08692770E+00  1.09702644E+00  1.12206073E+00  1.14621698E+00  1.16227757E+00
  1.19032998E+00  1.22037462E+00  1.24144080E+00  1.29681317E+00  1.30311183E+00
  1.33814917E+00  1.37227060E+00  1.57888133E+00  1.64345948E+00  1.68081513E+00
  1.71702910E+00  1.77387860E+00  1.93463571E+00  2.04375725E+00  2.07844752E+00
  2.10177873E+00  2.11643230E+00  2.14960772E+00  2.18085524E+00  2.25268231E+00
  2.29160891E+00  2.34730714E+00  2.35762616E+00  2.47508447E+00  2.54596802E+00
  2.61113034E+00  2.65755971E+00  2.75462122E+00  2.80632253E+00  2.84521838E+00
  3.00247684E+00  3.17401824E+00  3.19104853E+00  3.25266794E+00  3.40373422E+00
  4.02649089E+00  4.16912564E+00  4.19677110E+00  4.59606713E+00  4.81579833E+00
Alpha MO coefficients                      R   N=        7225
 -7.32347308E-03 -2.16753454E-04 -9.01682206E-06 -4.56082155E-05 -1.33693257E-06
  2.69621050E-04 -1.89097544E-04  6.95369249E-05  2.20540350E-05  1.59620781E-04
 -8.65466595E-05 -6.19612973E-05  4.12457110E-06 -2.71495448E-05 -2.34460405E-06
  9.94736733E-01  2.09618967E-02  7.93262429E-05 -1.71958731E-03 -7.59397170E-05
  3.78905405E-03 -3.16206008E-06  3.25222423E-04  5.79953200E-06 -3.70430959E-03
 -3.66920259E-03 -3.95110000E-03  1.25869407E-05 -3.07249692E-05  1.17222378E-05
  3.27833565E-05  3.92827522E-04 -1.12342860E-05  1.70407937E-04  6.98107934E-06
 -6.16748858E-05 -2.49647435E-04 -2.74915841E-04  2.99893312E-05 -4.70426168E-06
 -7.51075952E-04  4.74220799E-06  1.22167206E-04  4.56536448E-06 -4.98262203E-05
 -4.86495596E-06 -3.04334535E-06 -2.10936030E-05 -4.88212989E-05  1.88108595E-06
 -2.90875432E-05 -1.89916898E-04 -1.20873373E-05 -2.32356956E-05  1.07022291E-05
 -6.19355698E-05 -2.86945312E-05 -5.62147917E-05 -2.45806987E-06  2.26872784E-06
  2.93435598E-06  3.43295510E-05  1.02065237E-05  1.14443616E-05 -7.54725907E-06
 -6.21756374E-05 -1.49721051E-04  1.56709103E-05  1.70587461E-05 -1.55747236E-05
 -1.31118854E-05 -1.28189557E-06  4.14721766E-06 -5.95310774E-06  4.73587266E-06
  1.04652481E-05 -2.87569311E-05  2.00574747E-05 -1.91215388E-05  3.17240978E-05
 -9.40904284E-05  2.49536790E-05 -1.86175301E-05 -3.25184113E-06 -7.13264164E-05
  9.94737602E-01  2.09668713E-02 -1.46034757E-03  8.98111479E-04  1.91756960E-04
  3.79391185E-03  2.75999686E-04 -1.36511221E-04 -3.91325394E-05 -3.66165962E-03
 -3.70041981E-03 -3.94236989E-03 -1.16392311E-05 -3.44955180E-05  1.33421922E-05
  7.30790531E-03  9.53525294E-05 -4.13755926E-05 -9.64016406E-06  5.73708396E-06
  2.91394150E-04 -2.70275486E-05 -1.73694826E-04 -1.15737847E-05 -7.76809488E-05
  4.22806575E-05 -1.21477831E-04  1.21400844E-04  2.32790852E-07 -3.86104194E-06
  3.17463427E-05  3.90348433E-04  1.43922139E-04 -8.86881003E-05 -2.04428076E-05
  4.88127858E-07 -4.08362654E-04 -8.55020531E-05  5.86738916E-05 -4.90849461E-04
 -2.69946123E-04 -7.20281797E-06  4.36001063E-04  7.48850884E-05 -6.06796673E-05
 -4.04174841E-06  1.15680007E-05 -5.60629555E-05 -1.22209281E-06  1.00937675E-05
 -8.84776120E-05 -1.86667814E-04 -7.33435002E-05 -2.17063366E-05 -9.02550192E-05
  1.87247096E-05 -3.04189435E-05 -7.04476908E-06  1.02856431E-05  3.55788435E-07
  4.65687287E-06  2.49190927E-05  1.43285412E-05  3.19765465E-06 -3.09028997E-07
 -1.13768860E-04 -8.88360754E-05 -9.60498085E-06  3.57112060E-06 -2.01349136E-06
  1.14710697E-05  9.23307767E-06 -5.96811546E-06  5.20083081E-07 -2.31595883E-06
  1.23047655E-05 -7.81637139E-05  2.37680779E-05 -3.26676166E-05  1.30525898E-05
  7.50359018E-06  1.36873568E-05  1.32929705E-05  1.35392691E-06 -4.94838864E-05
 -1.79571902E-04  1.91987856E-04 -1.31747379E-04  8.46550148E-05  1.76036579E-05
  2.31277943E-05  1.39260602E-04 -1.64238110E-04 -1.55875626E-05 -2.35200541E-04
 -9.73819463E-05  1.18983207E-04  1.66769897E-04  5.01224625E-05 -2.51698204E-05
 -1.80541924E-04  1.92119886E-04  1.67606646E-05 -1.53135281E-04 -5.67073040E-06
 -3.89215931E-06 -9.16590491E-05  2.28268165E-04  2.08827831E-05 -4.89780856E-06
 -3.47515177E-04  1.16010571E-04  2.30444829E-05  1.96002621E-05 -2.54753535E-05
  9.95245260E-01  2.39015313E-02  4.07723388E-04  2.50435746E-04 -1.79065600E-05
 -1.66832732E-03  6.96619189E-04  4.57240094E-04 -8.73832423E-05 -2.96450202E-03
 -2.70439759E-03 -3.39769363E-03 -2.44649227E-04 -6.37730642E-05  5.72134868E-05
 -3.03991326E-05 -9.80031607E-06  2.20218316E-04  1.31092971E-04 -1.81421713E-05
  1.69743377E-03  5.73834764E-04  4.63793060E-04 -1.29329220E-04 -3.85292266E-05
 -7.74729667E-05 -9.62238106E-05  6.14694721E-05 -5.45536310E-06 -1.43557901E-05
  2.91820057E-07  1.22556811E-05 -5.57070630E-05  1.50296371E-06 -1.17444304E-06
 -2.85386323E-04 -1.11522491E-04  3.44151412E-05 -7.85963580E-07 -2.83130601E-05
  1.48304286E-05 -2.15328916E-05  7.16143175E-06  8.05778287E-08 -1.51519592E-05
 -8.74393248E-05 -1.03378877E-04 -1.07024956E-04 -2.50816410E-05  2.15662705E-05
 -4.23872299E-05  3.63128388E-06  9.83332752E-06 -2.37331378E-06  8.75498122E-05
 -3.78347422E-05 -2.74925872E-04  6.32945109E-05  5.39209180E-05 -1.06247813E-05
  1.02259571E-03 -5.70504460E-04  4.84646438E-05  1.14158416E-04  8.73693575E-05
 -1.04130665E-04 -2.28275736E-04 -3.52037655E-05 -6.04603815E-05  4.49290810E-06
 -1.21290474E-05 -1.42715253E-04  6.81218762E-05  3.28448546E-05 -3.02579472E-05
 -3.52822355E-05 -1.04217162E-04 -1.41158032E-04  1.02796662E-04 -2.11544402E-05
  1.08285209E-04 -1.48055193E-04  3.53248996E-05 -3.75364458E-05 -1.07230515E-05
 -2.36220881E-04  8.05380856E-05 -1.44788191E-04 -9.77525919E-05  1.76320964E-05
  2.68303081E-03 -1.08304231E-03  1.67836879E-04  4.35654376E-05 -6.79666923E-04
 -4.96813934E-04 -1.15683816E-04 -2.27030801E-04  7.82891764E-05  2.70452369E-05
  9.95818938E-01  2.82269887E-02  7.24235604E-04  4.65118631E-04 -2.43171174E-05
 -1.55398141E-02 -1.82886482E-05 -8.49442188E-04  6.56289319E-05 -1.62028341E-03
 -1.68624073E-03 -1.56845172E-03 -6.39498165E-05  6.64323041E-06  3.44067982E-05
  4.93302277E-03  1.65317907E-04  5.83041584E-05  5.48269159E-06  8.45627411E-06
  3.75422028E-03  1.55139857E-03 -1.02141676E-03  3.59773285E-04 -3.20014019E-04
 -2.22164383E-04 -1.10775505E-04  1.69830009E-04 -5.59512860E-05  4.27248637E-05
  2.11072020E-04  2.53304958E-03  1.92258859E-04  2.73328508E-03 -1.42729273E-04
  1.15850640E-04 -1.57345492E-04  1.43009012E-04 -1.16823938E-04 -4.00028002E-05
 -3.65916019E-05 -1.60685934E-04 -5.14774759E-06  3.49206737E-06 -1.42196692E-05
  1.02820755E-03 -3.54607716E-04  2.32264997E-04  8.69703876E-05 -5.11439588E-05
 -9.07368678E-05 -1.18020929E-04 -5.28137756E-05 -1.49292776E-05 -2.00890988E-06
 -5.97241964E-05 -2.69463666E-04  7.74433263E-05  4.32137183E-05  2.70869842E-05
  1.20405040E-03 -1.30582885E-04 -4.90736929E-04 -1.06841184E-04 -1.47619595E-04
 -1.01637174E-04 -2.65434408E-04  1.93577721E-05  2.53668383E-05  1.63974193E-05
 -7.58196911E-06 -6.87546315E-05  6.51354429E-05 -2.70356129E-05 -4.58572037E-07
 -1.16132446E-03 -4.78965644E-04 -1.30706692E-04  7.03049030E-05 -1.50151932E-05
 -7.52201762E-05 -4.30850099E-05  5.51391998E-05  2.70030327E-05 -2.65467989E-05
 -5.23443319E-03 -3.00932090E-05  1.06659956E-05  3.75656279E-06  1.96204611E-05
  3.94104212E-03 -1.51610766E-03  9.82802873E-04 -4.69761660E-04 -4.22340158E-04
 -2.40126289E-04 -9.45739960E-05  2.07369514E-04 -7.68054599E-05  5.88653575E-05
  9.95717949E-01  2.86065397E-02  2.98468627E-04 -2.22788806E-04  4.41949045E-05
 -1.52879309E-02 -9.76676434E-04  4.14795078E-04 -9.60319397E-05 -1.86220784E-03
 -1.82940652E-03 -1.83301446E-03  3.29105287E-05 -7.62199281E-06  2.01857862E-06
 -1.57192795E-04 -2.94758174E-05 -1.47388379E-04  1.20985505E-04  2.01863242E-04
  2.51587923E-03  1.84919147E-04  2.60155742E-03  1.21017576E-04  2.38503261E-03
 -1.08283799E-01  2.44523632E-01 -8.89519843E-02  6.07235535E-02  1.19967763E-02
  1.87658045E-01 -3.54843000E-02  2.88103582E-02  4.80437572E-03  1.36789338E-02
  6.72406848E-03 -1.48766012E-03 -1.53265799E-02 -2.51024686E-03  1.99247308E-03
 -1.09430823E-01  2.46856548E-01  1.00608683E-02 -1.08376809E-01 -5.18403799E-03
  1.92439818E-01  7.75415680E-03 -4.65501493E-02 -2.90750741E-03 -3.03198455E-03
  2.36435134E-02 -1.89021793E-03 -4.70075617E-03 -6.05864875E-05  1.69586399E-03
 -1.56100925E-01  3.48686465E-01  6.93605872E-02  4.20216396E-02 -4.99517399E-03
  1.84095193E-01 -3.15748083E-02 -2.10229639E-02  3.81819247E-03  6.67998381E-03
  1.95126687E-02 -1.47731139E-02 -1.28759431E-02 -3.37146169E-03  2.80311025E-03
 -2.36168617E-02  4.99828864E-02  3.27380455E-02  2.05028660E-02 -3.82602712E-03
 -2.65877615E-02 -2.03848843E-02 -9.58741495E-03  1.52197666E-03  7.96817031E-03
  2.73694492E-03  1.17745491E-04  6.73859361E-03 -1.13288514E-03 -7.75997540E-04
 -3.68781395E-03  9.09179368E-03  7.94946783E-03 -1.12040437E-03  1.05041333E-03
  2.67900533E-04 -2.12479434E-03 -9.82105131E-04 -9.35708606E-04  2.07099066E-03
  4.04885191E-04  7.02844958E-04 -6.94377371E-04  3.01595281E-04 -6.49183283E-06
  1.01204440E-02  1.69161520E-03  9.64483414E-03  2.74242307E-03  2.19164533E-03
  2.49344066E-03  1.99945331E-03  8.66082441E-04  8.78468884E-04 -4.08720063E-03
 -1.44597102E-01  3.25855970E-01 -8.38641725E-02  3.16106664E-02  1.02164337E-02
  3.02018613E-01 -4.71967006E-02  1.76053970E-02  5.59709725E-03  1.55034024E-02
 -2.44773686E-04 -2.87679094E-03 -7.84261491E-03 -2.58914479E-03  9.54865175E-04
  1.44491072E-01 -3.25089122E-01  1.29023603E-02  8.80852174E-02  2.04414893E-03
 -3.04980471E-01  8.21135360E-03  5.09098903E-02  1.17951100E-03  2.59636108E-03
 -1.75094437E-02  3.47518617E-03 -3.63893107E-03 -3.95804097E-05 -5.89049903E-04
 -1.01326174E-03  2.01367918E-03  1.48794323E-01 -2.53039720E-01 -2.58036804E-02
  5.34354499E-03  1.33712843E-02 -2.46095735E-02 -2.05401021E-03  2.37763681E-02
 -2.40036152E-02  1.41682625E-04 -1.51872508E-02 -3.50504599E-03  3.86081449E-04
 -4.27247404E-04  1.58431176E-03  1.04654066E-02 -1.43534505E-02 -1.54970125E-03
 -2.96830763E-03  2.23795461E-04 -4.72249337E-03 -2.10983473E-04  3.70311399E-03
 -3.78866456E-03  5.81202381E-04 -1.84700175E-03 -8.47605941E-04  6.31118532E-04
  3.57244414E-03 -7.21406224E-03 -4.80401285E-03 -1.19916790E-03 -6.86431721E-04
 -2.11103596E-03  2.10976801E-03  1.80734793E-03 -2.43446348E-04 -5.80508628E-04
 -5.39430387E-04 -1.11463845E-04 -3.85029681E-05 -1.23990053E-04  1.50886532E-04
  4.91591814E-03  1.05117849E-04  1.64898308E-03  2.42349046E-04 -3.44396378E-03
 -9.59214429E-04 -2.46737386E-03 -1.16471423E-03 -4.59621211E-04  1.95429478E-03
  5.16532758E-02 -1.18324339E-01 -2.78827210E-02 -3.32977845E-02  2.39635370E-03
 -1.39253578E-01  1.50828431E-04 -1.34346887E-02 -9.35714172E-04  3.34385317E-03
 -5.15461294E-03 -1.00132950E-04  3.11663288E-03 -2.52106332E-04 -5.50451699E-04
  5.46340061E-02 -1.25685720E-01 -4.54601951E-02 -8.17801205E-03  4.74314379E-03
 -1.43154690E-01 -1.32552382E-02  5.58510789E-03  1.14961634E-03 -9.86206041E-04
 -1.00003828E-03 -2.60766905E-04  6.02762398E-03  3.44788765E-04 -6.39841802E-04
 -4.83159292E-02  1.12998707E-01 -1.96101429E-01 -1.18803914E-01  1.88853830E-02
  1.43327357E-01 -6.70970960E-02 -4.36136334E-02  7.54623563E-03  1.06058880E-02
 -4.56860237E-03 -1.78077132E-03  1.43924070E-02 -1.46668511E-03 -2.08283844E-03
 -1.54360526E-01  2.96050388E-01  2.06847938E-02  4.51373757E-02 -1.08030809E-02
  2.29599362E-01 -9.00026793E-03 -2.07400582E-04 -2.15486894E-04  1.09345303E-02
  6.01963416E-03  3.63521524E-03  2.07291783E-03 -1.37320747E-04 -9.94022401E-04
 -9.37752207E-02  1.75319886E-01  5.63315551E-02 -3.36248690E-02  1.14514375E-02
  1.35684318E-01  1.82882231E-03 -4.72161400E-03  9.61051333E-04  8.86600491E-03
  4.26325204E-03  1.98256878E-03 -5.83089002E-03  1.82336948E-03 -1.16473140E-03
  8.48158608E-02  7.90392153E-03  8.61985212E-02  8.72483612E-03  4.82780022E-02
  4.99173067E-03  4.90325506E-02  5.52259066E-03  4.77715386E-02  2.74283322E-03
 -6.56770137E-02  1.49909355E-01  8.21522446E-02  4.32453984E-03 -1.25974302E-02
  2.06825868E-01  2.46516633E-02  2.63472042E-03 -3.85051724E-03 -8.12290145E-03
  3.24946957E-03  9.41826835E-04  2.36143297E-03  1.72419094E-03 -3.92525699E-04
 -5.13113022E-02  1.19619782E-01  2.53386625E-02  6.54526158E-02 -5.52616274E-03
  1.54269037E-01  7.18362986E-03  2.42734664E-02 -1.74267908E-03  3.66625348E-03
 -6.66334085E-03  2.07740797E-03 -3.57600595E-03 -3.20609039E-04  5.82473790E-04
  7.94196797E-02 -1.91724766E-01  1.44271045E-01  8.96578869E-02 -2.42537149E-02
 -2.36097359E-01  6.80307677E-02  5.08948445E-02 -1.17745478E-02 -1.85217369E-03
 -4.30201211E-04  2.63717704E-03 -9.59280560E-03  1.24508162E-03  1.21941075E-03
  1.16847891E-02 -2.62234293E-02 -1.84626831E-01  1.01650316E-02 -1.26853345E-02