
    -----------------------------------------------------------------------
          Psi4: An Open-Source Ab Initio Electronic Structure Package
                               Psi4 1.3.2 release

                         Git: Rev {HEAD} ecbda83 


    R. M. Parrish, L. A. Burns, D. G. A. Smith, A. C. Simmonett,
    A. E. DePrince III, E. G. Hohenstein, U. Bozkaya, A. Yu. Sokolov,
    R. Di Remigio, R. M. Richard, J. F. Gonthier, A. M. James,
    H. R. McAlexander, A. Kumar, M. Saitow, X. Wang, B. P. Pritchard,
    P. Verma, H. F. Schaefer III, K. Patkowski, R. A. King, E. F. Valeev,
    F. A. Evangelista, J. M. Turney, T. D. Crawford, and C. D. Sherrill,
    J. Chem. Theory Comput. 13(7) pp 3185--3197 (2017).
    (doi: 10.1021/acs.jctc.7b00174)


                         Additional Contributions by
    P. Kraus, H. Kruse, M. H. Lechner, M. C. Schieber, R. A. Shaw,
    A. Alenaizan, R. Galvelis, Z. L. Glick, S. Lehtola, and J. P. Misiewicz

    -----------------------------------------------------------------------


    Psi4 started on: Wednesday, 04 November 2020 03:09AM

    Process ID: 71759
    Host:       node142.bme.utexas.edu
    PSIDATADIR: /home/xy3866/psi4conda/share/psi4
    Memory:     500.0 MiB
    Threads:    8
    
  ==> Input File <==

--------------------------------------------------------------------------
#psi4
#
memory 32 gb

molecule  {
-2 1
  P        0.1641090    -0.0635590     0.0002810
  O       -1.2037929     0.7286726    -0.0028224
  O        0.0623980    -0.8993590    -1.2961490
  O        0.0584720    -0.8952640     1.2990450
  O        1.1967260     1.0757810    -0.0000020
  H       -1.9875120     0.0728630    -0.0016460
units angstrom
no_reorient  #important for SAPT in psi4, default
symmetry c1  #important for SAPT in psi4, default
}

set PROPERTIES_ORIGIN ["COM"]
properties('MP2/aug-cc-pvtz', properties = ['dipole'])
--------------------------------------------------------------------------

  Memory set to  29.802 GiB by Python driver.
    SCF Algorithm Type (re)set to DF.

*** tstart() called on node142.bme.utexas.edu
*** at Wed Nov  4 03:09:10 2020

   => Loading Basis Set <=

    Name: AUG-CC-PVTZ
    Role: ORBITAL
    Keyword: BASIS
    atoms 1   entry P          line   820 file /home/xy3866/psi4conda/share/psi4/basis/aug-cc-pvtz.gbs 
    atoms 2-5 entry O          line   327 file /home/xy3866/psi4conda/share/psi4/basis/aug-cc-pvtz.gbs 
    atoms 6   entry H          line    36 file /home/xy3866/psi4conda/share/psi4/basis/aug-cc-pvtz.gbs 


         ---------------------------------------------------------
                                   SCF
               by Justin Turney, Rob Parrish, Andy Simmonett
                          and Daniel G. A. Smith
                              RHF Reference
                        8 Threads,  30517 MiB Core
         ---------------------------------------------------------

  ==> Geometry <==

    Molecular point group: c1
    Full point group: C1

    Geometry (in Angstrom), charge = -2, multiplicity = 1:

       Center              X                  Y                   Z               Mass       
    ------------   -----------------  -----------------  -----------------  -----------------
         P            0.113043805876    -0.045447640913     0.000195653223    30.973761998420
         O           -1.254858094124     0.746783959087    -0.002907746777    15.994914619570
         O            0.011332805876    -0.881247640913    -1.296234346777    15.994914619570
         O            0.007406805876    -0.877152640913     1.298959653223    15.994914619570
         O            1.145660805876     1.093892359087    -0.000087346777    15.994914619570
         H           -2.038577194124     0.090974359087    -0.001731346777     1.007825032230

  Running in c1 symmetry.

  Rotational constants: A =      0.16673  B =      0.16267  C =      0.15291 [cm^-1]
  Rotational constants: A =   4998.35174  B =   4876.87364  C =   4584.13140 [MHz]
  Nuclear repulsion =  256.644759262600189

  Charge       = -2
  Multiplicity = 1
  Electrons    = 50
  Nalpha       = 25
  Nbeta        = 25

  ==> Algorithm <==

  SCF Algorithm Type is DF.
  DIIS enabled.
  MOM disabled.
  Fractional occupation disabled.
  Guess Type is SAD.
  Energy threshold   = 1.00e-10
  Density threshold  = 1.00e-10
  Integral threshold = 0.00e+00

  ==> Primary Basis <==

  Basis Set: AUG-CC-PVTZ
    Blend: AUG-CC-PVTZ
    Number of shells: 81
    Number of basis function: 257
    Number of Cartesian functions: 304
    Spherical Harmonics?: true
    Max angular momentum: 3

   => Loading Basis Set <=

    Name: (AUG-CC-PVTZ AUX)
    Role: JKFIT
    Keyword: DF_BASIS_SCF
    atoms 1   entry P          line   644 file /home/xy3866/psi4conda/share/psi4/basis/aug-cc-pvtz-jkfit.gbs 
    atoms 2-5 entry O          line   286 file /home/xy3866/psi4conda/share/psi4/basis/aug-cc-pvtz-jkfit.gbs 
    atoms 6   entry H          line    70 file /home/xy3866/psi4conda/share/psi4/basis/aug-cc-pvtz-jkfit.gbs 

  ==> Pre-Iterations <==

   -------------------------------------------------------
    Irrep   Nso     Nmo     Nalpha   Nbeta   Ndocc  Nsocc
   -------------------------------------------------------
     A        257     257       0       0       0       0
   -------------------------------------------------------
    Total     257     257      25      25      25       0
   -------------------------------------------------------

  ==> Integral Setup <==

  DFHelper Memory: AOs need 0.319 GiB; user supplied 22.352 GiB. Using in-core AOs.

  ==> MemDFJK: Density-Fitted J/K Matrices <==

    J tasked:                   Yes
    K tasked:                   Yes
    wK tasked:                   No
    OpenMP threads:               8
    Memory [MiB]:             22888
    Algorithm:                 Core
    Schwarz Cutoff:           1E-12
    Mask sparsity (%):       0.1090
    Fitting Condition:        1E-10

   => Auxiliary Basis Set <=

  Basis Set: (AUG-CC-PVTZ AUX)
    Blend: AUG-CC-PVTZ-JKFIT
    Number of shells: 176
    Number of basis function: 608
    Number of Cartesian functions: 759
    Spherical Harmonics?: true
    Max angular momentum: 4

  Minimum eigenvalue in the overlap matrix is 1.3552968128E-04.
  Using Symmetric Orthogonalization.

  SCF Guess: Superposition of Atomic Densities via on-the-fly atomic UHF.

  ==> Iterations <==

                           Total Energy        Delta E     RMS |[F,P]|

   @DF-RHF iter SAD:  -639.77633794695851   -6.39776e+02   0.00000e+00 
   @DF-RHF iter   1:  -640.54582440824652   -7.69486e-01   3.73637e-03 DIIS
   @DF-RHF iter   2:  -640.75336879514646   -2.07544e-01   2.70853e-03 DIIS
   @DF-RHF iter   3:  -640.90645681650039   -1.53088e-01   1.66213e-04 DIIS
   @DF-RHF iter   4:  -640.90752322781111   -1.06641e-03   8.39316e-05 DIIS
   @DF-RHF iter   5:  -640.90772357538651   -2.00348e-04   1.99669e-05 DIIS
   @DF-RHF iter   6:  -640.90774250229390   -1.89269e-05   4.74951e-06 DIIS
   @DF-RHF iter   7:  -640.90774466460812   -2.16231e-06   1.40962e-06 DIIS
   @DF-RHF iter   8:  -640.90774487991621   -2.15308e-07   5.42027e-07 DIIS
   @DF-RHF iter   9:  -640.90774489525199   -1.53358e-08   1.92896e-07 DIIS
   @DF-RHF iter  10:  -640.90774489773798   -2.48599e-09   6.21662e-08 DIIS
   @DF-RHF iter  11:  -640.90774489798514   -2.47155e-10   1.83069e-08 DIIS
   @DF-RHF iter  12:  -640.90774489801879   -3.36513e-11   5.22602e-09 DIIS
   @DF-RHF iter  13:  -640.90774489801845    3.41061e-13   1.49345e-09 DIIS
   @DF-RHF iter  14:  -640.90774489801993   -1.47793e-12   2.36534e-10 DIIS
   @DF-RHF iter  15:  -640.90774489801959    3.41061e-13   7.30756e-11 DIIS
  Energy and wave function converged.


  ==> Post-Iterations <==

    Orbital Energies [Eh]
    ---------------------

    Doubly Occupied:                                                      

       1A    -79.634288     2A    -20.199737     3A    -20.087301  
       4A    -20.083348     5A    -20.083330     6A     -7.151533  
       7A     -5.051458     8A     -5.048658     9A     -5.048478  
      10A     -1.012795    11A     -0.883860    12A     -0.829921  
      13A     -0.825435    14A     -0.380133    15A     -0.267958  
      16A     -0.213781    17A     -0.210867    18A     -0.146066  
      19A     -0.128486    20A     -0.068821    21A     -0.063896  
      22A     -0.062244    23A     -0.024044    24A     -0.014780  
      25A      0.005427  

    Virtual:                                                              

      26A      0.232829    27A      0.307620    28A      0.310754  
      29A      0.313174    30A      0.364885    31A      0.397313  
      32A      0.416322    33A      0.421402    34A      0.426221  
      35A      0.433895    36A      0.483994    37A      0.513982  
      38A      0.516796    39A      0.524940    40A      0.526144  
      41A      0.527352    42A      0.542137    43A      0.562645  
      44A      0.587266    45A      0.590978    46A      0.614886  
      47A      0.632483    48A      0.641068    49A      0.668496  
      50A      0.691619    51A      0.719818    52A      0.731797  
      53A      0.732183    54A      0.782297    55A      0.798238  
      56A      0.800521    57A      0.859252    58A      0.869408  
      59A      0.905704    60A      0.952879    61A      0.977347  
      62A      0.984282    63A      1.001704    64A      1.036257  
      65A      1.043685    66A      1.086547    67A      1.110559  
      68A      1.135335    69A      1.147480    70A      1.153411  
      71A      1.162741    72A      1.165962    73A      1.192200  
      74A      1.193720    75A      1.208910    76A      1.211296  
      77A      1.232263    78A      1.249497    79A      1.255603  
      80A      1.258510    81A      1.283206    82A      1.318717  
      83A      1.328390    84A      1.339406    85A      1.340583  
      86A      1.351014    87A      1.359971    88A      1.361956  
      89A      1.402759    90A      1.406099    91A      1.433548  
      92A      1.439488    93A      1.458517    94A      1.491585  
      95A      1.522732    96A      1.544751    97A      1.555873  
      98A      1.566257    99A      1.600545   100A      1.613110  
     101A      1.642130   102A      1.684433   103A      1.715627  
     104A      1.823592   105A      1.836077   106A      1.853191  
     107A      1.857649   108A      1.898226   109A      1.910909  
     110A      1.912095   111A      1.952277   112A      1.999237  
     113A      2.021644   114A      2.075107   115A      2.112168  
     116A      2.243546   117A      2.255059   118A      2.289540  
     119A      2.297399   120A      2.324656   121A      2.325453  
     122A      2.342110   123A      2.416994   124A      2.417618  
     125A      2.436803   126A      2.451374   127A      2.484908  
     128A      2.511932   129A      2.512028   130A      2.569069  
     131A      2.580252   132A      2.607286   133A      2.619293  
     134A      2.632068   135A      2.674982   136A      2.677632  
     137A      2.695961   138A      2.696882   139A      2.714213  
     140A      2.716901   141A      2.756250   142A      2.767008  
     143A      2.801134   144A      2.820984   145A      2.847081  
     146A      2.873479   147A      2.881910   148A      2.884365  
     149A      2.926857   150A      2.933456   151A      2.949663  
     152A      2.977937   153A      2.991744   154A      3.033640  
     155A      3.073333   156A      3.089519   157A      3.090503  
     158A      3.124034   159A      3.170522   160A      3.205307  
     161A      3.214158   162A      3.271492   163A      3.311731  
     164A      3.320394   165A      3.380670   166A      3.412038  
     167A      3.419028   168A      3.510791   169A      3.560687  
     170A      3.561907   171A      3.692691   172A      3.707125  
     173A      3.724121   174A      3.725286   175A      3.761132  
     176A      3.819158   177A      3.843603   178A      3.870163  
     179A      3.931158   180A      4.050829   181A      4.057044  
     182A      4.166224   183A      4.169653   184A      4.189942  
     185A      4.582437   186A      4.705033   187A      4.788017  
     188A      4.896609   189A      4.967302   190A      5.035673  
     191A      5.069366   192A      5.108397   193A      5.151765  
     194A      5.218771   195A      5.262117   196A      5.324263  
     197A      5.409935   198A      5.553479   199A      5.621214  
     200A      5.832600   201A      5.994716   202A      6.030574  
     203A      6.100922   204A      6.759281   205A      7.052374  
     206A      7.067559   207A      7.068679   208A      7.076013  
     209A      7.097308   210A      7.116587   211A      7.136668  
     212A      7.158492   213A      7.162105   214A      7.168326  
     215A      7.195234   216A      7.222323   217A      7.229066  
     218A      7.273590   219A      7.285662   220A      7.292492  
     221A      7.303778   222A      7.312859   223A      7.326026  
     224A      7.357947   225A      7.367982   226A      7.385743  
     227A      7.427187   228A      7.428865   229A      7.445059  
     230A      7.539552   231A      7.590349   232A      7.610804  
     233A      7.615383   234A      7.636985   235A      7.653387  
     236A      7.673189   237A      7.681621   238A      7.708699  
     239A      7.730351   240A      7.797080   241A      7.803628  
     242A      7.913493   243A      7.930636   244A      7.996769  
     245A      8.004457   246A      8.036972   247A      8.051165  
     248A      8.055086   249A      8.095977   250A      8.207759  
     251A      8.382693   252A      8.570776   253A     10.685185  
     254A     12.336811   255A     12.352781   256A     13.247657  
     257A     14.564105  

    Final Occupation by Irrep:
              A 
    DOCC [    25 ]

  @DF-RHF Final Energy:  -640.90774489801959

   => Energetics <=

    Nuclear Repulsion Energy =            256.6447592626001892
    One-Electron Energy =               -1420.0734238441766593
    Two-Electron Energy =                 522.5209196835568264
    Total Energy =                       -640.9077448980195868

Computation Completed

*** tstop() called on node142.bme.utexas.edu at Wed Nov  4 03:09:16 2020
Module time:
	user time   =      34.19 seconds =       0.57 minutes
	system time =       1.75 seconds =       0.03 minutes
	total time  =          6 seconds =       0.10 minutes
Total time:
	user time   =      34.19 seconds =       0.57 minutes
	system time =       1.75 seconds =       0.03 minutes
	total time  =          6 seconds =       0.10 minutes
   => Loading Basis Set <=

    Name: (AUG-CC-PVTZ AUX)
    Role: RIFIT
    Keyword: DF_BASIS_MP2
    atoms 1   entry P          line   590 file /home/xy3866/psi4conda/share/psi4/basis/aug-cc-pvtz-ri.gbs 
    atoms 2-5 entry O          line   264 file /home/xy3866/psi4conda/share/psi4/basis/aug-cc-pvtz-ri.gbs 
    atoms 6   entry H          line    30 file /home/xy3866/psi4conda/share/psi4/basis/aug-cc-pvtz-ri.gbs 


*** tstart() called on node142.bme.utexas.edu
*** at Wed Nov  4 03:09:16 2020


  //>>>>>>>>>>>>>>>>>>>>>>>>>>>>>>>>>>>//
  //               DFMP2               //
  //<<<<<<<<<<<<<<<<<<<<<<<<<<<<<<<<<<<//

	 --------------------------------------------------------
	                          DF-MP2                         
	      2nd-Order Density-Fitted Moller-Plesset Theory     
	              RMP2 Wavefunction,   8 Threads             
	                                                         
	        Rob Parrish, Justin Turney, Andy Simmonett,      
	           Ed Hohenstein, and C. David Sherrill          
	 --------------------------------------------------------

   => Auxiliary Basis Set <=

  Basis Set: (AUG-CC-PVTZ AUX)
    Blend: AUG-CC-PVTZ-RI
    Number of shells: 163
    Number of basis function: 617
    Number of Cartesian functions: 790
    Spherical Harmonics?: true
    Max angular momentum: 4

	 --------------------------------------------------------
	                 NBF =   257, NAUX =   617
	 --------------------------------------------------------
	   CLASS    FOCC     OCC    AOCC    AVIR     VIR    FVIR
	   PAIRS       0      25      25     232     232       0
	 --------------------------------------------------------

  DFHelper Memory: AOs need 0.319 GiB; user supplied 22.352 GiB. Using in-core AOs.


         ------------------------------------------------------------
                                     CPHF                           
                                  Rob Parrish                       
         ------------------------------------------------------------

  ==> Geometry <==

    Molecular point group: c1
    Full point group: C1

    Geometry (in Angstrom), charge = -2, multiplicity = 1:

       Center              X                  Y                   Z               Mass       
    ------------   -----------------  -----------------  -----------------  -----------------
         P            0.113043805876    -0.045447640913     0.000195653223    30.973761998420
         O           -1.254858094124     0.746783959087    -0.002907746777    15.994914619570
         O            0.011332805876    -0.881247640913    -1.296234346777    15.994914619570
         O            0.007406805876    -0.877152640913     1.298959653223    15.994914619570
         O            1.145660805876     1.093892359087    -0.000087346777    15.994914619570
         H           -2.038577194124     0.090974359087    -0.001731346777     1.007825032230

  Nuclear repulsion =  256.644759262600189
  Reference energy  = -640.907744898019587

  ==> Basis Set <==

  Basis Set: AUG-CC-PVTZ
    Blend: AUG-CC-PVTZ
    Number of shells: 81
    Number of basis function: 257
    Number of Cartesian functions: 304
    Spherical Harmonics?: true
    Max angular momentum: 3

  ==> CGRSolver (by Rob Parrish) <==

   Number of roots    =         1
   Preconditioning    =    JACOBI
   Convergence cutoff =     1E-06
   Maximum iterations =       100

  ==> CPHFRHamiltonian (by Rob Parrish) <== 

  ==> MemDFJK: Density-Fitted J/K Matrices <==

    J tasked:                   Yes
    K tasked:                   Yes
    wK tasked:                   No
    OpenMP threads:               8
    Memory [MiB]:             22888
    Algorithm:                 Core
    Schwarz Cutoff:           1E-12
    Mask sparsity (%):       0.1090
    Fitting Condition:        1E-10

   => Auxiliary Basis Set <=

  Basis Set: (AUG-CC-PVTZ AUX)
    Blend: AUG-CC-PVTZ-JKFIT
    Number of shells: 176
    Number of basis function: 608
    Number of Cartesian functions: 759
    Spherical Harmonics?: true
    Max angular momentum: 4

  ==> CPHF Iterations <==

  => Iterations <=

             Iter  Converged  Remaining    Residual
  CGR           1          0          1   8.030E-02
  CGR           2          0          1   1.841E-02
  CGR           3          0          1   6.189E-03
  CGR           4          0          1   2.348E-03
  CGR           5          0          1   6.683E-04
  CGR           6          0          1   2.347E-04
  CGR           7          0          1   7.422E-05
  CGR           8          0          1   2.099E-05
  CGR           9          0          1   8.630E-06
  CGR          10          0          1   1.809E-06
  CGR          11          1          0   6.898E-07

    CGRSolver converged.

	-----------------------------------------------------------
	 ==================> DF-MP2 Energies <==================== 
	-----------------------------------------------------------
	 Reference Energy          =    -640.9077448980195868 [Eh]
	 Singles Energy            =      -0.0000000000000000 [Eh]
	 Same-Spin Energy          =      -0.3399469575439186 [Eh]
	 Opposite-Spin Energy      =      -0.9343429726775434 [Eh]
	 Correlation Energy        =      -1.2742899302214621 [Eh]
	 Total Energy              =    -642.1820348282410578 [Eh]
	-----------------------------------------------------------
	 ================> DF-SCS-MP2 Energies <================== 
	-----------------------------------------------------------
	 SCS Same-Spin Scale       =       0.3333333333333333 [-]
	 SCS Opposite-Spin Scale   =       1.2000000000000000 [-]
	 SCS Same-Spin Energy      =      -0.1133156525146395 [Eh]
	 SCS Opposite-Spin Energy  =      -1.1212115672130520 [Eh]
	 SCS Correlation Energy    =      -1.2345272197276915 [Eh]
	 SCS Total Energy          =    -642.1422721177473250 [Eh]
	-----------------------------------------------------------



Properties will be evaluated at  -0.000000,   0.000000,   0.000000 [a0]

Properties computed using the MP2 density matrix

  Nuclear Dipole Moment: [e a0]
     X:    -2.0155      Y:     0.1275      Z:    -0.0018

  Electronic Dipole Moment: [e a0]
     X:     0.6556      Y:     0.1973      Z:    -0.0000

  Dipole Moment: [e a0]
     X:    -1.3599      Y:     0.3248      Z:    -0.0018     Total:     1.3981

  Dipole Moment: [D]
     X:    -3.4565      Y:     0.8255      Z:    -0.0047     Total:     3.5537


*** tstop() called on node142.bme.utexas.edu at Wed Nov  4 03:09:28 2020
Module time:
	user time   =      76.02 seconds =       1.27 minutes
	system time =       2.71 seconds =       0.05 minutes
	total time  =         12 seconds =       0.20 minutes
Total time:
	user time   =     111.21 seconds =       1.85 minutes
	system time =       4.54 seconds =       0.08 minutes
	total time  =         18 seconds =       0.30 minutes

    Psi4 stopped on: Wednesday, 04 November 2020 03:09AM
    Psi4 wall time for execution: 0:00:18.06

*** Psi4 exiting successfully. Buy a developer a beer!
