013_Neopentane Gaussian SP Calculation on node35.bme.utexas.edu         
Freq      RMP2-FC                                                     6-31G(d)            
Number of atoms                            I               17
Info1-9                                    I   N=           9
          28          27        1002           0           0         100
           6           2           1
Charge                                     I                0
Multiplicity                               I                1
Number of electrons                        I               42
Number of alpha electrons                  I               21
Number of beta electrons                   I               21
Number of basis functions                  I               99
Number of independent functions            I               99
Number of point charges in /Mol/           I                0
Number of translation vectors              I                0
Atomic numbers                             I   N=          17
           6           6           1           1           1           6
           1           1           1           6           1           1
           1           6           1           1           1
Nuclear charges                            R   N=          17
  6.00000000E+00  6.00000000E+00  1.00000000E+00  1.00000000E+00  1.00000000E+00
  6.00000000E+00  1.00000000E+00  1.00000000E+00  1.00000000E+00  6.00000000E+00
  1.00000000E+00  1.00000000E+00  1.00000000E+00  6.00000000E+00  1.00000000E+00
  1.00000000E+00  1.00000000E+00
Current cartesian coordinates              R   N=          51
  9.02563031E-07  3.62075177E-08  1.08523414E-06  6.56140689E-01  1.54578339E-01
  2.81099804E+00  1.93329971E+00  1.74039374E+00  3.18507208E+00 -1.04918178E+00
  4.22928359E-01  3.95368808E+00  1.58715505E+00 -1.58112150E+00  3.44852058E+00
 -1.29452432E+00  2.44995693E+00 -8.23443471E-01 -1.78458625E+00  2.38660461E+00
 -2.83384118E+00 -3.03676435E+00  2.76163296E+00  2.50489864E-01 -5.43119627E-02
  4.07921457E+00 -5.18044455E-01 -1.78217085E+00 -2.23058208E+00 -4.52232423E-01
 -2.28153886E+00 -2.38242209E+00 -2.45559189E+00 -3.53358427E+00 -2.00741109E+00
  6.28795158E-01 -8.97197530E-01 -4.01137009E+00  1.23520489E-01  2.42055357E+00
 -3.73953409E-01 -1.53532391E+00  3.38500592E+00 -2.11960078E+00 -9.79966203E-01
  2.00069057E+00 -4.90772137E-01 -3.55916738E+00  3.73101382E+00  1.20192458E+00
 -1.24347109E+00
Force Field                                I                0
Int Atom Types                             I   N=          17
           0           0           0           0           0           0
           0           0           0           0           0           0
           0           0           0           0           0
MM charges                                 R   N=          17
  0.00000000E+00  0.00000000E+00  0.00000000E+00  0.00000000E+00  0.00000000E+00
  0.00000000E+00  0.00000000E+00  0.00000000E+00  0.00000000E+00  0.00000000E+00
  0.00000000E+00  0.00000000E+00  0.00000000E+00  0.00000000E+00  0.00000000E+00
  0.00000000E+00  0.00000000E+00
Integer atomic weights                     I   N=          17
          12          12           1           1           1          12
           1           1           1          12           1           1
           1          12           1           1           1
Real atomic weights                        R   N=          17
  1.20000000E+01  1.20000000E+01  1.00782504E+00  1.00782504E+00  1.00782504E+00
  1.20000000E+01  1.00782504E+00  1.00782504E+00  1.00782504E+00  1.20000000E+01
  1.00782504E+00  1.00782504E+00  1.00782504E+00  1.20000000E+01  1.00782504E+00
  1.00782504E+00  1.00782504E+00
Atom fragment info                         I   N=          17
           0           0           0           0           0           0
           0           0           0           0           0           0
           0           0           0           0           0
Atom residue num                           I   N=          17
           0           0           0           0           0           0
           0           0           0           0           0           0
           0           0           0           0           0
Nuclear spins                              I   N=          17
           0           0           1           1           1           0
           1           1           1           0           1           1
           1           0           1           1           1
Nuclear ZEff                               R   N=          17
 -3.60000000E+00 -3.60000000E+00 -1.00000000E+00 -1.00000000E+00 -1.00000000E+00
 -3.60000000E+00 -1.00000000E+00 -1.00000000E+00 -1.00000000E+00 -3.60000000E+00
 -1.00000000E+00 -1.00000000E+00 -1.00000000E+00 -3.60000000E+00 -1.00000000E+00
 -1.00000000E+00 -1.00000000E+00
Nuclear QMom                               R   N=          17
  0.00000000E+00  0.00000000E+00  0.00000000E+00  0.00000000E+00  0.00000000E+00
  0.00000000E+00  0.00000000E+00  0.00000000E+00  0.00000000E+00  0.00000000E+00
  0.00000000E+00  0.00000000E+00  0.00000000E+00  0.00000000E+00  0.00000000E+00
  0.00000000E+00  0.00000000E+00
Nuclear GFac                               R   N=          17
  0.00000000E+00  0.00000000E+00  2.79284600E+00  2.79284600E+00  2.79284600E+00
  0.00000000E+00  2.79284600E+00  2.79284600E+00  2.79284600E+00  0.00000000E+00
  2.79284600E+00  2.79284600E+00  2.79284600E+00  0.00000000E+00  2.79284600E+00
  2.79284600E+00  2.79284600E+00
MicOpt                                     I   N=          17
          -1          -1          -1          -1          -1          -1
          -1          -1          -1          -1          -1          -1
          -1          -1          -1          -1          -1
Number of contracted shells                I               44
Number of primitive shells                 I              103
Pure/Cartesian d shells                    I                1
Pure/Cartesian f shells                    I                0
Highest angular momentum                   I                2
Largest degree of contraction              I                6
Shell types                                I   N=          44
           0          -1          -1           2           0          -1
          -1           2           0           0           0           0
           0           0           0          -1          -1           2
           0           0           0           0           0           0
           0          -1          -1           2           0           0
           0           0           0           0           0          -1
          -1           2           0           0           0           0
           0           0
Number of primitives per shell             I   N=          44
           6           3           1           1           6           3
           1           1           3           1           3           1
           3           1           6           3           1           1
           3           1           3           1           3           1
           6           3           1           1           3           1
           3           1           3           1           6           3
           1           1           3           1           3           1
           3           1
Shell to atom map                          I   N=          44
           1           1           1           1           2           2
           2           2           3           3           4           4
           5           5           6           6           6           6
           7           7           8           8           9           9
          10          10          10          10          11          11
          12          12          13          13          14          14
          14          14          15          15          16          16
          17          17
Primitive exponents                        R   N=         103
  3.04752488E+03  4.57369518E+02  1.03948685E+02  2.92101553E+01  9.28666296E+00
  3.16392696E+00  7.86827235E+00  1.88128854E+00  5.44249258E-01  1.68714478E-01
  8.00000000E-01  3.04752488E+03  4.57369518E+02  1.03948685E+02  2.92101553E+01
  9.28666296E+00  3.16392696E+00  7.86827235E+00  1.88128854E+00  5.44249258E-01
  1.68714478E-01  8.00000000E-01  1.87311370E+01  2.82539436E+00  6.40121692E-01
  1.61277759E-01  1.87311370E+01  2.82539436E+00  6.40121692E-01  1.61277759E-01
  1.87311370E+01  2.82539436E+00  6.40121692E-01  1.61277759E-01  3.04752488E+03
  4.57369518E+02  1.03948685E+02  2.92101553E+01  9.28666296E+00  3.16392696E+00
  7.86827235E+00  1.88128854E+00  5.44249258E-01  1.68714478E-01  8.00000000E-01
  1.87311370E+01  2.82539436E+00  6.40121692E-01  1.61277759E-01  1.87311370E+01
  2.82539436E+00  6.40121692E-01  1.61277759E-01  1.87311370E+01  2.82539436E+00
  6.40121692E-01  1.61277759E-01  3.04752488E+03  4.57369518E+02  1.03948685E+02
  2.92101553E+01  9.28666296E+00  3.16392696E+00  7.86827235E+00  1.88128854E+00
  5.44249258E-01  1.68714478E-01  8.00000000E-01  1.87311370E+01  2.82539436E+00
  6.40121692E-01  1.61277759E-01  1.87311370E+01  2.82539436E+00  6.40121692E-01
  1.61277759E-01  1.87311370E+01  2.82539436E+00  6.40121692E-01  1.61277759E-01
  3.04752488E+03  4.57369518E+02  1.03948685E+02  2.92101553E+01  9.28666296E+00
  3.16392696E+00  7.86827235E+00  1.88128854E+00  5.44249258E-01  1.68714478E-01
  8.00000000E-01  1.87311370E+01  2.82539436E+00  6.40121692E-01  1.61277759E-01
  1.87311370E+01  2.82539436E+00  6.40121692E-01  1.61277759E-01  1.87311370E+01
  2.82539436E+00  6.40121692E-01  1.61277759E-01
Contraction coefficients                   R   N=         103
  1.83473713E-03  1.40373228E-02  6.88426223E-02  2.32184443E-01  4.67941348E-01
  3.62311985E-01 -1.19332420E-01 -1.60854152E-01  1.14345644E+00  1.00000000E+00
  1.00000000E+00  1.83473713E-03  1.40373228E-02  6.88426223E-02  2.32184443E-01
  4.67941348E-01  3.62311985E-01 -1.19332420E-01 -1.60854152E-01  1.14345644E+00
  1.00000000E+00  1.00000000E+00  3.34946043E-02  2.34726953E-01  8.13757326E-01
  1.00000000E+00  3.34946043E-02  2.34726953E-01  8.13757326E-01  1.00000000E+00
  3.34946043E-02  2.34726953E-01  8.13757326E-01  1.00000000E+00  1.83473713E-03
  1.40373228E-02  6.88426223E-02  2.32184443E-01  4.67941348E-01  3.62311985E-01
 -1.19332420E-01 -1.60854152E-01  1.14345644E+00  1.00000000E+00  1.00000000E+00
  3.34946043E-02  2.34726953E-01  8.13757326E-01  1.00000000E+00  3.34946043E-02
  2.34726953E-01  8.13757326E-01  1.00000000E+00  3.34946043E-02  2.34726953E-01
  8.13757326E-01  1.00000000E+00  1.83473713E-03  1.40373228E-02  6.88426223E-02
  2.32184443E-01  4.67941348E-01  3.62311985E-01 -1.19332420E-01 -1.60854152E-01
  1.14345644E+00  1.00000000E+00  1.00000000E+00  3.34946043E-02  2.34726953E-01
  8.13757326E-01  1.00000000E+00  3.34946043E-02  2.34726953E-01  8.13757326E-01
  1.00000000E+00  3.34946043E-02  2.34726953E-01  8.13757326E-01  1.00000000E+00
  1.83473713E-03  1.40373228E-02  6.88426223E-02  2.32184443E-01  4.67941348E-01
  3.62311985E-01 -1.19332420E-01 -1.60854152E-01  1.14345644E+00  1.00000000E+00
  1.00000000E+00  3.34946043E-02  2.34726953E-01  8.13757326E-01  1.00000000E+00
  3.34946043E-02  2.34726953E-01  8.13757326E-01  1.00000000E+00  3.34946043E-02
  2.34726953E-01  8.13757326E-01  1.00000000E+00
P(S=P) Contraction coefficients            R   N=         103
  0.00000000E+00  0.00000000E+00  0.00000000E+00  0.00000000E+00  0.00000000E+00
  0.00000000E+00  6.89990666E-02  3.16423961E-01  7.44308291E-01  1.00000000E+00
  0.00000000E+00  0.00000000E+00  0.00000000E+00  0.00000000E+00  0.00000000E+00
  0.00000000E+00  0.00000000E+00  6.89990666E-02  3.16423961E-01  7.44308291E-01
  1.00000000E+00  0.00000000E+00  0.00000000E+00  0.00000000E+00  0.00000000E+00
  0.00000000E+00  0.00000000E+00  0.00000000E+00  0.00000000E+00  0.00000000E+00
  0.00000000E+00  0.00000000E+00  0.00000000E+00  0.00000000E+00  0.00000000E+00
  0.00000000E+00  0.00000000E+00  0.00000000E+00  0.00000000E+00  0.00000000E+00
  6.89990666E-02  3.16423961E-01  7.44308291E-01  1.00000000E+00  0.00000000E+00
  0.00000000E+00  0.00000000E+00  0.00000000E+00  0.00000000E+00  0.00000000E+00
  0.00000000E+00  0.00000000E+00  0.00000000E+00  0.00000000E+00  0.00000000E+00
  0.00000000E+00  0.00000000E+00  0.00000000E+00  0.00000000E+00  0.00000000E+00
  0.00000000E+00  0.00000000E+00  0.00000000E+00  6.89990666E-02  3.16423961E-01
  7.44308291E-01  1.00000000E+00  0.00000000E+00  0.00000000E+00  0.00000000E+00
  0.00000000E+00  0.00000000E+00  0.00000000E+00  0.00000000E+00  0.00000000E+00
  0.00000000E+00  0.00000000E+00  0.00000000E+00  0.00000000E+00  0.00000000E+00
  0.00000000E+00  0.00000000E+00  0.00000000E+00  0.00000000E+00  0.00000000E+00
  0.00000000E+00  6.89990666E-02  3.16423961E-01  7.44308291E-01  1.00000000E+00
  0.00000000E+00  0.00000000E+00  0.00000000E+00  0.00000000E+00  0.00000000E+00
  0.00000000E+00  0.00000000E+00  0.00000000E+00  0.00000000E+00  0.00000000E+00
  0.00000000E+00  0.00000000E+00  0.00000000E+00
Coordinates of each shell                  R   N=         132
  9.02563031E-07  3.62075177E-08  1.08523414E-06  9.02563031E-07  3.62075177E-08
  1.08523414E-06  9.02563031E-07  3.62075177E-08  1.08523414E-06  9.02563031E-07
  3.62075177E-08  1.08523414E-06  6.56140689E-01  1.54578339E-01  2.81099804E+00
  6.56140689E-01  1.54578339E-01  2.81099804E+00  6.56140689E-01  1.54578339E-01
  2.81099804E+00  6.56140689E-01  1.54578339E-01  2.81099804E+00  1.93329971E+00
  1.74039374E+00  3.18507208E+00  1.93329971E+00  1.74039374E+00  3.18507208E+00
 -1.04918178E+00  4.22928359E-01  3.95368808E+00 -1.04918178E+00  4.22928359E-01
  3.95368808E+00  1.58715505E+00 -1.58112150E+00  3.44852058E+00  1.58715505E+00
 -1.58112150E+00  3.44852058E+00 -1.29452432E+00  2.44995693E+00 -8.23443471E-01
 -1.29452432E+00  2.44995693E+00 -8.23443471E-01 -1.29452432E+00  2.44995693E+00
 -8.23443471E-01 -1.29452432E+00  2.44995693E+00 -8.23443471E-01 -1.78458625E+00
  2.38660461E+00 -2.83384118E+00 -1.78458625E+00  2.38660461E+00 -2.83384118E+00
 -3.03676435E+00  2.76163296E+00  2.50489864E-01 -3.03676435E+00  2.76163296E+00
  2.50489864E-01 -5.43119627E-02  4.07921457E+00 -5.18044455E-01 -5.43119627E-02
  4.07921457E+00 -5.18044455E-01 -1.78217085E+00 -2.23058208E+00 -4.52232423E-01
 -1.78217085E+00 -2.23058208E+00 -4.52232423E-01 -1.78217085E+00 -2.23058208E+00
 -4.52232423E-01 -1.78217085E+00 -2.23058208E+00 -4.52232423E-01 -2.28153886E+00
 -2.38242209E+00 -2.45559189E+00 -2.28153886E+00 -2.38242209E+00 -2.45559189E+00
 -3.53358427E+00 -2.00741109E+00  6.28795158E-01 -3.53358427E+00 -2.00741109E+00
  6.28795158E-01 -8.97197530E-01 -4.01137009E+00  1.23520489E-01 -8.97197530E-01
 -4.01137009E+00  1.23520489E-01  2.42055357E+00 -3.73953409E-01 -1.53532391E+00
  2.42055357E+00 -3.73953409E-01 -1.53532391E+00  2.42055357E+00 -3.73953409E-01
 -1.53532391E+00  2.42055357E+00 -3.73953409E-01 -1.53532391E+00  3.38500592E+00
 -2.11960078E+00 -9.79966203E-01  3.38500592E+00 -2.11960078E+00 -9.79966203E-01
  2.00069057E+00 -4.90772137E-01 -3.55916738E+00  2.00069057E+00 -4.90772137E-01
 -3.55916738E+00  3.73101382E+00  1.20192458E+00 -1.24347109E+00  3.73101382E+00
  1.20192458E+00 -1.24347109E+00
Constraint Structure                       R   N=          51
  9.02563031E-07  3.62075177E-08  1.08523414E-06  6.56140689E-01  1.54578339E-01
  2.81099804E+00  1.93329971E+00  1.74039374E+00  3.18507208E+00 -1.04918178E+00
  4.22928359E-01  3.95368808E+00  1.58715505E+00 -1.58112150E+00  3.44852058E+00
 -1.29452432E+00  2.44995693E+00 -8.23443471E-01 -1.78458625E+00  2.38660461E+00
 -2.83384118E+00 -3.03676435E+00  2.76163296E+00  2.50489864E-01 -5.43119627E-02
  4.07921457E+00 -5.18044455E-01 -1.78217085E+00 -2.23058208E+00 -4.52232423E-01
 -2.28153886E+00 -2.38242209E+00 -2.45559189E+00 -3.53358427E+00 -2.00741109E+00
  6.28795158E-01 -8.97197530E-01 -4.01137009E+00  1.23520489E-01  2.42055357E+00
 -3.73953409E-01 -1.53532391E+00  3.38500592E+00 -2.11960078E+00 -9.79966203E-01
  2.00069057E+00 -4.90772137E-01 -3.55916738E+00  3.73101382E+00  1.20192458E+00
 -1.24347109E+00
Num ILSW                                   I              100
ILSW                                       I   N=         100
           0           1           0           0           2           0
           0           0           0           0           0          -1
           0           0           0           0           0           0
           0           0           0           0           1           0
           1           0           0           0           0           0
           0           0      100000           0          -1           0
           0           0           0           0           0           0
           0           0           0           1           1           0
           0           0           1           0           0           0
           0           0           4          40           0           0
           0           0           0           0           0           0
           0           0           0           0           0           0
           0           0           0           0           0           0
           0           0           0           0           0           0
           0           0           0           0           0           0
           0           0           0           0           0           0
           0           0           0           0
Num RLSW                                   I               40
RLSW                                       R   N=          40
  1.00000000E+00  1.00000000E+00  1.00000000E+00  1.00000000E+00  1.00000000E+00
  0.00000000E+00  0.00000000E+00  1.00000000E+00  0.00000000E+00  0.00000000E+00
  0.00000000E+00  0.00000000E+00  1.00000000E+00  0.00000000E+00  0.00000000E+00
  0.00000000E+00  0.00000000E+00  1.00000000E+00  0.00000000E+00  0.00000000E+00
  0.00000000E+00  0.00000000E+00  1.00000000E+00  0.00000000E+00  0.00000000E+00
  0.00000000E+00  0.00000000E+00  1.00000000E+00  0.00000000E+00  0.00000000E+00
  0.00000000E+00  0.00000000E+00  0.00000000E+00  0.00000000E+00  0.00000000E+00
  0.00000000E+00  0.00000000E+00  0.00000000E+00  1.00000000E+00  1.00000000E+00
MxBond                                     I                4
NBond                                      I   N=          17
           4           4           1           1           1           4
           1           1           1           4           1           1
           1           4           1           1           1
IBond                                      I   N=          68
           2           6          10          14           1           3
           4           5           2           0           0           0
           2           0           0           0           2           0
           0           0           1           7           8           9
           6           0           0           0           6           0
           0           0           6           0           0           0
           1          11          12          13          10           0
           0           0          10           0           0           0
          10           0           0           0           1          15
          16          17          14           0           0           0
          14           0           0           0          14           0
           0           0
RBond                                      R   N=          68
  1.00000000E+00  1.00000000E+00  1.00000000E+00  1.00000000E+00  1.00000000E+00
  1.00000000E+00  1.00000000E+00  1.00000000E+00  1.00000000E+00  0.00000000E+00
  0.00000000E+00  0.00000000E+00  1.00000000E+00  0.00000000E+00  0.00000000E+00
  0.00000000E+00  1.00000000E+00  0.00000000E+00  0.00000000E+00  0.00000000E+00
  1.00000000E+00  1.00000000E+00  1.00000000E+00  1.00000000E+00  1.00000000E+00
  0.00000000E+00  0.00000000E+00  0.00000000E+00  1.00000000E+00  0.00000000E+00
  0.00000000E+00  0.00000000E+00  1.00000000E+00  0.00000000E+00  0.00000000E+00
  0.00000000E+00  1.00000000E+00  1.00000000E+00  1.00000000E+00  1.00000000E+00
  1.00000000E+00  0.00000000E+00  0.00000000E+00  0.00000000E+00  1.00000000E+00
  0.00000000E+00  0.00000000E+00  0.00000000E+00  1.00000000E+00  0.00000000E+00
  0.00000000E+00  0.00000000E+00  1.00000000E+00  1.00000000E+00  1.00000000E+00
  1.00000000E+00  1.00000000E+00  0.00000000E+00  0.00000000E+00  0.00000000E+00
  1.00000000E+00  0.00000000E+00  0.00000000E+00  0.00000000E+00  1.00000000E+00
  0.00000000E+00  0.00000000E+00  0.00000000E+00
Virial Ratio                               R      2.000847667458401E+00
SCF Energy                                 R     -1.963330274845760E+02
MP2 Energy                                 R     -1.969991212869578E+02
Total Energy                               R     -1.969991212869578E+02
Post-SCF wavefunction norm                 R      1.564019049517341E+00
RMS Force                                  R      4.021610831389021E-07
RMS Density                                R      6.864368563292456E-10
External E-field                           R   N=          35
  0.00000000E+00  0.00000000E+00  0.00000000E+00  0.00000000E+00  0.00000000E+00
  0.00000000E+00  0.00000000E+00  0.00000000E+00  0.00000000E+00  0.00000000E+00
  0.00000000E+00  0.00000000E+00  0.00000000E+00  0.00000000E+00  0.00000000E+00
  0.00000000E+00  0.00000000E+00  0.00000000E+00  0.00000000E+00  0.00000000E+00
  0.00000000E+00  0.00000000E+00  0.00000000E+00  0.00000000E+00  0.00000000E+00
  0.00000000E+00  0.00000000E+00  0.00000000E+00  0.00000000E+00  0.00000000E+00
  0.00000000E+00  0.00000000E+00  0.00000000E+00  0.00000000E+00  0.00000000E+00
IOpCl                                      I                0
IROHF                                      I                0
Alpha Orbital Energies                     R   N=          99
 -1.12288491E+01 -1.12084603E+01 -1.12084603E+01 -1.12084602E+01 -1.12084149E+01
 -1.10441553E+00 -9.26550731E-01 -9.26550663E-01 -9.26550562E-01 -7.28743825E-01
 -6.09824090E-01 -6.09823891E-01 -6.09823838E-01 -5.51313350E-01 -5.51313338E-01
 -5.08014456E-01 -5.08014441E-01 -5.08014396E-01 -4.51226044E-01 -4.51225420E-01
 -4.51225200E-01  2.09644778E-01  2.84603612E-01  2.84603651E-01  2.84603662E-01
  3.13477829E-01  3.13477894E-01  3.13477964E-01  3.32850225E-01  3.32850329E-01
  3.83385891E-01  3.87605702E-01  3.87605755E-01  3.87605808E-01  4.21747285E-01
  4.21747491E-01  4.21748075E-01  7.14017062E-01  7.14017133E-01  7.27948699E-01
  7.27948764E-01  7.27948837E-01  8.66741850E-01  8.66742244E-01  8.66742453E-01
  9.04986304E-01  1.02388986E+00  1.02389014E+00  1.02389077E+00  1.12154500E+00
  1.12154526E+00  1.12154534E+00  1.15486419E+00  1.15792414E+00  1.15792419E+00
  1.15792427E+00  1.20648144E+00  1.20648150E+00  1.20648151E+00  1.20987485E+00
  1.22559915E+00  1.22559924E+00  1.26323478E+00  1.26323488E+00  1.26323494E+00
  1.67483336E+00  1.67483338E+00  1.75456320E+00  1.75456364E+00  1.75456367E+00
  1.94316139E+00  2.03038669E+00  2.03038688E+00  2.03038691E+00  2.19137241E+00
  2.19137313E+00  2.19137527E+00  2.41401151E+00  2.41401171E+00  2.42883741E+00
  2.42883756E+00  2.42883761E+00  2.58653692E+00  2.58653697E+00  2.58653704E+00
  2.59200081E+00  2.61061495E+00  2.61061501E+00  2.61061503E+00  2.94874359E+00
  2.94874388E+00  3.07620356E+00  3.07620365E+00  3.07620464E+00  4.60368534E+00
  4.74386747E+00  4.74386749E+00  4.74386764E+00  5.10601684E+00
Alpha MO coefficients                      R   N=        9801
  9.95713622E-01  2.88753511E-02  6.81355060E-10  3.07981065E-10  1.86412458E-09
 -2.30078455E-02  6.85952361E-10 -1.04035791E-09 -3.43018648E-09 -1.05905119E-03
 -1.05905271E-03 -1.05904678E-03 -3.85183543E-10  7.41791213E-10  3.80504113E-10
  1.45947364E-02  4.63751975E-04 -4.86977220E-05 -1.14725550E-05 -2.08628073E-04
  4.93273503E-03 -4.95187006E-04 -1.16659599E-04 -2.12144774E-03 -1.27795047E-04
 -1.09142794E-04 -4.70503820E-04 -5.37214532E-06 -9.76925388E-05 -2.30151751E-05
 -1.70173158E-04 -9.66717221E-05 -1.70173257E-04 -9.66725530E-05 -1.70173168E-04
 -9.66718562E-05  1.45946613E-02  4.63749615E-04  9.60792512E-05 -1.81835115E-04
  6.11159025E-05  4.93272451E-03  9.76970049E-04 -1.84896559E-03  6.21447950E-04
 -1.84916286E-04 -3.83373806E-04 -1.39150174E-04  1.67984663E-04 -5.64605961E-05
  1.06854602E-04 -1.70173457E-04 -9.66736778E-05 -1.70173561E-04 -9.66730145E-05
 -1.70173865E-04 -9.66733827E-05  1.45946529E-02  4.63749342E-04  1.32272404E-04
  1.65553426E-04  3.35647447E-05  4.93272317E-03  1.34499290E-03  1.68340415E-03
  3.41297582E-04 -2.53737246E-04 -3.36274384E-04 -1.17428539E-04 -2.10556225E-04
 -4.26886342E-05 -5.34294746E-05 -1.70173492E-04 -9.66736573E-05 -1.70173598E-04
 -9.66732379E-05 -1.70173903E-04 -9.66735150E-05  1.45946752E-02  4.63750032E-04
 -1.79651894E-04  2.77545965E-05  1.13950949E-04  4.93272526E-03 -1.82677627E-03
  2.82220336E-04  1.15869902E-03 -3.76805113E-04 -1.14461563E-04 -2.16174069E-04
  4.79439531E-05  1.96841420E-04 -3.04102328E-05 -1.70173546E-04 -9.66724970E-05
 -1.70173445E-04 -9.66739897E-05 -1.70173566E-04 -9.66724765E-05 -3.27141042E-06
 -1.74510377E-08 -4.08203065E-05 -1.72679740E-04  1.35188140E-05  4.37336910E-07
 -3.23168491E-04 -1.36708575E-03  1.07026273E-04 -2.66182706E-05  2.74876604E-06
  2.37466915E-05 -2.00630536E-04 -8.76780403E-06 -7.79725287E-05 -2.58892518E-02
 -7.48601011E-04  2.81941636E-05  1.19259107E-04 -9.34820462E-06  4.11457533E-04
 -2.00536655E-04 -8.50173205E-04  6.87171709E-05  5.37642031E-05  4.57999827E-05
  3.27510478E-05  6.41453224E-05  1.24119815E-05  6.38495994E-05  6.93352435E-05
  4.53261262E-04 -1.53382361E-05 -1.38392409E-04 -6.98806991E-05 -5.19317029E-04
 -6.39281292E-01 -1.84835432E-02  2.83730625E-05  1.18917687E-04 -9.21867981E-06
  1.01551174E-02 -2.25462449E-04 -8.04004323E-04  5.09868954E-05  1.06013462E-03
  1.15924280E-03  1.04875244E-03  1.39403718E-05  1.05128098E-05 -1.29584865E-05
 -1.54271540E-04 -1.84881340E-03 -1.60881779E-04 -1.89490414E-03 -7.61957764E-05
 -1.30330564E-03  7.57525950E-01  2.19022033E-02  2.78874250E-05  1.18880999E-04
 -9.41183792E-06 -1.20329988E-02 -1.61073894E-04 -8.00335629E-04  7.66849665E-05
 -1.27545646E-03 -1.34795950E-03 -1.24928447E-03 -2.43539472E-05 -5.76829137E-06
  5.76446223E-06  1.77133057E-04  2.15120413E-03  1.70525529E-04  2.10510059E-03
  1.15996375E-04  1.72411142E-03 -9.21353768E-02 -2.66396848E-03  2.81453052E-05
  1.19268032E-04 -9.31207598E-06  1.46376871E-03 -1.94401171E-04 -8.51317999E-04
  6.24194065E-05  1.79916140E-04  1.40520862E-04  1.50545138E-04  8.80602174E-05
 -1.09599671E-05 -1.54995207E-06 -8.55905176E-05 -7.09060269E-04 -2.44661950E-05
 -2.81913667E-04  5.36230347E-05  2.63529027E-04  9.45630296E-06  5.03323362E-08
  1.71931055E-04 -4.20788579E-05 -1.83373756E-05 -1.26163707E-06  1.36115884E-03
 -3.33133526E-04 -1.45175780E-04 -8.80686246E-05  1.60270113E-04 -7.18469106E-05
  1.56305033E-05  1.38259719E-04 -4.65430224E-05  9.16475944E-02  2.64999328E-03
 -1.18733361E-04  2.90682825E-05  1.27052893E-05 -1.45641646E-03  8.44837265E-04
 -2.07652992E-04 -9.78815471E-05 -1.44522758E-04 -1.91931572E-04 -1.31964162E-04
 -4.20257964E-06 -8.10858311E-05  2.25951416E-05 -1.23510991E-05  2.41305061E-05
  9.86578838E-05  7.99588672E-04 -3.01024512E-05 -1.00014466E-04 -5.20821150E-01
 -1.50582535E-02 -1.18587163E-04  2.87626646E-05  1.27617648E-05  8.27257229E-03
  8.26670985E-04 -1.69438665E-04 -1.02962188E-04  9.22320803E-04  8.65235765E-04
  8.75119319E-04 -6.96647860E-05 -1.85792714E-05 -1.47907995E-06 -1.14384443E-04
 -1.42742317E-03 -4.66551181E-05 -9.54331303E-04 -1.57656294E-04 -1.72982406E-03
 -3.42601232E-01 -9.90539879E-03 -1.18597678E-04  2.92433061E-05  1.27057982E-05
  5.44157048E-03  8.28541450E-04 -2.29814589E-04 -9.49119498E-05  6.45646070E-04
  5.25412245E-04  5.80512384E-04  4.23971793E-05 -2.89711800E-05  1.19575126E-05
 -7.20889054E-05 -9.17109597E-04 -4.37545063E-06 -4.43944167E-04 -1.33140649E-04
 -1.34352375E-03  7.71139260E-01  2.22960676E-02 -1.18343265E-04  2.89978643E-05
  1.24100852E-05 -1.22500588E-02  7.91452240E-04 -1.98666092E-04 -5.53033900E-05
 -1.35989341E-03 -1.31067617E-03 -1.27158195E-03  2.04236046E-05  3.09234431E-05
 -1.80011263E-07  1.31106329E-04  1.84586570E-03  1.92149875E-04  2.27231721E-03
  1.48873750E-04  1.96993647E-03  2.37142929E-05  1.26436612E-07  2.09906679E-05
  8.85479357E-06  1.76486008E-04 -3.16759741E-06  1.66176107E-04  7.01035306E-05
  1.39724006E-03  1.01404467E-04  9.16603560E-05 -1.92174920E-04 -1.23457902E-05
 -9.87013525E-05 -1.70764268E-05  8.56725619E-01  2.47709164E-02 -1.43815078E-05
 -6.08888867E-06 -1.21396209E-04 -1.36105061E-02  8.67567038E-05  3.96945813E-05
  7.97917505E-04 -1.43806680E-03 -1.42930496E-03 -1.51215949E-03  1.26133677E-06
 -1.14954298E-05 -5.33027511E-06  1.80481883E-04  2.29372212E-03  1.66028634E-04
  2.19275501E-03  1.78169168E-04  2.27758053E-03 -2.53230162E-01 -7.32112799E-03
 -1.44018579E-05 -6.28714609E-06 -1.21833600E-04  4.02100746E-03  9.36074637E-05
  6.19990269E-05  8.62873894E-04  3.97690608E-04  4.06106727E-04  4.91048355E-04
 -1.15405975E-05  5.19262855E-05 -4.03603808E-05  2.54474474E-05 -1.28128099E-04
 -9.73154008E-05 -9.85824048E-04 -8.28731564E-05 -8.84804785E-04 -2.30039308E-01
 -6.65061296E-03 -1.43836227E-05 -5.96675829E-06 -1.21861417E-04  3.65262304E-03
  9.12184907E-05  2.83512161E-05  8.65967076E-04  3.64964631E-04  3.69883553E-04
  4.41439873E-04  2.16957992E-05  5.76784915E-05  4.31163454E-05  3.09485032E-05
 -6.17112769E-05 -9.18232708E-05 -9.19365639E-04 -7.96707563E-05 -8.34594442E-04
 -3.75050568E-01 -1.08433102E-02 -1.47345638E-05 -6.08299830E-06 -1.21740722E-04
  5.95611455E-03  1.30270423E-04  3.94765568E-05  8.51990622E-04  6.07029530E-04