203_Hexamethylbenzene Gaussian OPT Calculation on node35.bme.utexas.edu 
Freq      RMP2-FC                                                     6-31G(d)            
Number of atoms                            I               30
Info1-9                                    I   N=           9
          40          40        1002           0           0         100
           6           2           1
Charge                                     I                0
Multiplicity                               I                1
Number of electrons                        I               90
Number of alpha electrons                  I               45
Number of beta electrons                   I               45
Number of basis functions                  I              216
Number of independent functions            I              216
Number of point charges in /Mol/           I                0
Number of translation vectors              I                0
Atomic numbers                             I   N=          30
           6           6           6           6           6           6
           6           6           6           6           6           6
           1           1           1           1           1           1
           1           1           1           1           1           1
           1           1           1           1           1           1
Nuclear charges                            R   N=          30
  6.00000000E+00  6.00000000E+00  6.00000000E+00  6.00000000E+00  6.00000000E+00
  6.00000000E+00  6.00000000E+00  6.00000000E+00  6.00000000E+00  6.00000000E+00
  6.00000000E+00  6.00000000E+00  1.00000000E+00  1.00000000E+00  1.00000000E+00
  1.00000000E+00  1.00000000E+00  1.00000000E+00  1.00000000E+00  1.00000000E+00
  1.00000000E+00  1.00000000E+00  1.00000000E+00  1.00000000E+00  1.00000000E+00
  1.00000000E+00  1.00000000E+00  1.00000000E+00  1.00000000E+00  1.00000000E+00
Current cartesian coordinates              R   N=          90
  2.49702359E+00 -9.12083335E-01  4.29575283E-02  4.58624581E-01 -2.61852790E+00
 -4.29547032E-02  2.03839945E+00  1.70644487E+00 -4.29569620E-02 -2.03839861E+00
 -1.70644459E+00  4.29561493E-02 -4.58624256E-01  2.61852825E+00  4.29545382E-02
 -2.49702317E+00  9.12083077E-01 -4.29569716E-02  5.17944342E+00 -1.89188345E+00
  1.65303801E-01  9.51301133E-01 -5.43147231E+00 -1.65300444E-01  4.22814466E+00
  3.53958464E+00 -1.65303851E-01 -4.22814348E+00 -3.53958491E+00  1.65296543E-01
 -9.51303104E-01  5.43147245E+00  1.65300583E-01 -5.17944330E+00  1.89188357E+00
 -1.65296408E-01  5.99919975E+00 -2.19131796E+00 -1.71633209E+00  6.40712755E+00
 -5.77151064E-01  1.17547814E+00  5.27069954E+00 -3.68837625E+00  1.17548567E+00
  2.70373096E+00 -5.83731365E+00 -1.17548056E+00  1.10186670E+00 -6.29111686E+00
  1.71633590E+00 -5.58883356E-01 -6.40874867E+00 -1.17547641E+00  3.70339527E+00
  5.26016351E+00 -1.17546613E+00  5.82957353E+00  2.72036875E+00 -1.17549851E+00
  4.89735169E+00  4.09978390E+00  1.71633201E+00 -5.82957523E+00 -2.72037070E+00
  1.17548813E+00 -4.89734579E+00 -4.09978168E+00 -1.71634168E+00 -3.70339583E+00
 -5.26016483E+00  1.17545777E+00 -1.10188842E+00  6.29111345E+00 -1.71633590E+00
 -2.70372464E+00  5.83731180E+00  1.17549646E+00  5.58888831E-01  6.40875269E+00
  1.17546136E+00 -6.40712820E+00  5.77155348E-01 -1.17547539E+00 -5.99919696E+00
  2.19130887E+00  1.71634214E+00 -5.27070084E+00  3.68838111E+00 -1.17546973E+00
Force Field                                I                0
Int Atom Types                             I   N=          30
           0           0           0           0           0           0
           0           0           0           0           0           0
           0           0           0           0           0           0
           0           0           0           0           0           0
           0           0           0           0           0           0
MM charges                                 R   N=          30
  0.00000000E+00  0.00000000E+00  0.00000000E+00  0.00000000E+00  0.00000000E+00
  0.00000000E+00  0.00000000E+00  0.00000000E+00  0.00000000E+00  0.00000000E+00
  0.00000000E+00  0.00000000E+00  0.00000000E+00  0.00000000E+00  0.00000000E+00
  0.00000000E+00  0.00000000E+00  0.00000000E+00  0.00000000E+00  0.00000000E+00
  0.00000000E+00  0.00000000E+00  0.00000000E+00  0.00000000E+00  0.00000000E+00
  0.00000000E+00  0.00000000E+00  0.00000000E+00  0.00000000E+00  0.00000000E+00
Integer atomic weights                     I   N=          30
          12          12          12          12          12          12
          12          12          12          12          12          12
           1           1           1           1           1           1
           1           1           1           1           1           1
           1           1           1           1           1           1
Real atomic weights                        R   N=          30
  1.20000000E+01  1.20000000E+01  1.20000000E+01  1.20000000E+01  1.20000000E+01
  1.20000000E+01  1.20000000E+01  1.20000000E+01  1.20000000E+01  1.20000000E+01
  1.20000000E+01  1.20000000E+01  1.00782504E+00  1.00782504E+00  1.00782504E+00
  1.00782504E+00  1.00782504E+00  1.00782504E+00  1.00782504E+00  1.00782504E+00
  1.00782504E+00  1.00782504E+00  1.00782504E+00  1.00782504E+00  1.00782504E+00
  1.00782504E+00  1.00782504E+00  1.00782504E+00  1.00782504E+00  1.00782504E+00
Atom fragment info                         I   N=          30
           0           0           0           0           0           0
           0           0           0           0           0           0
           0           0           0           0           0           0
           0           0           0           0           0           0
           0           0           0           0           0           0
Atom residue num                           I   N=          30
           0           0           0           0           0           0
           0           0           0           0           0           0
           0           0           0           0           0           0
           0           0           0           0           0           0
           0           0           0           0           0           0
Nuclear spins                              I   N=          30
           0           0           0           0           0           0
           0           0           0           0           0           0
           1           1           1           1           1           1
           1           1           1           1           1           1
           1           1           1           1           1           1
Nuclear ZEff                               R   N=          30
 -3.60000000E+00 -3.60000000E+00 -3.60000000E+00 -3.60000000E+00 -3.60000000E+00
 -3.60000000E+00 -3.60000000E+00 -3.60000000E+00 -3.60000000E+00 -3.60000000E+00
 -3.60000000E+00 -3.60000000E+00 -1.00000000E+00 -1.00000000E+00 -1.00000000E+00
 -1.00000000E+00 -1.00000000E+00 -1.00000000E+00 -1.00000000E+00 -1.00000000E+00
 -1.00000000E+00 -1.00000000E+00 -1.00000000E+00 -1.00000000E+00 -1.00000000E+00
 -1.00000000E+00 -1.00000000E+00 -1.00000000E+00 -1.00000000E+00 -1.00000000E+00
Nuclear QMom                               R   N=          30
  0.00000000E+00  0.00000000E+00  0.00000000E+00  0.00000000E+00  0.00000000E+00
  0.00000000E+00  0.00000000E+00  0.00000000E+00  0.00000000E+00  0.00000000E+00
  0.00000000E+00  0.00000000E+00  0.00000000E+00  0.00000000E+00  0.00000000E+00
  0.00000000E+00  0.00000000E+00  0.00000000E+00  0.00000000E+00  0.00000000E+00
  0.00000000E+00  0.00000000E+00  0.00000000E+00  0.00000000E+00  0.00000000E+00
  0.00000000E+00  0.00000000E+00  0.00000000E+00  0.00000000E+00  0.00000000E+00
Nuclear GFac                               R   N=          30
  0.00000000E+00  0.00000000E+00  0.00000000E+00  0.00000000E+00  0.00000000E+00
  0.00000000E+00  0.00000000E+00  0.00000000E+00  0.00000000E+00  0.00000000E+00
  0.00000000E+00  0.00000000E+00  2.79284600E+00  2.79284600E+00  2.79284600E+00
  2.79284600E+00  2.79284600E+00  2.79284600E+00  2.79284600E+00  2.79284600E+00
  2.79284600E+00  2.79284600E+00  2.79284600E+00  2.79284600E+00  2.79284600E+00
  2.79284600E+00  2.79284600E+00  2.79284600E+00  2.79284600E+00  2.79284600E+00
MicOpt                                     I   N=          30
          -1          -1          -1          -1          -1          -1
          -1          -1          -1          -1          -1          -1
          -1          -1          -1          -1          -1          -1
          -1          -1          -1          -1          -1          -1
          -1          -1          -1          -1          -1          -1
Number of contracted shells                I               84
Number of primitive shells                 I              204
Pure/Cartesian d shells                    I                1
Pure/Cartesian f shells                    I                0
Highest angular momentum                   I                2
Largest degree of contraction              I                6
Shell types                                I   N=          84
           0          -1          -1           2           0          -1
          -1           2           0          -1          -1           2
           0          -1          -1           2           0          -1
          -1           2           0          -1          -1           2
           0          -1          -1           2           0          -1
          -1           2           0          -1          -1           2
           0          -1          -1           2           0          -1
          -1           2           0          -1          -1           2
           0           0           0           0           0           0
           0           0           0           0           0           0
           0           0           0           0           0           0
           0           0           0           0           0           0
           0           0           0           0           0           0
           0           0           0           0           0           0
Number of primitives per shell             I   N=          84
           6           3           1           1           6           3
           1           1           6           3           1           1
           6           3           1           1           6           3
           1           1           6           3           1           1
           6           3           1           1           6           3
           1           1           6           3           1           1
           6           3           1           1           6           3
           1           1           6           3           1           1
           3           1           3           1           3           1
           3           1           3           1           3           1
           3           1           3           1           3           1
           3           1           3           1           3           1
           3           1           3           1           3           1
           3           1           3           1           3           1
Shell to atom map                          I   N=          84
           1           1           1           1           2           2
           2           2           3           3           3           3
           4           4           4           4           5           5
           5           5           6           6           6           6
           7           7           7           7           8           8
           8           8           9           9           9           9
          10          10          10          10          11          11
          11          11          12          12          12          12
          13          13          14          14          15          15
          16          16          17          17          18          18
          19          19          20          20          21          21
          22          22          23          23          24          24
          25          25          26          26          27          27
          28          28          29          29          30          30
Primitive exponents                        R   N=         204
  3.04752488E+03  4.57369518E+02  1.03948685E+02  2.92101553E+01  9.28666296E+00
  3.16392696E+00  7.86827235E+00  1.88128854E+00  5.44249258E-01  1.68714478E-01
  8.00000000E-01  3.04752488E+03  4.57369518E+02  1.03948685E+02  2.92101553E+01
  9.28666296E+00  3.16392696E+00  7.86827235E+00  1.88128854E+00  5.44249258E-01
  1.68714478E-01  8.00000000E-01  3.04752488E+03  4.57369518E+02  1.03948685E+02
  2.92101553E+01  9.28666296E+00  3.16392696E+00  7.86827235E+00  1.88128854E+00
  5.44249258E-01  1.68714478E-01  8.00000000E-01  3.04752488E+03  4.57369518E+02
  1.03948685E+02  2.92101553E+01  9.28666296E+00  3.16392696E+00  7.86827235E+00
  1.88128854E+00  5.44249258E-01  1.68714478E-01  8.00000000E-01  3.04752488E+03
  4.57369518E+02  1.03948685E+02  2.92101553E+01  9.28666296E+00  3.16392696E+00
  7.86827235E+00  1.88128854E+00  5.44249258E-01  1.68714478E-01  8.00000000E-01
  3.04752488E+03  4.57369518E+02  1.03948685E+02  2.92101553E+01  9.28666296E+00
  3.16392696E+00  7.86827235E+00  1.88128854E+00  5.44249258E-01  1.68714478E-01
  8.00000000E-01  3.04752488E+03  4.57369518E+02  1.03948685E+02  2.92101553E+01
  9.28666296E+00  3.16392696E+00  7.86827235E+00  1.88128854E+00  5.44249258E-01
  1.68714478E-01  8.00000000E-01  3.04752488E+03  4.57369518E+02  1.03948685E+02
  2.92101553E+01  9.28666296E+00  3.16392696E+00  7.86827235E+00  1.88128854E+00
  5.44249258E-01  1.68714478E-01  8.00000000E-01  3.04752488E+03  4.57369518E+02
  1.03948685E+02  2.92101553E+01  9.28666296E+00  3.16392696E+00  7.86827235E+00
  1.88128854E+00  5.44249258E-01  1.68714478E-01  8.00000000E-01  3.04752488E+03
  4.57369518E+02  1.03948685E+02  2.92101553E+01  9.28666296E+00  3.16392696E+00
  7.86827235E+00  1.88128854E+00  5.44249258E-01  1.68714478E-01  8.00000000E-01
  3.04752488E+03  4.57369518E+02  1.03948685E+02  2.92101553E+01  9.28666296E+00
  3.16392696E+00  7.86827235E+00  1.88128854E+00  5.44249258E-01  1.68714478E-01
  8.00000000E-01  3.04752488E+03  4.57369518E+02  1.03948685E+02  2.92101553E+01
  9.28666296E+00  3.16392696E+00  7.86827235E+00  1.88128854E+00  5.44249258E-01
  1.68714478E-01  8.00000000E-01  1.87311370E+01  2.82539436E+00  6.40121692E-01
  1.61277759E-01  1.87311370E+01  2.82539436E+00  6.40121692E-01  1.61277759E-01
  1.87311370E+01  2.82539436E+00  6.40121692E-01  1.61277759E-01  1.87311370E+01
  2.82539436E+00  6.40121692E-01  1.61277759E-01  1.87311370E+01  2.82539436E+00
  6.40121692E-01  1.61277759E-01  1.87311370E+01  2.82539436E+00  6.40121692E-01
  1.61277759E-01  1.87311370E+01  2.82539436E+00  6.40121692E-01  1.61277759E-01
  1.87311370E+01  2.82539436E+00  6.40121692E-01  1.61277759E-01  1.87311370E+01
  2.82539436E+00  6.40121692E-01  1.61277759E-01  1.87311370E+01  2.82539436E+00
  6.40121692E-01  1.61277759E-01  1.87311370E+01  2.82539436E+00  6.40121692E-01
  1.61277759E-01  1.87311370E+01  2.82539436E+00  6.40121692E-01  1.61277759E-01
  1.87311370E+01  2.82539436E+00  6.40121692E-01  1.61277759E-01  1.87311370E+01
  2.82539436E+00  6.40121692E-01  1.61277759E-01  1.87311370E+01  2.82539436E+00
  6.40121692E-01  1.61277759E-01  1.87311370E+01  2.82539436E+00  6.40121692E-01
  1.61277759E-01  1.87311370E+01  2.82539436E+00  6.40121692E-01  1.61277759E-01
  1.87311370E+01  2.82539436E+00  6.40121692E-01  1.61277759E-01
Contraction coefficients                   R   N=         204
  1.83473713E-03  1.40373228E-02  6.88426223E-02  2.32184443E-01  4.67941348E-01
  3.62311985E-01 -1.19332420E-01 -1.60854152E-01  1.14345644E+00  1.00000000E+00
  1.00000000E+00  1.83473713E-03  1.40373228E-02  6.88426223E-02  2.32184443E-01
  4.67941348E-01  3.62311985E-01 -1.19332420E-01 -1.60854152E-01  1.14345644E+00
  1.00000000E+00  1.00000000E+00  1.83473713E-03  1.40373228E-02  6.88426223E-02
  2.32184443E-01  4.67941348E-01  3.62311985E-01 -1.19332420E-01 -1.60854152E-01
  1.14345644E+00  1.00000000E+00  1.00000000E+00  1.83473713E-03  1.40373228E-02
  6.88426223E-02  2.32184443E-01  4.67941348E-01  3.62311985E-01 -1.19332420E-01
 -1.60854152E-01  1.14345644E+00  1.00000000E+00  1.00000000E+00  1.83473713E-03
  1.40373228E-02  6.88426223E-02  2.32184443E-01  4.67941348E-01  3.62311985E-01
 -1.19332420E-01 -1.60854152E-01  1.14345644E+00  1.00000000E+00  1.00000000E+00
  1.83473713E-03  1.40373228E-02  6.88426223E-02  2.32184443E-01  4.67941348E-01
  3.62311985E-01 -1.19332420E-01 -1.60854152E-01  1.14345644E+00  1.00000000E+00
  1.00000000E+00  1.83473713E-03  1.40373228E-02  6.88426223E-02  2.32184443E-01
  4.67941348E-01  3.62311985E-01 -1.19332420E-01 -1.60854152E-01  1.14345644E+00
  1.00000000E+00  1.00000000E+00  1.83473713E-03  1.40373228E-02  6.88426223E-02
  2.32184443E-01  4.67941348E-01  3.62311985E-01 -1.19332420E-01 -1.60854152E-01
  1.14345644E+00  1.00000000E+00  1.00000000E+00  1.83473713E-03  1.40373228E-02
  6.88426223E-02  2.32184443E-01  4.67941348E-01  3.62311985E-01 -1.19332420E-01
 -1.60854152E-01  1.14345644E+00  1.00000000E+00  1.00000000E+00  1.83473713E-03
  1.40373228E-02  6.88426223E-02  2.32184443E-01  4.67941348E-01  3.62311985E-01
 -1.19332420E-01 -1.60854152E-01  1.14345644E+00  1.00000000E+00  1.00000000E+00
  1.83473713E-03  1.40373228E-02  6.88426223E-02  2.32184443E-01  4.67941348E-01
  3.62311985E-01 -1.19332420E-01 -1.60854152E-01  1.14345644E+00  1.00000000E+00
  1.00000000E+00  1.83473713E-03  1.40373228E-02  6.88426223E-02  2.32184443E-01
  4.67941348E-01  3.62311985E-01 -1.19332420E-01 -1.60854152E-01  1.14345644E+00
  1.00000000E+00  1.00000000E+00  3.34946043E-02  2.34726953E-01  8.13757326E-01
  1.00000000E+00  3.34946043E-02  2.34726953E-01  8.13757326E-01  1.00000000E+00
  3.34946043E-02  2.34726953E-01  8.13757326E-01  1.00000000E+00  3.34946043E-02
  2.34726953E-01  8.13757326E-01  1.00000000E+00  3.34946043E-02  2.34726953E-01
  8.13757326E-01  1.00000000E+00  3.34946043E-02  2.34726953E-01  8.13757326E-01
  1.00000000E+00  3.34946043E-02  2.34726953E-01  8.13757326E-01  1.00000000E+00
  3.34946043E-02  2.34726953E-01  8.13757326E-01  1.00000000E+00  3.34946043E-02
  2.34726953E-01  8.13757326E-01  1.00000000E+00  3.34946043E-02  2.34726953E-01
  8.13757326E-01  1.00000000E+00  3.34946043E-02  2.34726953E-01  8.13757326E-01
  1.00000000E+00  3.34946043E-02  2.34726953E-01  8.13757326E-01  1.00000000E+00
  3.34946043E-02  2.34726953E-01  8.13757326E-01  1.00000000E+00  3.34946043E-02
  2.34726953E-01  8.13757326E-01  1.00000000E+00  3.34946043E-02  2.34726953E-01
  8.13757326E-01  1.00000000E+00  3.34946043E-02  2.34726953E-01  8.13757326E-01
  1.00000000E+00  3.34946043E-02  2.34726953E-01  8.13757326E-01  1.00000000E+00
  3.34946043E-02  2.34726953E-01  8.13757326E-01  1.00000000E+00
P(S=P) Contraction coefficients            R   N=         204
  0.00000000E+00  0.00000000E+00  0.00000000E+00  0.00000000E+00  0.00000000E+00
  0.00000000E+00  6.89990666E-02  3.16423961E-01  7.44308291E-01  1.00000000E+00
  0.00000000E+00  0.00000000E+00  0.00000000E+00  0.00000000E+00  0.00000000E+00
  0.00000000E+00  0.00000000E+00  6.89990666E-02  3.16423961E-01  7.44308291E-01
  1.00000000E+00  0.00000000E+00  0.00000000E+00  0.00000000E+00  0.00000000E+00
  0.00000000E+00  0.00000000E+00  0.00000000E+00  6.89990666E-02  3.16423961E-01
  7.44308291E-01  1.00000000E+00  0.00000000E+00  0.00000000E+00  0.00000000E+00
  0.00000000E+00  0.00000000E+00  0.00000000E+00  0.00000000E+00  6.89990666E-02
  3.16423961E-01  7.44308291E-01  1.00000000E+00  0.00000000E+00  0.00000000E+00
  0.00000000E+00  0.00000000E+00  0.00000000E+00  0.00000000E+00  0.00000000E+00
  6.89990666E-02  3.16423961E-01  7.44308291E-01  1.00000000E+00  0.00000000E+00
  0.00000000E+00  0.00000000E+00  0.00000000E+00  0.00000000E+00  0.00000000E+00
  0.00000000E+00  6.89990666E-02  3.16423961E-01  7.44308291E-01  1.00000000E+00
  0.00000000E+00  0.00000000E+00  0.00000000E+00  0.00000000E+00  0.00000000E+00
  0.00000000E+00  0.00000000E+00  6.89990666E-02  3.16423961E-01  7.44308291E-01
  1.00000000E+00  0.00000000E+00  0.00000000E+00  0.00000000E+00  0.00000000E+00
  0.00000000E+00  0.00000000E+00  0.00000000E+00  6.89990666E-02  3.16423961E-01
  7.44308291E-01  1.00000000E+00  0.00000000E+00  0.00000000E+00  0.00000000E+00
  0.00000000E+00  0.00000000E+00  0.00000000E+00  0.00000000E+00  6.89990666E-02
  3.16423961E-01  7.44308291E-01  1.00000000E+00  0.00000000E+00  0.00000000E+00
  0.00000000E+00  0.00000000E+00  0.00000000E+00  0.00000000E+00  0.00000000E+00
  6.89990666E-02  3.16423961E-01  7.44308291E-01  1.00000000E+00  0.00000000E+00
  0.00000000E+00  0.00000000E+00  0.00000000E+00  0.00000000E+00  0.00000000E+00
  0.00000000E+00  6.89990666E-02  3.16423961E-01  7.44308291E-01  1.00000000E+00
  0.00000000E+00  0.00000000E+00  0.00000000E+00  0.00000000E+00  0.00000000E+00
  0.00000000E+00  0.00000000E+00  6.89990666E-02  3.16423961E-01  7.44308291E-01
  1.00000000E+00  0.00000000E+00  0.00000000E+00  0.00000000E+00  0.00000000E+00
  0.00000000E+00  0.00000000E+00  0.00000000E+00  0.00000000E+00  0.00000000E+00
  0.00000000E+00  0.00000000E+00  0.00000000E+00  0.00000000E+00  0.00000000E+00
  0.00000000E+00  0.00000000E+00  0.00000000E+00  0.00000000E+00  0.00000000E+00
  0.00000000E+00  0.00000000E+00  0.00000000E+00  0.00000000E+00  0.00000000E+00
  0.00000000E+00  0.00000000E+00  0.00000000E+00  0.00000000E+00  0.00000000E+00
  0.00000000E+00  0.00000000E+00  0.00000000E+00  0.00000000E+00  0.00000000E+00
  0.00000000E+00  0.00000000E+00  0.00000000E+00  0.00000000E+00  0.00000000E+00
  0.00000000E+00  0.00000000E+00  0.00000000E+00  0.00000000E+00  0.00000000E+00
  0.00000000E+00  0.00000000E+00  0.00000000E+00  0.00000000E+00  0.00000000E+00
  0.00000000E+00  0.00000000E+00  0.00000000E+00  0.00000000E+00  0.00000000E+00
  0.00000000E+00  0.00000000E+00  0.00000000E+00  0.00000000E+00  0.00000000E+00
  0.00000000E+00  0.00000000E+00  0.00000000E+00  0.00000000E+00  0.00000000E+00
  0.00000000E+00  0.00000000E+00  0.00000000E+00  0.00000000E+00  0.00000000E+00
  0.00000000E+00  0.00000000E+00  0.00000000E+00  0.00000000E+00
Coordinates of each shell                  R   N=         252
  2.49702359E+00 -9.12083335E-01  4.29575283E-02  2.49702359E+00 -9.12083335E-01
  4.29575283E-02  2.49702359E+00 -9.12083335E-01  4.29575283E-02  2.49702359E+00
 -9.12083335E-01  4.29575283E-02  4.58624581E-01 -2.61852790E+00 -4.29547032E-02
  4.58624581E-01 -2.61852790E+00 -4.29547032E-02  4.58624581E-01 -2.61852790E+00
 -4.29547032E-02  4.58624581E-01 -2.61852790E+00 -4.29547032E-02  2.03839945E+00
  1.70644487E+00 -4.29569620E-02  2.03839945E+00  1.70644487E+00 -4.29569620E-02
  2.03839945E+00  1.70644487E+00 -4.29569620E-02  2.03839945E+00  1.70644487E+00
 -4.29569620E-02 -2.03839861E+00 -1.70644459E+00  4.29561493E-02 -2.03839861E+00
 -1.70644459E+00  4.29561493E-02 -2.03839861E+00 -1.70644459E+00  4.29561493E-02
 -2.03839861E+00 -1.70644459E+00  4.29561493E-02 -4.58624256E-01  2.61852825E+00
  4.29545382E-02 -4.58624256E-01  2.61852825E+00  4.29545382E-02 -4.58624256E-01
  2.61852825E+00  4.29545382E-02 -4.58624256E-01  2.61852825E+00  4.29545382E-02
 -2.49702317E+00  9.12083077E-01 -4.29569716E-02 -2.49702317E+00  9.12083077E-01
 -4.29569716E-02 -2.49702317E+00  9.12083077E-01 -4.29569716E-02 -2.49702317E+00
  9.12083077E-01 -4.29569716E-02  5.17944342E+00 -1.89188345E+00  1.65303801E-01
  5.17944342E+00 -1.89188345E+00  1.65303801E-01  5.17944342E+00 -1.89188345E+00
  1.65303801E-01  5.17944342E+00 -1.89188345E+00  1.65303801E-01  9.51301133E-01
 -5.43147231E+00 -1.65300444E-01  9.51301133E-01 -5.43147231E+00 -1.65300444E-01
  9.51301133E-01 -5.43147231E+00 -1.65300444E-01  9.51301133E-01 -5.43147231E+00
 -1.65300444E-01  4.22814466E+00  3.53958464E+00 -1.65303851E-01  4.22814466E+00
  3.53958464E+00 -1.65303851E-01  4.22814466E+00  3.53958464E+00 -1.65303851E-01
  4.22814466E+00  3.53958464E+00 -1.65303851E-01 -4.22814348E+00 -3.53958491E+00
  1.65296543E-01 -4.22814348E+00 -3.53958491E+00  1.65296543E-01 -4.22814348E+00
 -3.53958491E+00  1.65296543E-01 -4.22814348E+00 -3.53958491E+00  1.65296543E-01
 -9.51303104E-01  5.43147245E+00  1.65300583E-01 -9.51303104E-01  5.43147245E+00
  1.65300583E-01 -9.51303104E-01  5.43147245E+00  1.65300583E-01 -9.51303104E-01
  5.43147245E+00  1.65300583E-01 -5.17944330E+00  1.89188357E+00 -1.65296408E-01
 -5.17944330E+00  1.89188357E+00 -1.65296408E-01 -5.17944330E+00  1.89188357E+00
 -1.65296408E-01 -5.17944330E+00  1.89188357E+00 -1.65296408E-01  5.99919975E+00
 -2.19131796E+00 -1.71633209E+00  5.99919975E+00 -2.19131796E+00 -1.71633209E+00
  6.40712755E+00 -5.77151064E-01  1.17547814E+00  6.40712755E+00 -5.77151064E-01
  1.17547814E+00  5.27069954E+00 -3.68837625E+00  1.17548567E+00  5.27069954E+00
 -3.68837625E+00  1.17548567E+00  2.70373096E+00 -5.83731365E+00 -1.17548056E+00
  2.70373096E+00 -5.83731365E+00 -1.17548056E+00  1.10186670E+00 -6.29111686E+00
  1.71633590E+00  1.10186670E+00 -6.29111686E+00  1.71633590E+00 -5.58883356E-01
 -6.40874867E+00 -1.17547641E+00 -5.58883356E-01 -6.40874867E+00 -1.17547641E+00
  3.70339527E+00  5.26016351E+00 -1.17546613E+00  3.70339527E+00  5.26016351E+00
 -1.17546613E+00  5.82957353E+00  2.72036875E+00 -1.17549851E+00  5.82957353E+00
  2.72036875E+00 -1.17549851E+00  4.89735169E+00  4.09978390E+00  1.71633201E+00
  4.89735169E+00  4.09978390E+00  1.71633201E+00 -5.82957523E+00 -2.72037070E+00
  1.17548813E+00 -5.82957523E+00 -2.72037070E+00  1.17548813E+00 -4.89734579E+00
 -4.09978168E+00 -1.71634168E+00 -4.89734579E+00 -4.09978168E+00 -1.71634168E+00
 -3.70339583E+00 -5.26016483E+00  1.17545777E+00 -3.70339583E+00 -5.26016483E+00
  1.17545777E+00 -1.10188842E+00  6.29111345E+00 -1.71633590E+00 -1.10188842E+00
  6.29111345E+00 -1.71633590E+00 -2.70372464E+00  5.83731180E+00  1.17549646E+00
 -2.70372464E+00  5.83731180E+00  1.17549646E+00  5.58888831E-01  6.40875269E+00
  1.17546136E+00  5.58888831E-01  6.40875269E+00  1.17546136E+00 -6.40712820E+00
  5.77155348E-01 -1.17547539E+00 -6.40712820E+00  5.77155348E-01 -1.17547539E+00
 -5.99919696E+00  2.19130887E+00  1.71634214E+00 -5.99919696E+00  2.19130887E+00
  1.71634214E+00 -5.27070084E+00  3.68838111E+00 -1.17546973E+00 -5.27070084E+00
  3.68838111E+00 -1.17546973E+00
Constraint Structure                       R   N=          90
  2.49702359E+00 -9.12083335E-01  4.29575283E-02  4.58624581E-01 -2.61852790E+00
 -4.29547032E-02  2.03839945E+00  1.70644487E+00 -4.29569620E-02 -2.03839861E+00
 -1.70644459E+00  4.29561493E-02 -4.58624256E-01  2.61852825E+00  4.29545382E-02
 -2.49702317E+00  9.12083077E-01 -4.29569716E-02  5.17944342E+00 -1.89188345E+00
  1.65303801E-01  9.51301133E-01 -5.43147231E+00 -1.65300444E-01  4.22814466E+00
  3.53958464E+00 -1.65303851E-01 -4.22814348E+00 -3.53958491E+00  1.65296543E-01
 -9.51303104E-01  5.43147245E+00  1.65300583E-01 -5.17944330E+00  1.89188357E+00
 -1.65296408E-01  5.99919975E+00 -2.19131796E+00 -1.71633209E+00  6.40712755E+00
 -5.77151064E-01  1.17547814E+00  5.27069954E+00 -3.68837625E+00  1.17548567E+00
  2.70373096E+00 -5.83731365E+00 -1.17548056E+00  1.10186670E+00 -6.29111686E+00
  1.71633590E+00 -5.58883356E-01 -6.40874867E+00 -1.17547641E+00  3.70339527E+00
  5.26016351E+00 -1.17546613E+00  5.82957353E+00  2.72036875E+00 -1.17549851E+00
  4.89735169E+00  4.09978390E+00  1.71633201E+00 -5.82957523E+00 -2.72037070E+00
  1.17548813E+00 -4.89734579E+00 -4.09978168E+00 -1.71634168E+00 -3.70339583E+00
 -5.26016483E+00  1.17545777E+00 -1.10188842E+00  6.29111345E+00 -1.71633590E+00
 -2.70372464E+00  5.83731180E+00  1.17549646E+00  5.58888831E-01  6.40875269E+00
  1.17546136E+00 -6.40712820E+00  5.77155348E-01 -1.17547539E+00 -5.99919696E+00
  2.19130887E+00  1.71634214E+00 -5.27070084E+00  3.68838111E+00 -1.17546973E+00
Num ILSW                                   I              100
ILSW                                       I   N=         100
           0           1           0           0           2           0
           0           0           0           0           0          -1
           0           0           0           0           0           0
           0           0           0           0           1           0
           1           0           0           0           0           0
           0           0      100000           0          -1           0
           0           0           0           0           0           0
           0           0           0           1           1           0
           0           0           1           0           0           0
           0           0           4          40           0           0
           0           0           0           0           0           0
           0           0           0           0           0           0
           0           0           0           0           0           0
           0           0           0           0           0           0
           0           0           0           0           0           0
           0           0           0           0           0           0
           0           0           0           0
Num RLSW                                   I               40
RLSW                                       R   N=          40
  1.00000000E+00  1.00000000E+00  1.00000000E+00  1.00000000E+00  1.00000000E+00
  0.00000000E+00  0.00000000E+00  1.00000000E+00  0.00000000E+00  0.00000000E+00
  0.00000000E+00  0.00000000E+00  1.00000000E+00  0.00000000E+00  0.00000000E+00
  0.00000000E+00  0.00000000E+00  1.00000000E+00  0.00000000E+00  0.00000000E+00