opt=Tight                                                               
Freq      RMP2-FC                                                     6-31G(d)            
Number of atoms                            I               30
Info1-9                                    I   N=           9
          39          39        1002           0           0         100
           6           2           1
Charge                                     I                0
Multiplicity                               I                1
Number of electrons                        I              128
Number of alpha electrons                  I               64
Number of beta electrons                   I               64
Number of basis functions                  I              281
Number of independent functions            I              281
Number of point charges in /Mol/           I                0
Number of translation vectors              I                0
Atomic numbers                             I   N=          30
           8           8           8           8           8           7
           7           7           6           6           6           6
           6           6           6           6           6           1
           1           1           1           1           1           1
           1           1           1           1           1           1
Nuclear charges                            R   N=          30
  8.00000000E+00  8.00000000E+00  8.00000000E+00  8.00000000E+00  8.00000000E+00
  7.00000000E+00  7.00000000E+00  7.00000000E+00  6.00000000E+00  6.00000000E+00
  6.00000000E+00  6.00000000E+00  6.00000000E+00  6.00000000E+00  6.00000000E+00
  6.00000000E+00  6.00000000E+00  1.00000000E+00  1.00000000E+00  1.00000000E+00
  1.00000000E+00  1.00000000E+00  1.00000000E+00  1.00000000E+00  1.00000000E+00
  1.00000000E+00  1.00000000E+00  1.00000000E+00  1.00000000E+00  1.00000000E+00
Current cartesian coordinates              R   N=          90
 -2.49288325E+00  1.23557098E+00 -2.07725500E+00 -2.97359934E+00 -4.65644582E+00
  9.70527437E-01 -6.72867792E+00 -2.02189925E+00 -8.69285359E-01 -2.72107146E+00
  5.90626722E+00  2.39084371E-01  2.09108212E+00 -4.50390712E+00  1.43656981E-02
  1.45251154E+00 -2.98470904E-01 -7.00398645E-01  5.54894835E+00 -1.87814589E+00
  2.75915133E-01  8.89283953E+00  8.37358436E-01  6.82429239E-01 -2.60189021E+00
 -2.01831066E+00  1.04932335E+00 -5.17403992E+00 -7.07959440E-01  8.65207330E-01
 -1.20517095E+00 -9.52977550E-01 -1.28315239E+00 -4.48005689E+00  1.82461562E+00
 -2.99532930E-01 -3.58897354E+00  3.75975187E+00  1.61975608E+00  2.32619429E+00
  2.11475472E+00 -8.39459812E-01  3.04330567E+00 -2.35659998E+00 -1.10692598E-01
  4.81401118E+00  2.59907074E+00 -3.77684444E-01  6.38766928E+00  4.76785462E-01
  1.52767350E-01 -1.59518586E+00 -1.45262303E+00  2.77761018E+00 -6.09576518E+00
 -5.25115208E-01  2.72124910E+00 -1.17674569E+00 -2.34857431E+00 -2.81261546E+00
 -6.03611597E+00  2.60512542E+00 -1.41201659E+00 -2.06965263E+00  2.96762403E+00
  2.79717262E+00 -5.17983949E+00  4.24557400E+00  2.86596054E+00 -1.26811017E+00
 -5.34050589E+00  6.69388239E-01 -6.24809033E+00 -3.79933596E+00 -6.85836416E-01
  9.31500813E-01  3.54857687E+00 -1.29264071E+00 -2.28634185E+00  7.21021416E+00
  1.45893283E+00  5.54348138E+00  4.51182886E+00 -4.51478250E-01  9.74903098E+00
  2.40235781E+00 -1.58736995E-03  9.94663208E+00 -7.61799627E-01  6.81567524E-01
Force Field                                I                0
Int Atom Types                             I   N=          30
           0           0           0           0           0           0
           0           0           0           0           0           0
           0           0           0           0           0           0
           0           0           0           0           0           0
           0           0           0           0           0           0
MM charges                                 R   N=          30
  0.00000000E+00  0.00000000E+00  0.00000000E+00  0.00000000E+00  0.00000000E+00
  0.00000000E+00  0.00000000E+00  0.00000000E+00  0.00000000E+00  0.00000000E+00
  0.00000000E+00  0.00000000E+00  0.00000000E+00  0.00000000E+00  0.00000000E+00
  0.00000000E+00  0.00000000E+00  0.00000000E+00  0.00000000E+00  0.00000000E+00
  0.00000000E+00  0.00000000E+00  0.00000000E+00  0.00000000E+00  0.00000000E+00
  0.00000000E+00  0.00000000E+00  0.00000000E+00  0.00000000E+00  0.00000000E+00
Integer atomic weights                     I   N=          30
          16          16          16          16          16          14
          14          14          12          12          12          12
          12          12          12          12          12           1
           1           1           1           1           1           1
           1           1           1           1           1           1
Real atomic weights                        R   N=          30
  1.59949146E+01  1.59949146E+01  1.59949146E+01  1.59949146E+01  1.59949146E+01
  1.40030740E+01  1.40030740E+01  1.40030740E+01  1.20000000E+01  1.20000000E+01
  1.20000000E+01  1.20000000E+01  1.20000000E+01  1.20000000E+01  1.20000000E+01
  1.20000000E+01  1.20000000E+01  1.00782504E+00  1.00782504E+00  1.00782504E+00
  1.00782504E+00  1.00782504E+00  1.00782504E+00  1.00782504E+00  1.00782504E+00
  1.00782504E+00  1.00782504E+00  1.00782504E+00  1.00782504E+00  1.00782504E+00
Atom fragment info                         I   N=          30
           0           0           0           0           0           0
           0           0           0           0           0           0
           0           0           0           0           0           0
           0           0           0           0           0           0
           0           0           0           0           0           0
Atom residue num                           I   N=          30
           0           0           0           0           0           0
           0           0           0           0           0           0
           0           0           0           0           0           0
           0           0           0           0           0           0
           0           0           0           0           0           0
Nuclear spins                              I   N=          30
           0           0           0           0           0           2
           2           2           0           0           0           0
           0           0           0           0           0           1
           1           1           1           1           1           1
           1           1           1           1           1           1
Nuclear ZEff                               R   N=          30
 -5.60000000E+00 -5.60000000E+00 -5.60000000E+00 -5.60000000E+00 -5.60000000E+00
 -4.55000000E+00 -4.55000000E+00 -4.55000000E+00 -3.60000000E+00 -3.60000000E+00
 -3.60000000E+00 -3.60000000E+00 -3.60000000E+00 -3.60000000E+00 -3.60000000E+00
 -3.60000000E+00 -3.60000000E+00 -1.00000000E+00 -1.00000000E+00 -1.00000000E+00
 -1.00000000E+00 -1.00000000E+00 -1.00000000E+00 -1.00000000E+00 -1.00000000E+00
 -1.00000000E+00 -1.00000000E+00 -1.00000000E+00 -1.00000000E+00 -1.00000000E+00
Nuclear QMom                               R   N=          30
  0.00000000E+00  0.00000000E+00  0.00000000E+00  0.00000000E+00  0.00000000E+00
  2.04400000E+00  2.04400000E+00  2.04400000E+00  0.00000000E+00  0.00000000E+00
  0.00000000E+00  0.00000000E+00  0.00000000E+00  0.00000000E+00  0.00000000E+00
  0.00000000E+00  0.00000000E+00  0.00000000E+00  0.00000000E+00  0.00000000E+00
  0.00000000E+00  0.00000000E+00  0.00000000E+00  0.00000000E+00  0.00000000E+00
  0.00000000E+00  0.00000000E+00  0.00000000E+00  0.00000000E+00  0.00000000E+00
Nuclear GFac                               R   N=          30
  0.00000000E+00  0.00000000E+00  0.00000000E+00  0.00000000E+00  0.00000000E+00
  4.03761000E-01  4.03761000E-01  4.03761000E-01  0.00000000E+00  0.00000000E+00
  0.00000000E+00  0.00000000E+00  0.00000000E+00  0.00000000E+00  0.00000000E+00
  0.00000000E+00  0.00000000E+00  2.79284600E+00  2.79284600E+00  2.79284600E+00
  2.79284600E+00  2.79284600E+00  2.79284600E+00  2.79284600E+00  2.79284600E+00
  2.79284600E+00  2.79284600E+00  2.79284600E+00  2.79284600E+00  2.79284600E+00
MicOpt                                     I   N=          30
          -1          -1          -1          -1          -1          -1
          -1          -1          -1          -1          -1          -1
          -1          -1          -1          -1          -1          -1
          -1          -1          -1          -1          -1          -1
          -1          -1          -1          -1          -1          -1
Number of contracted shells                I               94
Number of primitive shells                 I              239
Pure/Cartesian d shells                    I                1
Pure/Cartesian f shells                    I                0
Highest angular momentum                   I                2
Largest degree of contraction              I                6
Shell types                                I   N=          94
           0          -1          -1           2           0          -1
          -1           2           0          -1          -1           2
           0          -1          -1           2           0          -1
          -1           2           0          -1          -1           2
           0          -1          -1           2           0          -1
          -1           2           0          -1          -1           2
           0          -1          -1           2           0          -1
          -1           2           0          -1          -1           2
           0          -1          -1           2           0          -1
          -1           2           0          -1          -1           2
           0          -1          -1           2           0          -1
          -1           2           0           0           0           0
           0           0           0           0           0           0
           0           0           0           0           0           0
           0           0           0           0           0           0
           0           0           0           0
Number of primitives per shell             I   N=          94
           6           3           1           1           6           3
           1           1           6           3           1           1
           6           3           1           1           6           3
           1           1           6           3           1           1
           6           3           1           1           6           3
           1           1           6           3           1           1
           6           3           1           1           6           3
           1           1           6           3           1           1
           6           3           1           1           6           3
           1           1           6           3           1           1
           6           3           1           1           6           3
           1           1           3           1           3           1
           3           1           3           1           3           1
           3           1           3           1           3           1
           3           1           3           1           3           1
           3           1           3           1
Shell to atom map                          I   N=          94
           1           1           1           1           2           2
           2           2           3           3           3           3
           4           4           4           4           5           5
           5           5           6           6           6           6
           7           7           7           7           8           8
           8           8           9           9           9           9
          10          10          10          10          11          11
          11          11          12          12          12          12
          13          13          13          13          14          14
          14          14          15          15          15          15
          16          16          16          16          17          17
          17          17          18          18          19          19
          20          20          21          21          22          22
          23          23          24          24          25          25
          26          26          27          27          28          28
          29          29          30          30
Primitive exponents                        R   N=         239
  5.48467166E+03  8.25234946E+02  1.88046958E+02  5.29645000E+01  1.68975704E+01
  5.79963534E+00  1.55396162E+01  3.59993359E+00  1.01376175E+00  2.70005823E-01
  8.00000000E-01  5.48467166E+03  8.25234946E+02  1.88046958E+02  5.29645000E+01
  1.68975704E+01  5.79963534E+00  1.55396162E+01  3.59993359E+00  1.01376175E+00
  2.70005823E-01  8.00000000E-01  5.48467166E+03  8.25234946E+02  1.88046958E+02
  5.29645000E+01  1.68975704E+01  5.79963534E+00  1.55396162E+01  3.59993359E+00
  1.01376175E+00  2.70005823E-01  8.00000000E-01  5.48467166E+03  8.25234946E+02
  1.88046958E+02  5.29645000E+01  1.68975704E+01  5.79963534E+00  1.55396162E+01
  3.59993359E+00  1.01376175E+00  2.70005823E-01  8.00000000E-01  5.48467166E+03
  8.25234946E+02  1.88046958E+02  5.29645000E+01  1.68975704E+01  5.79963534E+00
  1.55396162E+01  3.59993359E+00  1.01376175E+00  2.70005823E-01  8.00000000E-01
  4.17351146E+03  6.27457911E+02  1.42902093E+02  4.02343293E+01  1.28202129E+01
  4.39043701E+00  1.16263619E+01  2.71627981E+00  7.72218397E-01  2.12031498E-01
  8.00000000E-01  4.17351146E+03  6.27457911E+02  1.42902093E+02  4.02343293E+01
  1.28202129E+01  4.39043701E+00  1.16263619E+01  2.71627981E+00  7.72218397E-01
  2.12031498E-01  8.00000000E-01  4.17351146E+03  6.27457911E+02  1.42902093E+02
  4.02343293E+01  1.28202129E+01  4.39043701E+00  1.16263619E+01  2.71627981E+00
  7.72218397E-01  2.12031498E-01  8.00000000E-01  3.04752488E+03  4.57369518E+02
  1.03948685E+02  2.92101553E+01  9.28666296E+00  3.16392696E+00  7.86827235E+00
  1.88128854E+00  5.44249258E-01  1.68714478E-01  8.00000000E-01  3.04752488E+03
  4.57369518E+02  1.03948685E+02  2.92101553E+01  9.28666296E+00  3.16392696E+00
  7.86827235E+00  1.88128854E+00  5.44249258E-01  1.68714478E-01  8.00000000E-01
  3.04752488E+03  4.57369518E+02  1.03948685E+02  2.92101553E+01  9.28666296E+00
  3.16392696E+00  7.86827235E+00  1.88128854E+00  5.44249258E-01  1.68714478E-01
  8.00000000E-01  3.04752488E+03  4.57369518E+02  1.03948685E+02  2.92101553E+01
  9.28666296E+00  3.16392696E+00  7.86827235E+00  1.88128854E+00  5.44249258E-01
  1.68714478E-01  8.00000000E-01  3.04752488E+03  4.57369518E+02  1.03948685E+02
  2.92101553E+01  9.28666296E+00  3.16392696E+00  7.86827235E+00  1.88128854E+00
  5.44249258E-01  1.68714478E-01  8.00000000E-01  3.04752488E+03  4.57369518E+02
  1.03948685E+02  2.92101553E+01  9.28666296E+00  3.16392696E+00  7.86827235E+00
  1.88128854E+00  5.44249258E-01  1.68714478E-01  8.00000000E-01  3.04752488E+03
  4.57369518E+02  1.03948685E+02  2.92101553E+01  9.28666296E+00  3.16392696E+00
  7.86827235E+00  1.88128854E+00  5.44249258E-01  1.68714478E-01  8.00000000E-01
  3.04752488E+03  4.57369518E+02  1.03948685E+02  2.92101553E+01  9.28666296E+00
  3.16392696E+00  7.86827235E+00  1.88128854E+00  5.44249258E-01  1.68714478E-01
  8.00000000E-01  3.04752488E+03  4.57369518E+02  1.03948685E+02  2.92101553E+01
  9.28666296E+00  3.16392696E+00  7.86827235E+00  1.88128854E+00  5.44249258E-01
  1.68714478E-01  8.00000000E-01  1.87311370E+01  2.82539436E+00  6.40121692E-01
  1.61277759E-01  1.87311370E+01  2.82539436E+00  6.40121692E-01  1.61277759E-01
  1.87311370E+01  2.82539436E+00  6.40121692E-01  1.61277759E-01  1.87311370E+01
  2.82539436E+00  6.40121692E-01  1.61277759E-01  1.87311370E+01  2.82539436E+00
  6.40121692E-01  1.61277759E-01  1.87311370E+01  2.82539436E+00  6.40121692E-01
  1.61277759E-01  1.87311370E+01  2.82539436E+00  6.40121692E-01  1.61277759E-01
  1.87311370E+01  2.82539436E+00  6.40121692E-01  1.61277759E-01  1.87311370E+01
  2.82539436E+00  6.40121692E-01  1.61277759E-01  1.87311370E+01  2.82539436E+00
  6.40121692E-01  1.61277759E-01  1.87311370E+01  2.82539436E+00  6.40121692E-01
  1.61277759E-01  1.87311370E+01  2.82539436E+00  6.40121692E-01  1.61277759E-01
  1.87311370E+01  2.82539436E+00  6.40121692E-01  1.61277759E-01
Contraction coefficients                   R   N=         239
  1.83107443E-03  1.39501722E-02  6.84450781E-02  2.32714336E-01  4.70192898E-01
  3.58520853E-01 -1.10777550E-01 -1.48026263E-01  1.13076702E+00  1.00000000E+00
  1.00000000E+00  1.83107443E-03  1.39501722E-02  6.84450781E-02  2.32714336E-01
  4.70192898E-01  3.58520853E-01 -1.10777550E-01 -1.48026263E-01  1.13076702E+00
  1.00000000E+00  1.00000000E+00  1.83107443E-03  1.39501722E-02  6.84450781E-02
  2.32714336E-01  4.70192898E-01  3.58520853E-01 -1.10777550E-01 -1.48026263E-01
  1.13076702E+00  1.00000000E+00  1.00000000E+00  1.83107443E-03  1.39501722E-02
  6.84450781E-02  2.32714336E-01  4.70192898E-01  3.58520853E-01 -1.10777550E-01
 -1.48026263E-01  1.13076702E+00  1.00000000E+00  1.00000000E+00  1.83107443E-03
  1.39501722E-02  6.84450781E-02  2.32714336E-01  4.70192898E-01  3.58520853E-01
 -1.10777550E-01 -1.48026263E-01  1.13076702E+00  1.00000000E+00  1.00000000E+00
  1.83477216E-03  1.39946270E-02  6.85865518E-02  2.32240873E-01  4.69069948E-01
  3.60455199E-01 -1.14961182E-01 -1.69117479E-01  1.14585195E+00  1.00000000E+00
  1.00000000E+00  1.83477216E-03  1.39946270E-02  6.85865518E-02  2.32240873E-01
  4.69069948E-01  3.60455199E-01 -1.14961182E-01 -1.69117479E-01  1.14585195E+00
  1.00000000E+00  1.00000000E+00  1.83477216E-03  1.39946270E-02  6.85865518E-02
  2.32240873E-01  4.69069948E-01  3.60455199E-01 -1.14961182E-01 -1.69117479E-01
  1.14585195E+00  1.00000000E+00  1.00000000E+00  1.83473713E-03  1.40373228E-02
  6.88426223E-02  2.32184443E-01  4.67941348E-01  3.62311985E-01 -1.19332420E-01
 -1.60854152E-01  1.14345644E+00  1.00000000E+00  1.00000000E+00  1.83473713E-03
  1.40373228E-02  6.88426223E-02  2.32184443E-01  4.67941348E-01  3.62311985E-01
 -1.19332420E-01 -1.60854152E-01  1.14345644E+00  1.00000000E+00  1.00000000E+00
  1.83473713E-03  1.40373228E-02  6.88426223E-02  2.32184443E-01  4.67941348E-01
  3.62311985E-01 -1.19332420E-01 -1.60854152E-01  1.14345644E+00  1.00000000E+00
  1.00000000E+00  1.83473713E-03  1.40373228E-02  6.88426223E-02  2.32184443E-01
  4.67941348E-01  3.62311985E-01 -1.19332420E-01 -1.60854152E-01  1.14345644E+00
  1.00000000E+00  1.00000000E+00  1.83473713E-03  1.40373228E-02  6.88426223E-02
  2.32184443E-01  4.67941348E-01  3.62311985E-01 -1.19332420E-01 -1.60854152E-01
  1.14345644E+00  1.00000000E+00  1.00000000E+00  1.83473713E-03  1.40373228E-02
  6.88426223E-02  2.32184443E-01  4.67941348E-01  3.62311985E-01 -1.19332420E-01
 -1.60854152E-01  1.14345644E+00  1.00000000E+00  1.00000000E+00  1.83473713E-03
  1.40373228E-02  6.88426223E-02  2.32184443E-01  4.67941348E-01  3.62311985E-01
 -1.19332420E-01 -1.60854152E-01  1.14345644E+00  1.00000000E+00  1.00000000E+00
  1.83473713E-03  1.40373228E-02  6.88426223E-02  2.32184443E-01  4.67941348E-01
  3.62311985E-01 -1.19332420E-01 -1.60854152E-01  1.14345644E+00  1.00000000E+00
  1.00000000E+00  1.83473713E-03  1.40373228E-02  6.88426223E-02  2.32184443E-01
  4.67941348E-01  3.62311985E-01 -1.19332420E-01 -1.60854152E-01  1.14345644E+00
  1.00000000E+00  1.00000000E+00  3.34946043E-02  2.34726953E-01  8.13757326E-01
  1.00000000E+00  3.34946043E-02  2.34726953E-01  8.13757326E-01  1.00000000E+00
  3.34946043E-02  2.34726953E-01  8.13757326E-01  1.00000000E+00  3.34946043E-02
  2.34726953E-01  8.13757326E-01  1.00000000E+00  3.34946043E-02  2.34726953E-01
  8.13757326E-01  1.00000000E+00  3.34946043E-02  2.34726953E-01  8.13757326E-01
  1.00000000E+00  3.34946043E-02  2.34726953E-01  8.13757326E-01  1.00000000E+00
  3.34946043E-02  2.34726953E-01  8.13757326E-01  1.00000000E+00  3.34946043E-02
  2.34726953E-01  8.13757326E-01  1.00000000E+00  3.34946043E-02  2.34726953E-01
  8.13757326E-01  1.00000000E+00  3.34946043E-02  2.34726953E-01  8.13757326E-01
  1.00000000E+00  3.34946043E-02  2.34726953E-01  8.13757326E-01  1.00000000E+00
  3.34946043E-02  2.34726953E-01  8.13757326E-01  1.00000000E+00
P(S=P) Contraction coefficients            R   N=         239
  0.00000000E+00  0.00000000E+00  0.00000000E+00  0.00000000E+00  0.00000000E+00
  0.00000000E+00  7.08742682E-02  3.39752839E-01  7.27158577E-01  1.00000000E+00
  0.00000000E+00  0.00000000E+00  0.00000000E+00  0.00000000E+00  0.00000000E+00
  0.00000000E+00  0.00000000E+00  7.08742682E-02  3.39752839E-01  7.27158577E-01
  1.00000000E+00  0.00000000E+00  0.00000000E+00  0.00000000E+00  0.00000000E+00
  0.00000000E+00  0.00000000E+00  0.00000000E+00  7.08742682E-02  3.39752839E-01
  7.27158577E-01  1.00000000E+00  0.00000000E+00  0.00000000E+00  0.00000000E+00
  0.00000000E+00  0.00000000E+00  0.00000000E+00  0.00000000E+00  7.08742682E-02
  3.39752839E-01  7.27158577E-01  1.00000000E+00  0.00000000E+00  0.00000000E+00
  0.00000000E+00  0.00000000E+00  0.00000000E+00  0.00000000E+00  0.00000000E+00
  7.08742682E-02  3.39752839E-01  7.27158577E-01  1.00000000E+00  0.00000000E+00
  0.00000000E+00  0.00000000E+00  0.00000000E+00  0.00000000E+00  0.00000000E+00
  0.00000000E+00  6.75797439E-02  3.23907296E-01  7.40895140E-01  1.00000000E+00
  0.00000000E+00  0.00000000E+00  0.00000000E+00  0.00000000E+00  0.00000000E+00
  0.00000000E+00  0.00000000E+00  6.75797439E-02  3.23907296E-01  7.40895140E-01
  1.00000000E+00  0.00000000E+00  0.00000000E+00  0.00000000E+00  0.00000000E+00
  0.00000000E+00  0.00000000E+00  0.00000000E+00  6.75797439E-02  3.23907296E-01
  7.40895140E-01  1.00000000E+00  0.00000000E+00  0.00000000E+00  0.00000000E+00
  0.00000000E+00  0.00000000E+00  0.00000000E+00  0.00000000E+00  6.89990666E-02
  3.16423961E-01  7.44308291E-01  1.00000000E+00  0.00000000E+00  0.00000000E+00
  0.00000000E+00  0.00000000E+00  0.00000000E+00  0.00000000E+00  0.00000000E+00
  6.89990666E-02  3.16423961E-01  7.44308291E-01  1.00000000E+00  0.00000000E+00
  0.00000000E+00  0.00000000E+00  0.00000000E+00  0.00000000E+00  0.00000000E+00
  0.00000000E+00  6.89990666E-02  3.16423961E-01  7.44308291E-01  1.00000000E+00
  0.00000000E+00  0.00000000E+00  0.00000000E+00  0.00000000E+00  0.00000000E+00
  0.00000000E+00  0.00000000E+00  6.89990666E-02  3.16423961E-01  7.44308291E-01
  1.00000000E+00  0.00000000E+00  0.00000000E+00  0.00000000E+00  0.00000000E+00
  0.00000000E+00  0.00000000E+00  0.00000000E+00  6.89990666E-02  3.16423961E-01
  7.44308291E-01  1.00000000E+00  0.00000000E+00  0.00000000E+00  0.00000000E+00
  0.00000000E+00  0.00000000E+00  0.00000000E+00  0.00000000E+00  6.89990666E-02
  3.16423961E-01  7.44308291E-01  1.00000000E+00  0.00000000E+00  0.00000000E+00
  0.00000000E+00  0.00000000E+00  0.00000000E+00  0.00000000E+00  0.00000000E+00
  6.89990666E-02  3.16423961E-01  7.44308291E-01  1.00000000E+00  0.00000000E+00
  0.00000000E+00  0.00000000E+00  0.00000000E+00  0.00000000E+00  0.00000000E+00
  0.00000000E+00  6.89990666E-02  3.16423961E-01  7.44308291E-01  1.00000000E+00
  0.00000000E+00  0.00000000E+00  0.00000000E+00  0.00000000E+00  0.00000000E+00
  0.00000000E+00  0.00000000E+00  6.89990666E-02  3.16423961E-01  7.44308291E-01
  1.00000000E+00  0.00000000E+00  0.00000000E+00  0.00000000E+00  0.00000000E+00
  0.00000000E+00  0.00000000E+00  0.00000000E+00  0.00000000E+00  0.00000000E+00
  0.00000000E+00  0.00000000E+00  0.00000000E+00  0.00000000E+00  0.00000000E+00
  0.00000000E+00  0.00000000E+00  0.00000000E+00  0.00000000E+00  0.00000000E+00
  0.00000000E+00  0.00000000E+00  0.00000000E+00  0.00000000E+00  0.00000000E+00
  0.00000000E+00  0.00000000E+00  0.00000000E+00  0.00000000E+00  0.00000000E+00
  0.00000000E+00  0.00000000E+00  0.00000000E+00  0.00000000E+00  0.00000000E+00
  0.00000000E+00  0.00000000E+00  0.00000000E+00  0.00000000E+00  0.00000000E+00
  0.00000000E+00  0.00000000E+00  0.00000000E+00  0.00000000E+00  0.00000000E+00
  0.00000000E+00  0.00000000E+00  0.00000000E+00  0.00000000E+00  0.00000000E+00
  0.00000000E+00  0.00000000E+00  0.00000000E+00  0.00000000E+00
Coordinates of each shell                  R   N=         282
 -2.49288311E+00  1.23557099E+00 -2.07725511E+00 -2.49288311E+00  1.23557099E+00
 -2.07725511E+00 -2.49288311E+00  1.23557099E+00 -2.07725511E+00 -2.49288311E+00
  1.23557099E+00 -2.07725511E+00 -2.97359944E+00 -4.65644579E+00  9.70527319E-01
 -2.97359944E+00 -4.65644579E+00  9.70527319E-01 -2.97359944E+00 -4.65644579E+00
  9.70527319E-01 -2.97359944E+00 -4.65644579E+00  9.70527319E-01 -6.72867792E+00
 -2.02189906E+00 -8.69285478E-01 -6.72867792E+00 -2.02189906E+00 -8.69285478E-01
 -6.72867792E+00 -2.02189906E+00 -8.69285478E-01 -6.72867792E+00 -2.02189906E+00
 -8.69285478E-01 -2.72107113E+00  5.90626724E+00  2.39084253E-01 -2.72107113E+00
  5.90626724E+00  2.39084253E-01 -2.72107113E+00  5.90626724E+00  2.39084253E-01
 -2.72107113E+00  5.90626724E+00  2.39084253E-01  2.09108203E+00 -4.50390730E+00
  1.43655800E-02  2.09108203E+00 -4.50390730E+00  1.43655800E-02  2.09108203E+00
 -4.50390730E+00  1.43655800E-02  2.09108203E+00 -4.50390730E+00  1.43655800E-02
  1.45251161E+00 -2.98471052E-01 -7.00398763E-01  1.45251161E+00 -2.98471052E-01
 -7.00398763E-01  1.45251161E+00 -2.98471052E-01 -7.00398763E-01  1.45251161E+00
 -2.98471052E-01 -7.00398763E-01  5.54894837E+00 -1.87814621E+00  2.75915015E-01
  5.54894837E+00 -1.87814621E+00  2.75915015E-01  5.54894837E+00 -1.87814621E+00
  2.75915015E-01  5.54894837E+00 -1.87814621E+00  2.75915015E-01  8.89283965E+00
  8.37357987E-01  6.82429121E-01  8.89283965E+00  8.37357987E-01  6.82429121E-01
  8.89283965E+00  8.37357987E-01  6.82429121E-01  8.89283965E+00  8.37357987E-01
  6.82429121E-01 -2.60189021E+00 -2.01831064E+00  1.04932323E+00 -2.60189021E+00
 -2.01831064E+00  1.04932323E+00 -2.60189021E+00 -2.01831064E+00  1.04932323E+00
 -2.60189021E+00 -2.01831064E+00  1.04932323E+00 -5.17403986E+00 -7.07959318E-01
  8.65207212E-01 -5.17403986E+00 -7.07959318E-01  8.65207212E-01 -5.17403986E+00
 -7.07959318E-01  8.65207212E-01 -5.17403986E+00 -7.07959318E-01  8.65207212E-01
 -1.20517090E+00 -9.52977590E-01 -1.28315251E+00 -1.20517090E+00 -9.52977590E-01
 -1.28315251E+00 -1.20517090E+00 -9.52977590E-01 -1.28315251E+00 -1.20517090E+00
 -9.52977590E-01 -1.28315251E+00 -4.48005673E+00  1.82461571E+00 -2.99533049E-01
 -4.48005673E+00  1.82461571E+00 -2.99533049E-01 -4.48005673E+00  1.82461571E+00
 -2.99533049E-01 -4.48005673E+00  1.82461571E+00 -2.99533049E-01 -3.58897330E+00
  3.75975193E+00  1.61975596E+00 -3.58897330E+00  3.75975193E+00  1.61975596E+00
 -3.58897330E+00  3.75975193E+00  1.61975596E+00 -3.58897330E+00  3.75975193E+00
  1.61975596E+00  2.32619446E+00  2.11475454E+00 -8.39459930E-01  2.32619446E+00
  2.11475454E+00 -8.39459930E-01  2.32619446E+00  2.11475454E+00 -8.39459930E-01
  2.32619446E+00  2.11475454E+00 -8.39459930E-01  3.04330566E+00 -2.35660019E+00
 -1.10692716E-01  3.04330566E+00 -2.35660019E+00 -1.10692716E-01  3.04330566E+00
 -2.35660019E+00 -1.10692716E-01  3.04330566E+00 -2.35660019E+00 -1.10692716E-01
  4.81401138E+00  2.59907046E+00 -3.77684562E-01  4.81401138E+00  2.59907046E+00
 -3.77684562E-01  4.81401138E+00  2.59907046E+00 -3.77684562E-01  4.81401138E+00
  2.59907046E+00 -3.77684562E-01  6.38766939E+00  4.76785114E-01  1.52767232E-01
  6.38766939E+00  4.76785114E-01  1.52767232E-01  6.38766939E+00  4.76785114E-01
  1.52767232E-01  6.38766939E+00  4.76785114E-01  1.52767232E-01 -1.59518583E+00
 -1.45262305E+00  2.77761006E+00 -1.59518583E+00 -1.45262305E+00  2.77761006E+00
 -6.09576511E+00 -5.25115049E-01  2.72124898E+00 -6.09576511E+00 -5.25115049E-01
  2.72124898E+00 -1.17674570E+00 -2.34857436E+00 -2.81261558E+00 -1.17674570E+00
 -2.34857436E+00 -2.81261558E+00 -6.03611578E+00  2.60512558E+00 -1.41201671E+00
 -6.03611578E+00  2.60512558E+00 -1.41201671E+00 -2.06965242E+00  2.96762402E+00
  2.79717250E+00 -2.06965242E+00  2.96762402E+00  2.79717250E+00 -5.17983922E+00
  4.24557413E+00  2.86596042E+00 -5.17983922E+00  4.24557413E+00  2.86596042E+00
 -1.26811030E+00 -5.34050593E+00  6.69388121E-01 -1.26811030E+00 -5.34050593E+00
  6.69388121E-01 -6.24809040E+00 -3.79933580E+00 -6.85836534E-01 -6.24809040E+00
 -3.79933580E+00 -6.85836534E-01  9.31501046E-01  3.54857674E+00 -1.29264082E+00
  9.31501046E-01  3.54857674E+00 -1.29264082E+00 -2.28634147E+00  7.21021416E+00
  1.45893271E+00 -2.28634147E+00  7.21021416E+00  1.45893271E+00  5.54348165E+00
  4.51182854E+00 -4.51478368E-01  5.54348165E+00  4.51182854E+00 -4.51478368E-01
  9.74903117E+00  2.40235733E+00 -1.58748806E-03  9.74903117E+00  2.40235733E+00
 -1.58748806E-03  9.94663214E+00 -7.61800119E-01  6.81567406E-01  9.94663214E+00
 -7.61800119E-01  6.81567406E-01
Constraint Structure                       R   N=          90
 -2.49288311E+00  1.23557099E+00 -2.07725511E+00 -2.97359944E+00 -4.65644579E+00
  9.70527319E-01 -6.72867792E+00 -2.02189906E+00 -8.69285478E-01 -2.72107113E+00
  5.90626724E+00  2.39084253E-01  2.09108203E+00 -4.50390730E+00  1.43655800E-02
  1.45251161E+00 -2.98471052E-01 -7.00398763E-01  5.54894837E+00 -1.87814621E+00
  2.75915015E-01  8.89283965E+00  8.37357987E-01  6.82429121E-01 -2.60189021E+00
 -2.01831064E+00  1.04932323E+00 -5.17403986E+00 -7.07959318E-01  8.65207212E-01
 -1.20517090E+00 -9.52977590E-01 -1.28315251E+00 -4.48005673E+00  1.82461571E+00
 -2.99533049E-01 -3.58897330E+00  3.75975193E+00  1.61975596E+00  2.32619446E+00