158_Acrolein Gaussian SP Calculation on node35.bme.utexas.edu           
Freq      RMP2-FC                                                     6-31G(d)            
Number of atoms                            I                8
Info1-9                                    I   N=           9
          19          18        1002           0           0         100
           6           2           1
Charge                                     I                0
Multiplicity                               I                1
Number of electrons                        I               30
Number of alpha electrons                  I               15
Number of beta electrons                   I               15
Number of basis functions                  I               68
Number of independent functions            I               68
Number of point charges in /Mol/           I                0
Number of translation vectors              I                0
Atomic numbers                             I   N=           8
           8           6           6           6           1           1
           1           1
Nuclear charges                            R   N=           8
  8.00000000E+00  6.00000000E+00  6.00000000E+00  6.00000000E+00  1.00000000E+00
  1.00000000E+00  1.00000000E+00  1.00000000E+00
Current cartesian coordinates              R   N=          24
  3.40393986E+00 -2.31029079E-01 -2.91348344E-04 -1.06046225E+00 -8.54365634E-01
 -2.76184963E-06  1.26741875E+00  6.70243554E-01 -3.94857631E-05 -3.33579659E+00
  2.65700045E-01  2.95500093E-04 -8.37993000E-01 -2.89590448E+00 -2.21143853E-04
  9.70043019E-01  2.74781654E+00  1.81635778E-04 -5.08259423E+00 -8.06449737E-01
  3.36497496E-04 -3.50793418E+00  2.31330252E+00  5.14282448E-04
Force Field                                I                0
Int Atom Types                             I   N=           8
           0           0           0           0           0           0
           0           0
MM charges                                 R   N=           8
  0.00000000E+00  0.00000000E+00  0.00000000E+00  0.00000000E+00  0.00000000E+00
  0.00000000E+00  0.00000000E+00  0.00000000E+00
Integer atomic weights                     I   N=           8
          16          12          12          12           1           1
           1           1
Real atomic weights                        R   N=           8
  1.59949146E+01  1.20000000E+01  1.20000000E+01  1.20000000E+01  1.00782504E+00
  1.00782504E+00  1.00782504E+00  1.00782504E+00
Atom fragment info                         I   N=           8
           0           0           0           0           0           0
           0           0
Atom residue num                           I   N=           8
           0           0           0           0           0           0
           0           0
Nuclear spins                              I   N=           8
           0           0           0           0           1           1
           1           1
Nuclear ZEff                               R   N=           8
 -5.60000000E+00 -3.60000000E+00 -3.60000000E+00 -3.60000000E+00 -1.00000000E+00
 -1.00000000E+00 -1.00000000E+00 -1.00000000E+00
Nuclear QMom                               R   N=           8
  0.00000000E+00  0.00000000E+00  0.00000000E+00  0.00000000E+00  0.00000000E+00
  0.00000000E+00  0.00000000E+00  0.00000000E+00
Nuclear GFac                               R   N=           8
  0.00000000E+00  0.00000000E+00  0.00000000E+00  0.00000000E+00  2.79284600E+00
  2.79284600E+00  2.79284600E+00  2.79284600E+00
MicOpt                                     I   N=           8
          -1          -1          -1          -1          -1          -1
          -1          -1
Number of contracted shells                I               24
Number of primitive shells                 I               60
Pure/Cartesian d shells                    I                1
Pure/Cartesian f shells                    I                0
Highest angular momentum                   I                2
Largest degree of contraction              I                6
Shell types                                I   N=          24
           0          -1          -1           2           0          -1
          -1           2           0          -1          -1           2
           0          -1          -1           2           0           0
           0           0           0           0           0           0
Number of primitives per shell             I   N=          24
           6           3           1           1           6           3
           1           1           6           3           1           1
           6           3           1           1           3           1
           3           1           3           1           3           1
Shell to atom map                          I   N=          24
           1           1           1           1           2           2
           2           2           3           3           3           3
           4           4           4           4           5           5
           6           6           7           7           8           8
Primitive exponents                        R   N=          60
  5.48467166E+03  8.25234946E+02  1.88046958E+02  5.29645000E+01  1.68975704E+01
  5.79963534E+00  1.55396162E+01  3.59993359E+00  1.01376175E+00  2.70005823E-01
  8.00000000E-01  3.04752488E+03  4.57369518E+02  1.03948685E+02  2.92101553E+01
  9.28666296E+00  3.16392696E+00  7.86827235E+00  1.88128854E+00  5.44249258E-01
  1.68714478E-01  8.00000000E-01  3.04752488E+03  4.57369518E+02  1.03948685E+02
  2.92101553E+01  9.28666296E+00  3.16392696E+00  7.86827235E+00  1.88128854E+00
  5.44249258E-01  1.68714478E-01  8.00000000E-01  3.04752488E+03  4.57369518E+02
  1.03948685E+02  2.92101553E+01  9.28666296E+00  3.16392696E+00  7.86827235E+00
  1.88128854E+00  5.44249258E-01  1.68714478E-01  8.00000000E-01  1.87311370E+01
  2.82539436E+00  6.40121692E-01  1.61277759E-01  1.87311370E+01  2.82539436E+00
  6.40121692E-01  1.61277759E-01  1.87311370E+01  2.82539436E+00  6.40121692E-01
  1.61277759E-01  1.87311370E+01  2.82539436E+00  6.40121692E-01  1.61277759E-01
Contraction coefficients                   R   N=          60
  1.83107443E-03  1.39501722E-02  6.84450781E-02  2.32714336E-01  4.70192898E-01
  3.58520853E-01 -1.10777550E-01 -1.48026263E-01  1.13076702E+00  1.00000000E+00
  1.00000000E+00  1.83473713E-03  1.40373228E-02  6.88426223E-02  2.32184443E-01
  4.67941348E-01  3.62311985E-01 -1.19332420E-01 -1.60854152E-01  1.14345644E+00
  1.00000000E+00  1.00000000E+00  1.83473713E-03  1.40373228E-02  6.88426223E-02
  2.32184443E-01  4.67941348E-01  3.62311985E-01 -1.19332420E-01 -1.60854152E-01
  1.14345644E+00  1.00000000E+00  1.00000000E+00  1.83473713E-03  1.40373228E-02
  6.88426223E-02  2.32184443E-01  4.67941348E-01  3.62311985E-01 -1.19332420E-01
 -1.60854152E-01  1.14345644E+00  1.00000000E+00  1.00000000E+00  3.34946043E-02
  2.34726953E-01  8.13757326E-01  1.00000000E+00  3.34946043E-02  2.34726953E-01
  8.13757326E-01  1.00000000E+00  3.34946043E-02  2.34726953E-01  8.13757326E-01
  1.00000000E+00  3.34946043E-02  2.34726953E-01  8.13757326E-01  1.00000000E+00
P(S=P) Contraction coefficients            R   N=          60
  0.00000000E+00  0.00000000E+00  0.00000000E+00  0.00000000E+00  0.00000000E+00
  0.00000000E+00  7.08742682E-02  3.39752839E-01  7.27158577E-01  1.00000000E+00
  0.00000000E+00  0.00000000E+00  0.00000000E+00  0.00000000E+00  0.00000000E+00
  0.00000000E+00  0.00000000E+00  6.89990666E-02  3.16423961E-01  7.44308291E-01
  1.00000000E+00  0.00000000E+00  0.00000000E+00  0.00000000E+00  0.00000000E+00
  0.00000000E+00  0.00000000E+00  0.00000000E+00  6.89990666E-02  3.16423961E-01
  7.44308291E-01  1.00000000E+00  0.00000000E+00  0.00000000E+00  0.00000000E+00
  0.00000000E+00  0.00000000E+00  0.00000000E+00  0.00000000E+00  6.89990666E-02
  3.16423961E-01  7.44308291E-01  1.00000000E+00  0.00000000E+00  0.00000000E+00
  0.00000000E+00  0.00000000E+00  0.00000000E+00  0.00000000E+00  0.00000000E+00
  0.00000000E+00  0.00000000E+00  0.00000000E+00  0.00000000E+00  0.00000000E+00
  0.00000000E+00  0.00000000E+00  0.00000000E+00  0.00000000E+00  0.00000000E+00
Coordinates of each shell                  R   N=          72
  3.40393986E+00 -2.31029079E-01 -2.91348344E-04  3.40393986E+00 -2.31029079E-01
 -2.91348344E-04  3.40393986E+00 -2.31029079E-01 -2.91348344E-04  3.40393986E+00
 -2.31029079E-01 -2.91348344E-04 -1.06046225E+00 -8.54365634E-01 -2.76184963E-06
 -1.06046225E+00 -8.54365634E-01 -2.76184963E-06 -1.06046225E+00 -8.54365634E-01
 -2.76184963E-06 -1.06046225E+00 -8.54365634E-01 -2.76184963E-06  1.26741875E+00
  6.70243554E-01 -3.94857631E-05  1.26741875E+00  6.70243554E-01 -3.94857631E-05
  1.26741875E+00  6.70243554E-01 -3.94857631E-05  1.26741875E+00  6.70243554E-01
 -3.94857631E-05 -3.33579659E+00  2.65700045E-01  2.95500093E-04 -3.33579659E+00
  2.65700045E-01  2.95500093E-04 -3.33579659E+00  2.65700045E-01  2.95500093E-04
 -3.33579659E+00  2.65700045E-01  2.95500093E-04 -8.37993000E-01 -2.89590448E+00
 -2.21143853E-04 -8.37993000E-01 -2.89590448E+00 -2.21143853E-04  9.70043019E-01
  2.74781654E+00  1.81635778E-04  9.70043019E-01  2.74781654E+00  1.81635778E-04
 -5.08259423E+00 -8.06449737E-01  3.36497496E-04 -5.08259423E+00 -8.06449737E-01
  3.36497496E-04 -3.50793418E+00  2.31330252E+00  5.14282448E-04 -3.50793418E+00
  2.31330252E+00  5.14282448E-04
Constraint Structure                       R   N=          24
  3.40393986E+00 -2.31029079E-01 -2.91348344E-04 -1.06046225E+00 -8.54365634E-01
 -2.76184963E-06  1.26741875E+00  6.70243554E-01 -3.94857631E-05 -3.33579659E+00
  2.65700045E-01  2.95500093E-04 -8.37993000E-01 -2.89590448E+00 -2.21143853E-04
  9.70043019E-01  2.74781654E+00  1.81635778E-04 -5.08259423E+00 -8.06449737E-01
  3.36497496E-04 -3.50793418E+00  2.31330252E+00  5.14282448E-04
Num ILSW                                   I              100
ILSW                                       I   N=         100
           0           1           0           0           2           0
           0           0           0           0           0          -1
           0           0           0           0           0           0
           0           0           0           0           1           0
           1           0           0           0           0           0
           0           0      100000           0          -1           0
           0           0           0           0           0           0
           0           0           0           1           1           0
           0           0           1           0           0           0
           0           0           4          40           0           0
           0           0           0           0           0           0
           0           0           0           0           0           0
           0           0           0           0           0           0
           0           0           0           0           0           0
           0           0           0           0           0           0
           0           0           0           0           0           0
           0           0           0           0
Num RLSW                                   I               40
RLSW                                       R   N=          40
  1.00000000E+00  1.00000000E+00  1.00000000E+00  1.00000000E+00  1.00000000E+00
  0.00000000E+00  0.00000000E+00  1.00000000E+00  0.00000000E+00  0.00000000E+00
  0.00000000E+00  0.00000000E+00  1.00000000E+00  0.00000000E+00  0.00000000E+00
  0.00000000E+00  0.00000000E+00  1.00000000E+00  0.00000000E+00  0.00000000E+00
  0.00000000E+00  0.00000000E+00  1.00000000E+00  0.00000000E+00  0.00000000E+00
  0.00000000E+00  0.00000000E+00  1.00000000E+00  0.00000000E+00  0.00000000E+00
  0.00000000E+00  0.00000000E+00  0.00000000E+00  0.00000000E+00  0.00000000E+00
  0.00000000E+00  0.00000000E+00  0.00000000E+00  1.00000000E+00  1.00000000E+00
MxBond                                     I                3
NBond                                      I   N=           8
           1           3           3           3           1           1
           1           1
IBond                                      I   N=          24
           3           0           0           3           4           5
           1           2           6           2           7           8
           2           0           0           3           0           0
           4           0           0           4           0           0
RBond                                      R   N=          24
  2.00000000E+00  0.00000000E+00  0.00000000E+00  1.00000000E+00  2.00000000E+00
  1.00000000E+00  2.00000000E+00  1.00000000E+00  1.00000000E+00  2.00000000E+00
  1.00000000E+00  1.00000000E+00  1.00000000E+00  0.00000000E+00  0.00000000E+00
  1.00000000E+00  0.00000000E+00  0.00000000E+00  1.00000000E+00  0.00000000E+00
  0.00000000E+00  1.00000000E+00  0.00000000E+00  0.00000000E+00
Virial Ratio                               R      2.002961982131176E+00
SCF Energy                                 R     -1.907589876758406E+02
MP2 Energy                                 R     -1.913116249606496E+02
Total Energy                               R     -1.913116249606496E+02
Post-SCF wavefunction norm                 R      1.541115141884254E+00
RMS Force                                  R      4.524526042264142E-07
RMS Density                                R      3.106657961950696E-09
External E-field                           R   N=          35
  0.00000000E+00  0.00000000E+00  0.00000000E+00  0.00000000E+00  0.00000000E+00
  0.00000000E+00  0.00000000E+00  0.00000000E+00  0.00000000E+00  0.00000000E+00
  0.00000000E+00  0.00000000E+00  0.00000000E+00  0.00000000E+00  0.00000000E+00
  0.00000000E+00  0.00000000E+00  0.00000000E+00  0.00000000E+00  0.00000000E+00
  0.00000000E+00  0.00000000E+00  0.00000000E+00  0.00000000E+00  0.00000000E+00
  0.00000000E+00  0.00000000E+00  0.00000000E+00  0.00000000E+00  0.00000000E+00
  0.00000000E+00  0.00000000E+00  0.00000000E+00  0.00000000E+00  0.00000000E+00
IOpCl                                      I                0
IROHF                                      I                0
Alpha Orbital Energies                     R   N=          68
 -2.05641724E+01 -1.13389691E+01 -1.12727347E+01 -1.12568589E+01 -1.37818026E+00
 -1.08403728E+00 -8.84349670E-01 -7.83851749E-01 -6.65330277E-01 -6.60927825E-01
 -5.97544277E-01 -5.56348214E-01 -5.31990899E-01 -4.27138948E-01 -3.93459164E-01
  8.88700648E-02  2.39190460E-01  2.45156109E-01  2.55701659E-01  3.03502060E-01
  3.32068406E-01  4.22762485E-01  4.79532945E-01  5.34698226E-01  7.17613784E-01
  7.28876466E-01  7.50981008E-01  8.10771894E-01  8.23131759E-01  8.77725270E-01
  8.95512753E-01  9.38642151E-01  1.04779601E+00  1.08499031E+00  1.11305835E+00
  1.12919884E+00  1.15872011E+00  1.18604907E+00  1.29238791E+00  1.30338989E+00
  1.32670487E+00  1.39781312E+00  1.52225279E+00  1.58945874E+00  1.70593223E+00
  1.80890456E+00  1.82445466E+00  1.93680308E+00  2.04361076E+00  2.09379757E+00
  2.14560803E+00  2.20846791E+00  2.29654821E+00  2.36408094E+00  2.44377767E+00
  2.48046080E+00  2.62921231E+00  2.73187065E+00  2.73916691E+00  2.91812550E+00
  2.95615972E+00  3.21374904E+00  3.28819431E+00  3.36961257E+00  4.25984239E+00
  4.47541833E+00  4.56382118E+00  4.79378406E+00
Alpha MO coefficients                      R   N=        4624
  9.94707402E-01  2.09068704E-02 -1.40036397E-03  5.84855613E-04  1.64359594E-07
  4.52204985E-03  2.34299590E-05  3.76181301E-06 -1.51068036E-09 -3.63908402E-03
 -3.82195363E-03 -4.17162372E-03 -1.12611356E-04 -5.83451756E-08  4.71006586E-08
 -6.65733327E-07  4.05017913E-06 -1.82622459E-05  1.02831361E-05  2.37961783E-09
 -6.16178363E-05 -5.68048152E-05 -4.29975250E-05  6.38828830E-10 -6.48382911E-05
  4.82145042E-05 -1.72516440E-05  2.64020476E-05  6.85092437E-09  5.18770093E-09
 -3.49676050E-06  4.75630909E-04 -3.41203709E-05  1.53791666E-05  4.10860483E-09
 -2.66366173E-04 -5.72288392E-04  2.12638496E-04  6.49094848E-08 -6.55827971E-04
 -1.57351371E-04 -3.46438463E-05  2.84595171E-04  8.28727516E-08 -3.56059137E-08
  5.05209050E-06  3.46385206E-05  2.16809258E-05 -6.96701496E-06 -2.54634137E-09
 -9.07388358E-05 -1.17162483E-04 -4.31704587E-05  5.37018533E-09 -3.91337066E-06
  1.09644594E-05  1.27667997E-05 -2.06014856E-05 -4.98564390E-10  1.51527811E-09
 -9.81738680E-07 -2.18423193E-05 -3.26925447E-05 -1.24208599E-04 -1.10079919E-06
 -5.95024439E-05  1.76380276E-05  2.96240867E-06 -2.86021434E-04  5.50265804E-04
 -2.36006221E-04  1.09224238E-04  2.84987068E-08 -2.58432525E-03  1.48633123E-03
 -7.18856614E-04 -1.83059327E-07 -6.83746744E-05  7.81755127E-05  3.75833645E-04
  1.32776390E-04  5.23117340E-08 -4.29414345E-08  4.42754344E-03  2.52651752E-04
 -5.98482008E-05 -1.62360029E-04 -1.12821196E-08  2.64898390E-03  5.61226900E-04
  1.09529717E-03  6.01389698E-08 -5.33354444E-04 -3.48765509E-04 -1.43218663E-04
 -2.11070516E-04  1.51002387E-08 -6.52792993E-09  9.95762390E-01  2.65479749E-02
  4.48403868E-04 -3.32378552E-04 -6.64599134E-08 -7.59027415E-03  2.96579323E-03
 -1.14697360E-03 -3.41633386E-07 -9.03670558E-04 -1.72575762E-03 -2.45881171E-03
 -3.18579773E-04 -1.69850050E-07  1.05225969E-07 -3.05809364E-05 -2.63792675E-04
 -1.18774542E-04 -8.38169004E-05  1.26807943E-09 -1.48887113E-05  6.78358128E-04
  4.76681045E-04 -7.07195220E-09  9.38332213E-05  2.87855186E-05 -1.23976002E-04
 -3.70301250E-05 -2.38463457E-08  2.07946645E-08 -3.13031535E-05  2.49515845E-04
 -1.75710565E-05  2.35464814E-03  5.66422315E-05  5.35280075E-04 -1.37392723E-04
 -1.48004454E-04 -2.89986112E-05 -1.30369583E-04  1.63558172E-05  7.07598917E-07
 -9.98366409E-10  7.22416515E-04 -2.12385106E-04 -2.40733184E-05  1.33041375E-08
 -5.15833763E-05 -1.00992822E-04 -8.87917472E-05  2.69790078E-05 -6.58802937E-10
 -3.34174134E-09  4.97548728E-02  1.09776430E-03  1.85829798E-04 -1.05676939E-04
 -2.55791639E-08  3.32237938E-03 -1.33467317E-03  5.08665638E-04  1.61524821E-07
 -3.88766165E-04 -3.90334705E-04 -1.98117102E-04 -5.95498589E-06  1.73720793E-08
 -2.12987115E-08 -2.61466745E-04 -1.79682524E-04  1.66641941E-05 -1.36396024E-05
 -2.78234115E-09  2.81686294E-05 -3.98955661E-04  3.44280975E-04  6.46465876E-08
  7.75220254E-05 -2.77426060E-05 -4.60315760E-05  2.58888447E-05 -9.16068666E-09
  1.64007934E-10  9.94361026E-01  2.72955617E-02  6.10299375E-05  3.10473149E-05
 -8.49805096E-10 -1.11387832E-02 -5.56015728E-04  1.42387493E-04  5.64316110E-08
 -1.64491297E-03 -1.91509136E-03 -2.53784799E-03 -1.67117785E-04 -1.02331086E-07
  8.49864236E-08 -8.01878480E-05 -2.75904546E-05 -5.33765745E-05 -2.19206240E-04
 -1.57369625E-04  2.02663611E-03 -1.29493298E-04  2.12961963E-03  2.03247465E-05
  1.09686386E-05 -4.60869726E-06  2.46578322E-05  2.38263570E-09 -4.48250601E-04
  1.76820199E-04  9.90131805E-05 -3.65270322E-09  1.02819151E-04  9.66549953E-05
 -2.33640593E-05 -1.44965816E-05 -1.27802708E-08  1.41027126E-08  9.94380111E-01
  2.77459825E-02  1.60395243E-05  3.54916244E-04  3.44301288E-08 -1.33973321E-02
 -4.70543889E-05 -1.68573391E-03 -1.67772239E-07 -1.51452919E-03 -1.83610639E-03
 -2.41196594E-03 -1.44348330E-04 -9.92865139E-08  7.74938047E-08 -4.78762047E-03
 -5.77700928E-05  5.76387886E-05  9.83486823E-05  5.10078111E-09  4.23519131E-03
 -1.36472293E-03 -8.87257833E-04  2.30410226E-08 -4.87959770E-04 -3.76287641E-04
 -1.26680904E-04 -2.31184251E-04  1.06133796E-08 -1.03162661E-08 -5.03974464E-02
 -1.67303834E-03 -2.18688762E-04  8.43096863E-05  2.64769639E-08  5.11061133E-03
  1.90099308E-03 -2.21900497E-04 -1.77354531E-07 -2.55789419E-04 -2.10190555E-04
  5.85607691E-05  8.09285733E-05  3.82614920E-08 -3.75709338E-08 -1.40645270E-04
  1.66759612E-03 -9.80777004E-05 -1.52576451E-04 -1.39835942E-05  2.22397888E-05
 -1.06635269E-04 -4.70233164E-04 -1.95472496E-01  4.33075915E-01 -1.23157481E-01
  5.01938856E-02  1.43401651E-05  4.00126820E-01 -5.15497727E-02  1.83421439E-02
  5.73767836E-06  1.57100261E-02  2.33034853E-04 -2.22017972E-03 -8.44956685E-03
 -2.40948260E-06  9.25322548E-07 -1.92813793E-02  3.60799751E-02  2.56453909E-02
  1.11842952E-02 -9.29416900E-07  2.22018620E-02  1.34369225E-02 -1.36286166E-03
 -1.17834497E-06  6.92998872E-03  9.45716507E-04 -1.85176805E-03  3.73973930E-03
 -4.42352932E-07  2.72036153E-08 -1.12268561E-01  2.14954339E-01  1.52582048E-01
 -7.01363458E-02 -1.85249627E-05  6.37394423E-02 -1.88518499E-02  2.14504764E-02
  3.52440551E-06  2.34964762E-02 -7.10406355E-03 -1.63174615E-02 -1.97461601E-02
 -5.45464426E-06  2.54825037E-06 -3.97111241E-03  9.64544944E-03  6.36936662E-03
 -3.49039170E-04 -5.52579164E-07  6.08905513E-03 -6.64151943E-03 -7.60125329E-03
 -2.11769497E-07  3.12649845E-04 -1.93287023E-04  2.31475761E-04  8.47745908E-06
 -8.40030279E-09 -4.99151332E-08  7.39511660E-03 -4.40487032E-04  2.81105663E-02
 -1.08927783E-02  2.75250833E-04 -5.74839684E-03  2.82830803E-03  2.42404720E-03
  3.94897542E-02 -9.09338467E-02 -9.50125805E-03 -1.05580338E-02 -2.42161486E-07
 -8.69868024E-02 -6.09002058E-03 -2.07946826E-03  2.79168625E-07 -4.47966785E-04
 -2.33372431E-03 -1.92176587E-04  9.85823277E-04  1.12880442E-07 -3.10389360E-07
 -1.57556387E-01  3.01718350E-01 -5.82863400E-02  6.66028541E-02  1.15067731E-05
  2.14276501E-01 -2.37940551E-03 -2.78494555E-03 -4.39055836E-08  1.19483091E-02
  7.81978282E-03 -1.20059434E-02 -4.42499629E-03 -2.70706689E-06  2.63526231E-06
 -5.27869292E-02  1.08572877E-01 -1.30088742E-01 -1.64958957E-02  8.62405671E-06
  7.35764121E-02 -3.19883069E-02  8.35741333E-03  3.31841746E-06  5.09978657E-03
  5.84923766E-03 -4.33939080E-03  1.17656581E-02  2.57770177E-07  1.99015077E-07
 -1.40277565E-01  2.67627008E-01  9.70313750E-02 -3.78347149E-02 -1.16586168E-05
  2.08246482E-01  1.20814914E-02  1.71420627E-03 -7.99774460E-07  1.47311971E-02
  6.12154512E-03 -1.18204027E-02 -5.27497606E-03 -3.06200007E-06  2.48789175E-06
  7.34206007E-02  5.69255941E-03  3.44672274E-02  3.36934882E-03  6.81054619E-02
  1.20027668E-02  7.36866322E-02  1.02421763E-02 -6.67366496E-02  1.54027829E-01
  9.05022410E-02 -1.48616385E-02 -8.41898549E-06  1.90200250E-01  4.68981602E-02
 -6.31938463E-03 -4.23625258E-06 -5.46048718E-03  3.14505218E-03  1.06392565E-03
  2.28258444E-03  8.00923958E-07  5.24471484E-08  5.09185031E-02 -1.02650672E-01
 -2.14392437E-01 -2.31171951E-02  1.52554336E-05 -9.13049314E-02 -5.52078065E-02
  5.86119931E-03  5.07897037E-06 -2.26514774E-03 -9.49321763E-03  4.82231141E-03
 -1.67448755E-02 -1.00224049E-06 -2.68240048E-07  1.17413765E-01 -2.49951815E-01
  1.55363774E-01 -3.94842698E-03 -1.23820609E-05 -2.06531682E-01  5.43280595E-02
 -2.55073505E-02 -6.62424475E-06  1.55459355E-04 -1.52228059E-02  8.58495801E-03
 -1.00108804E-02 -2.08709546E-07 -1.84583409E-06 -1.28438257E-01  2.50065044E-01
 -6.85897986E-02 -3.91842448E-03  5.40306441E-06  2.37962082E-01 -3.10278105E-02
  5.18197113E-03  3.12669099E-06  7.57031167E-03  1.47974435E-02 -1.13555520E-02
  4.60052893E-03 -1.38358380E-06  2.60835802E-06 -3.96718245E-02 -6.60475534E-03
 -1.02812248E-01 -2.66658213E-02  1.28921644E-01  4.76062529E-02  1.02666054E-01
  3.56120336E-02 -3.83282635E-02  9.07373904E-02  5.06280071E-02 -1.39636221E-01
 -1.72691220E-05  1.13918162E-01  2.97327700E-02 -7.27998062E-02 -9.25824859E-06
  1.06614997E-03 -3.31867067E-03  1.68226749E-03  1.05279412E-02  1.06329141E-06
 -1.36959453E-06 -9.54943177E-02  1.85004907E-01 -4.83061389E-03 -1.66938512E-01
 -1.59558322E-05  2.24692057E-01  2.94669587E-03 -5.17549793E-02 -5.32554626E-06
 -5.64610787E-04  1.38963449E-02 -7.19938005E-03 -5.72125187E-03 -1.18616990E-06
  2.85395043E-06  8.36826607E-02 -1.73823330E-01 -1.72832395E-02 -2.15325655E-01
 -1.92641091E-05 -1.79530842E-01  3.20812275E-02 -8.04640388E-02 -1.02248494E-05
  3.28154184E-03 -1.32016398E-02  7.07438090E-03  7.16152779E-03  1.02981765E-06
 -2.78375546E-06  4.94991553E-02 -9.60859016E-02  9.06603065E-02 -1.35727580E-01
 -2.09999336E-05 -1.20711523E-01  2.58819859E-02 -4.46631831E-02 -6.57256660E-06
 -5.99815135E-04 -1.25540886E-02  5.19221212E-03 -8.38009032E-03 -2.57748576E-07
 -1.35644271E-06  1.64868562E-01  7.82954397E-02 -1.76611336E-01 -8.81605596E-02
 -4.91523273E-02 -2.36909246E-02 -1.20022295E-01 -6.38373215E-02 -5.80050891E-02
  1.32086162E-01  3.41372468E-01  1.88184367E-02 -2.44874614E-05  2.33805180E-01
  1.95919154E-01  1.50869517E-02 -1.36241726E-05 -2.45612518E-02  7.71365732E-03
  4.31613696E-03  4.30203044E-03  2.97743504E-06  4.71690092E-08 -2.90638810E-02
  5.87026803E-02 -1.91667592E-01  1.36494963E-01  2.88921069E-05  2.82756163E-02
 -5.93806106E-02  4.82470474E-02  9.50134700E-06 -2.92806881E-03 -2.78748980E-03
 -8.70925940E-04 -9.33924623E-03 -7.41905652E-07  5.38601911E-07  4.10296501E-02
 -1.00576061E-01 -1.13072856E-01  2.16870019E-01  2.96837814E-05 -3.68611773E-02
 -4.52106514E-03  6.25134896E-02  6.39473694E-06  8.47526170E-04  4.87688953E-03
  4.40036192E-03  6.40285840E-03  9.19418517E-07 -4.59862073E-07  1.43894497E-02
 -2.86562105E-02  2.99476333E-01 -3.39465266E-02 -2.84492415E-05 -5.30717432E-02
  1.29048499E-01 -2.13200670E-03 -1.10543972E-05 -1.59506176E-03 -1.08268385E-02
  1.91239880E-03 -1.67248717E-02 -1.29745708E-06 -5.71168838E-08 -5.87951386E-02
 -3.58107796E-02  8.05340985E-02  6.15290249E-02 -1.54738870E-01 -9.54395973E-02
 -5.04760736E-02 -3.46984114E-02 -2.81279865E-02  6.35866789E-02  5.48924372E-02
 -2.58872151E-01 -2.87063842E-05  1.11085827E-01  2.75716061E-02 -1.50261896E-01
 -1.63115225E-05  1.47046880E-03 -8.88316894E-03  1.28445614E-03  1.61818589E-02
  1.50686664E-06 -2.36701209E-06  9.75206075E-03 -1.77977819E-02  1.76857566E-01
  1.84903139E-01  3.99275454E-06 -1.98162603E-02  5.31802403E-02  8.82212467E-02
  4.42954108E-06  2.42335825E-03 -5.51910600E-03  4.42238330E-04  6.40674643E-03
  4.68001480E-07 -1.16595318E-06  1.69577716E-02 -3.56669397E-02 -1.98105925E-01
 -2.12625472E-01 -4.64369026E-06 -3.69969267E-02 -3.77291822E-02 -9.84909273E-02
 -6.38167626E-06  1.26320451E-03 -5.24712761E-03  3.05060439E-03  6.14719006E-03
  7.45414176E-07 -1.40061560E-06 -5.41277056E-03  7.86627139E-03  3.03335591E-02
  2.78715458E-01  2.51889385E-05  1.41714185E-02  2.03876753E-02  1.23230534E-01
  1.05832164E-05 -8.79980337E-03  1.39051891E-02 -1.44715948E-03 -2.53562622E-03
  4.80506628E-07  2.00491718E-06 -1.02132449E-01 -5.27819759E-02 -1.11343537E-01
 -6.49592554E-02 -9.25043797E-02 -5.54080583E-02  1.63676580E-01  1.05852856E-01
 -4.04468593E-02  8.83195324E-02  3.46390820E-01 -1.30611205E-01 -4.00395853E-05
  1.98133058E-01  2.03249063E-01 -7.94944266E-02 -2.38211920E-05 -2.16652772E-02
  2.29843016E-03  3.71914972E-03  1.14649543E-02  3.43245191E-06 -1.07239795E-06
  7.40499123E-03 -1.61137635E-02  2.16036397E-01 -1.46599832E-01 -3.25963238E-05
  8.44541758E-04  8.08274166E-02 -5.84621465E-02 -1.26478700E-05 -7.84604415E-03
  1.38823998E-02 -5.60350415E-04  1.44263459E-02  2.08356695E-06  4.19474764E-07
  1.20548842E-04 -1.32592280E-02 -2.55783997E-01  1.50821796E-01  3.34439948E-05
  6.86839942E-02 -5.66787716E-02  4.90182474E-02  8.64641501E-06 -1.80881597E-02
  2.30563694E-02  3.74957627E-03  1.39360790E-02  3.29221324E-06  1.08583931E-06
  1.63592156E-02 -3.79813796E-02 -2.97799194E-01 -7.47623672E-03  2.38853322E-05
 -1.20560944E-02 -1.15034108E-01 -1.37738479E-02  8.11232100E-06  3.98453174E-03
  4.62595550E-03 -7.69843682E-04  1.66567037E-02  1.14524893E-06 -7.71205319E-07
  9.78598484E-02  7.98435653E-02  1.13000702E-01  9.31159842E-02  1.47051777E-01
  1.15858251E-01 -1.31492820E-03  9.55533173E-03  5.46018463E-03 -9.77336892E-03
  3.19749021E-02  1.91766470E-01  1.43572213E-05 -3.49821379E-02  2.91795742E-02
  1.26571679E-01  8.79377411E-06 -4.37367820E-03  8.38253103E-03  2.58071040E-04
 -9.25108460E-03 -3.50247691E-07  1.56442925E-06 -1.48740847E-02  2.70311693E-02
  2.86827468E-02 -2.74645177E-01 -3.01024910E-05  5.62410171E-02 -1.72920156E-02
 -1.82288771E-01 -1.69932570E-05 -2.00109129E-02  2.88474799E-02 -1.21419585E-03
 -1.30507648E-02  4.70666707E-07  4.43347712E-06  2.38553409E-02 -5.25890526E-02
  1.30664250E-01  8.99361350E-02 -2.73825242E-06 -3.41108590E-02  3.55206828E-02
  3.50111269E-02 -4.55432968E-08  8.90074057E-04  2.14873947E-04  1.03953186E-04
  2.94747146E-03  1.57001912E-07 -1.42575645E-07  1.12949796E-02 -2.51437241E-02
  3.83141434E-02  3.20269742E-01  2.81527452E-05 -1.58719524E-02  5.31995281E-02
  1.93992214E-01  1.45682377E-05 -2.47689127E-02  2.73984582E-02  1.91303040E-04
 -1.46830096E-02  9.21844976E-07  4.38583961E-06  2.05089356E-01  1.35422560E-01
  2.12520609E-02  2.82405838E-02 -1.52009134E-01 -1.03519695E-01  2.08269239E-01
  1.62920850E-01 -2.94437047E-09  1.53940400E-08  3.49156892E-05 -4.13229005E-05
  4.39656418E-01  2.15640493E-08  2.47214315E-05 -2.93223951E-05  3.11685741E-01
 -4.70926142E-06 -2.29397601E-06  7.00747739E-06  4.38165103E-06 -3.46712585E-02
  1.41690274E-02 -1.59143732E-08 -2.08310056E-08  1.32653286E-05 -1.68377467E-05
  1.56060740E-01  3.94916650E-07  7.90177661E-06 -1.03382285E-05  9.61248888E-02
  2.05557191E-07 -1.24796172E-06  1.07035396E-06  4.29322317E-07  2.56818540E-03
  8.24688865E-03  4.55247455E-08 -1.24320936E-07  2.50072942E-05 -2.99138516E-05
  3.20567556E-01  9.97161627E-08  1.55717013E-05 -1.86544254E-05  1.99399866E-01
  2.99663338E-06  2.63741682E-06 -5.62181813E-06 -3.32359488E-06  2.28143658E-02
 -1.55525332E-02  1.79089076E-07 -3.57389044E-07  7.44064512E-06 -8.73733465E-06
  9.74518483E-02 -5.93489331E-07  5.17470713E-06 -5.95497436E-06  6.56827817E-02
  1.17280829E-06  6.35388346E-07 -1.76730801E-06 -1.12420882E-06  8.67396327E-03
 -3.15780116E-03  1.10248511E-06  7.54168726E-07  3.67619712E-07  3.05366569E-07
 -1.14854742E-07 -6.48504664E-08  5.81788010E-07  5.40706315E-07  3.86636142E-04
  7.80852280E-03  2.11313957E-01  5.02363332E-01  3.12519757E-05 -4.50949749E-02