opt=Tight                                                               
Freq      RMP2-FC                                                     6-31G(d)            
Number of atoms                            I               18
Info1-9                                    I   N=           9
          27          27        1002           0           0         100
           6           2           1
Charge                                     I                1
Multiplicity                               I                1
Number of electrons                        I               58
Number of alpha electrons                  I               29
Number of beta electrons                   I               29
Number of basis functions                  I              140
Number of independent functions            I              140
Number of point charges in /Mol/           I                0
Number of translation vectors              I                0
Atomic numbers                             I   N=          18
           7           6           6           6           6           6
           6           6           1           1           1           1
           1           1           1           1           1           1
Nuclear charges                            R   N=          18
  7.00000000E+00  6.00000000E+00  6.00000000E+00  6.00000000E+00  6.00000000E+00
  6.00000000E+00  6.00000000E+00  6.00000000E+00  1.00000000E+00  1.00000000E+00
  1.00000000E+00  1.00000000E+00  1.00000000E+00  1.00000000E+00  1.00000000E+00
  1.00000000E+00  1.00000000E+00  1.00000000E+00
Current cartesian coordinates              R   N=          54
 -4.58897989E+00 -1.85082892E+00 -1.57802475E-02 -2.17883484E+00 -4.41591736E-01
  3.22762405E-02  2.36556355E+00 -5.14349483E-01 -2.70438209E-02  6.15529152E-02
 -1.81421469E+00 -3.56250276E-03 -2.25380032E+00  2.18321342E+00  2.35574977E-02
  2.32549250E+00  2.13551679E+00 -2.56105804E-02  5.06421440E-02  3.46837709E+00
  1.36448008E-03  4.82908097E+00 -1.93654442E+00  1.65520719E-02  3.27501290E-02
 -3.87056728E+00 -1.25830015E-02 -4.03470776E+00  3.20622174E+00  3.68009154E-02
  4.10268360E+00  3.16842914E+00 -4.88163268E-02  6.01915438E-02  5.52105970E+00
 -9.18349587E-04 -6.02682714E+00 -8.61272149E-01  8.39112313E-01 -5.16606929E+00
 -2.24077751E+00 -1.83165740E+00 -4.44855855E+00 -3.55075790E+00  9.14546811E-01
  4.59292842E+00 -3.85592725E+00 -7.07474728E-01  6.25152246E+00 -9.74094564E-01
 -1.13084220E+00  5.56076434E+00 -2.06895322E+00  1.94709338E+00
Force Field                                I                0
Int Atom Types                             I   N=          18
           0           0           0           0           0           0
           0           0           0           0           0           0
           0           0           0           0           0           0
MM charges                                 R   N=          18
  0.00000000E+00  0.00000000E+00  0.00000000E+00  0.00000000E+00  0.00000000E+00
  0.00000000E+00  0.00000000E+00  0.00000000E+00  0.00000000E+00  0.00000000E+00
  0.00000000E+00  0.00000000E+00  0.00000000E+00  0.00000000E+00  0.00000000E+00
  0.00000000E+00  0.00000000E+00  0.00000000E+00
Integer atomic weights                     I   N=          18
          14          12          12          12          12          12
          12          12           1           1           1           1
           1           1           1           1           1           1
Real atomic weights                        R   N=          18
  1.40030740E+01  1.20000000E+01  1.20000000E+01  1.20000000E+01  1.20000000E+01
  1.20000000E+01  1.20000000E+01  1.20000000E+01  1.00782504E+00  1.00782504E+00
  1.00782504E+00  1.00782504E+00  1.00782504E+00  1.00782504E+00  1.00782504E+00
  1.00782504E+00  1.00782504E+00  1.00782504E+00
Atom fragment info                         I   N=          18
           0           0           0           0           0           0
           0           0           0           0           0           0
           0           0           0           0           0           0
Atom residue num                           I   N=          18
           0           0           0           0           0           0
           0           0           0           0           0           0
           0           0           0           0           0           0
Nuclear spins                              I   N=          18
           2           0           0           0           0           0
           0           0           1           1           1           1
           1           1           1           1           1           1
Nuclear ZEff                               R   N=          18
 -4.55000000E+00 -3.60000000E+00 -3.60000000E+00 -3.60000000E+00 -3.60000000E+00
 -3.60000000E+00 -3.60000000E+00 -3.60000000E+00 -1.00000000E+00 -1.00000000E+00
 -1.00000000E+00 -1.00000000E+00 -1.00000000E+00 -1.00000000E+00 -1.00000000E+00
 -1.00000000E+00 -1.00000000E+00 -1.00000000E+00
Nuclear QMom                               R   N=          18
  2.04400000E+00  0.00000000E+00  0.00000000E+00  0.00000000E+00  0.00000000E+00
  0.00000000E+00  0.00000000E+00  0.00000000E+00  0.00000000E+00  0.00000000E+00
  0.00000000E+00  0.00000000E+00  0.00000000E+00  0.00000000E+00  0.00000000E+00
  0.00000000E+00  0.00000000E+00  0.00000000E+00
Nuclear GFac                               R   N=          18
  4.03761000E-01  0.00000000E+00  0.00000000E+00  0.00000000E+00  0.00000000E+00
  0.00000000E+00  0.00000000E+00  0.00000000E+00  2.79284600E+00  2.79284600E+00
  2.79284600E+00  2.79284600E+00  2.79284600E+00  2.79284600E+00  2.79284600E+00
  2.79284600E+00  2.79284600E+00  2.79284600E+00
MicOpt                                     I   N=          18
          -1          -1          -1          -1          -1          -1
          -1          -1          -1          -1          -1          -1
          -1          -1          -1          -1          -1          -1
Number of contracted shells                I               52
Number of primitive shells                 I              128
Pure/Cartesian d shells                    I                1
Pure/Cartesian f shells                    I                0
Highest angular momentum                   I                2
Largest degree of contraction              I                6
Shell types                                I   N=          52
           0          -1          -1           2           0          -1
          -1           2           0          -1          -1           2
           0          -1          -1           2           0          -1
          -1           2           0          -1          -1           2
           0          -1          -1           2           0          -1
          -1           2           0           0           0           0
           0           0           0           0           0           0
           0           0           0           0           0           0
           0           0           0           0
Number of primitives per shell             I   N=          52
           6           3           1           1           6           3
           1           1           6           3           1           1
           6           3           1           1           6           3
           1           1           6           3           1           1
           6           3           1           1           6           3
           1           1           3           1           3           1
           3           1           3           1           3           1
           3           1           3           1           3           1
           3           1           3           1
Shell to atom map                          I   N=          52
           1           1           1           1           2           2
           2           2           3           3           3           3
           4           4           4           4           5           5
           5           5           6           6           6           6
           7           7           7           7           8           8
           8           8           9           9          10          10
          11          11          12          12          13          13
          14          14          15          15          16          16
          17          17          18          18
Primitive exponents                        R   N=         128
  4.17351146E+03  6.27457911E+02  1.42902093E+02  4.02343293E+01  1.28202129E+01
  4.39043701E+00  1.16263619E+01  2.71627981E+00  7.72218397E-01  2.12031498E-01
  8.00000000E-01  3.04752488E+03  4.57369518E+02  1.03948685E+02  2.92101553E+01
  9.28666296E+00  3.16392696E+00  7.86827235E+00  1.88128854E+00  5.44249258E-01
  1.68714478E-01  8.00000000E-01  3.04752488E+03  4.57369518E+02  1.03948685E+02
  2.92101553E+01  9.28666296E+00  3.16392696E+00  7.86827235E+00  1.88128854E+00
  5.44249258E-01  1.68714478E-01  8.00000000E-01  3.04752488E+03  4.57369518E+02
  1.03948685E+02  2.92101553E+01  9.28666296E+00  3.16392696E+00  7.86827235E+00
  1.88128854E+00  5.44249258E-01  1.68714478E-01  8.00000000E-01  3.04752488E+03
  4.57369518E+02  1.03948685E+02  2.92101553E+01  9.28666296E+00  3.16392696E+00
  7.86827235E+00  1.88128854E+00  5.44249258E-01  1.68714478E-01  8.00000000E-01
  3.04752488E+03  4.57369518E+02  1.03948685E+02  2.92101553E+01  9.28666296E+00
  3.16392696E+00  7.86827235E+00  1.88128854E+00  5.44249258E-01  1.68714478E-01
  8.00000000E-01  3.04752488E+03  4.57369518E+02  1.03948685E+02  2.92101553E+01
  9.28666296E+00  3.16392696E+00  7.86827235E+00  1.88128854E+00  5.44249258E-01
  1.68714478E-01  8.00000000E-01  3.04752488E+03  4.57369518E+02  1.03948685E+02
  2.92101553E+01  9.28666296E+00  3.16392696E+00  7.86827235E+00  1.88128854E+00
  5.44249258E-01  1.68714478E-01  8.00000000E-01  1.87311370E+01  2.82539436E+00
  6.40121692E-01  1.61277759E-01  1.87311370E+01  2.82539436E+00  6.40121692E-01
  1.61277759E-01  1.87311370E+01  2.82539436E+00  6.40121692E-01  1.61277759E-01
  1.87311370E+01  2.82539436E+00  6.40121692E-01  1.61277759E-01  1.87311370E+01
  2.82539436E+00  6.40121692E-01  1.61277759E-01  1.87311370E+01  2.82539436E+00
  6.40121692E-01  1.61277759E-01  1.87311370E+01  2.82539436E+00  6.40121692E-01
  1.61277759E-01  1.87311370E+01  2.82539436E+00  6.40121692E-01  1.61277759E-01
  1.87311370E+01  2.82539436E+00  6.40121692E-01  1.61277759E-01  1.87311370E+01
  2.82539436E+00  6.40121692E-01  1.61277759E-01
Contraction coefficients                   R   N=         128
  1.83477216E-03  1.39946270E-02  6.85865518E-02  2.32240873E-01  4.69069948E-01
  3.60455199E-01 -1.14961182E-01 -1.69117479E-01  1.14585195E+00  1.00000000E+00
  1.00000000E+00  1.83473713E-03  1.40373228E-02  6.88426223E-02  2.32184443E-01
  4.67941348E-01  3.62311985E-01 -1.19332420E-01 -1.60854152E-01  1.14345644E+00
  1.00000000E+00  1.00000000E+00  1.83473713E-03  1.40373228E-02  6.88426223E-02
  2.32184443E-01  4.67941348E-01  3.62311985E-01 -1.19332420E-01 -1.60854152E-01
  1.14345644E+00  1.00000000E+00  1.00000000E+00  1.83473713E-03  1.40373228E-02
  6.88426223E-02  2.32184443E-01  4.67941348E-01  3.62311985E-01 -1.19332420E-01
 -1.60854152E-01  1.14345644E+00  1.00000000E+00  1.00000000E+00  1.83473713E-03
  1.40373228E-02  6.88426223E-02  2.32184443E-01  4.67941348E-01  3.62311985E-01
 -1.19332420E-01 -1.60854152E-01  1.14345644E+00  1.00000000E+00  1.00000000E+00
  1.83473713E-03  1.40373228E-02  6.88426223E-02  2.32184443E-01  4.67941348E-01
  3.62311985E-01 -1.19332420E-01 -1.60854152E-01  1.14345644E+00  1.00000000E+00
  1.00000000E+00  1.83473713E-03  1.40373228E-02  6.88426223E-02  2.32184443E-01
  4.67941348E-01  3.62311985E-01 -1.19332420E-01 -1.60854152E-01  1.14345644E+00
  1.00000000E+00  1.00000000E+00  1.83473713E-03  1.40373228E-02  6.88426223E-02
  2.32184443E-01  4.67941348E-01  3.62311985E-01 -1.19332420E-01 -1.60854152E-01
  1.14345644E+00  1.00000000E+00  1.00000000E+00  3.34946043E-02  2.34726953E-01
  8.13757326E-01  1.00000000E+00  3.34946043E-02  2.34726953E-01  8.13757326E-01
  1.00000000E+00  3.34946043E-02  2.34726953E-01  8.13757326E-01  1.00000000E+00
  3.34946043E-02  2.34726953E-01  8.13757326E-01  1.00000000E+00  3.34946043E-02
  2.34726953E-01  8.13757326E-01  1.00000000E+00  3.34946043E-02  2.34726953E-01
  8.13757326E-01  1.00000000E+00  3.34946043E-02  2.34726953E-01  8.13757326E-01
  1.00000000E+00  3.34946043E-02  2.34726953E-01  8.13757326E-01  1.00000000E+00
  3.34946043E-02  2.34726953E-01  8.13757326E-01  1.00000000E+00  3.34946043E-02
  2.34726953E-01  8.13757326E-01  1.00000000E+00
P(S=P) Contraction coefficients            R   N=         128
  0.00000000E+00  0.00000000E+00  0.00000000E+00  0.00000000E+00  0.00000000E+00
  0.00000000E+00  6.75797439E-02  3.23907296E-01  7.40895140E-01  1.00000000E+00
  0.00000000E+00  0.00000000E+00  0.00000000E+00  0.00000000E+00  0.00000000E+00
  0.00000000E+00  0.00000000E+00  6.89990666E-02  3.16423961E-01  7.44308291E-01
  1.00000000E+00  0.00000000E+00  0.00000000E+00  0.00000000E+00  0.00000000E+00
  0.00000000E+00  0.00000000E+00  0.00000000E+00  6.89990666E-02  3.16423961E-01
  7.44308291E-01  1.00000000E+00  0.00000000E+00  0.00000000E+00  0.00000000E+00
  0.00000000E+00  0.00000000E+00  0.00000000E+00  0.00000000E+00  6.89990666E-02
  3.16423961E-01  7.44308291E-01  1.00000000E+00  0.00000000E+00  0.00000000E+00
  0.00000000E+00  0.00000000E+00  0.00000000E+00  0.00000000E+00  0.00000000E+00
  6.89990666E-02  3.16423961E-01  7.44308291E-01  1.00000000E+00  0.00000000E+00
  0.00000000E+00  0.00000000E+00  0.00000000E+00  0.00000000E+00  0.00000000E+00
  0.00000000E+00  6.89990666E-02  3.16423961E-01  7.44308291E-01  1.00000000E+00
  0.00000000E+00  0.00000000E+00  0.00000000E+00  0.00000000E+00  0.00000000E+00
  0.00000000E+00  0.00000000E+00  6.89990666E-02  3.16423961E-01  7.44308291E-01
  1.00000000E+00  0.00000000E+00  0.00000000E+00  0.00000000E+00  0.00000000E+00
  0.00000000E+00  0.00000000E+00  0.00000000E+00  6.89990666E-02  3.16423961E-01
  7.44308291E-01  1.00000000E+00  0.00000000E+00  0.00000000E+00  0.00000000E+00
  0.00000000E+00  0.00000000E+00  0.00000000E+00  0.00000000E+00  0.00000000E+00
  0.00000000E+00  0.00000000E+00  0.00000000E+00  0.00000000E+00  0.00000000E+00
  0.00000000E+00  0.00000000E+00  0.00000000E+00  0.00000000E+00  0.00000000E+00
  0.00000000E+00  0.00000000E+00  0.00000000E+00  0.00000000E+00  0.00000000E+00
  0.00000000E+00  0.00000000E+00  0.00000000E+00  0.00000000E+00  0.00000000E+00
  0.00000000E+00  0.00000000E+00  0.00000000E+00  0.00000000E+00  0.00000000E+00
  0.00000000E+00  0.00000000E+00  0.00000000E+00  0.00000000E+00  0.00000000E+00
  0.00000000E+00  0.00000000E+00  0.00000000E+00
Coordinates of each shell                  R   N=         156
 -4.58897989E+00 -1.85082892E+00 -1.57802475E-02 -4.58897989E+00 -1.85082892E+00
 -1.57802475E-02 -4.58897989E+00 -1.85082892E+00 -1.57802475E-02 -4.58897989E+00
 -1.85082892E+00 -1.57802475E-02 -2.17883484E+00 -4.41591736E-01  3.22762405E-02
 -2.17883484E+00 -4.41591736E-01  3.22762405E-02 -2.17883484E+00 -4.41591736E-01
  3.22762405E-02 -2.17883484E+00 -4.41591736E-01  3.22762405E-02  2.36556355E+00
 -5.14349483E-01 -2.70438209E-02  2.36556355E+00 -5.14349483E-01 -2.70438209E-02
  2.36556355E+00 -5.14349483E-01 -2.70438209E-02  2.36556355E+00 -5.14349483E-01
 -2.70438209E-02  6.15529152E-02 -1.81421469E+00 -3.56250276E-03  6.15529152E-02
 -1.81421469E+00 -3.56250276E-03  6.15529152E-02 -1.81421469E+00 -3.56250276E-03
  6.15529152E-02 -1.81421469E+00 -3.56250276E-03 -2.25380032E+00  2.18321342E+00
  2.35574977E-02 -2.25380032E+00  2.18321342E+00  2.35574977E-02 -2.25380032E+00
  2.18321342E+00  2.35574977E-02 -2.25380032E+00  2.18321342E+00  2.35574977E-02
  2.32549250E+00  2.13551679E+00 -2.56105804E-02  2.32549250E+00  2.13551679E+00
 -2.56105804E-02  2.32549250E+00  2.13551679E+00 -2.56105804E-02  2.32549250E+00
  2.13551679E+00 -2.56105804E-02  5.06421440E-02  3.46837709E+00  1.36448008E-03
  5.06421440E-02  3.46837709E+00  1.36448008E-03  5.06421440E-02  3.46837709E+00
  1.36448008E-03  5.06421440E-02  3.46837709E+00  1.36448008E-03  4.82908097E+00
 -1.93654442E+00  1.65520719E-02  4.82908097E+00 -1.93654442E+00  1.65520719E-02
  4.82908097E+00 -1.93654442E+00  1.65520719E-02  4.82908097E+00 -1.93654442E+00
  1.65520719E-02  3.27501290E-02 -3.87056728E+00 -1.25830015E-02  3.27501290E-02
 -3.87056728E+00 -1.25830015E-02 -4.03470776E+00  3.20622174E+00  3.68009154E-02
 -4.03470776E+00  3.20622174E+00  3.68009154E-02  4.10268360E+00  3.16842914E+00
 -4.88163268E-02  4.10268360E+00  3.16842914E+00 -4.88163268E-02  6.01915438E-02
  5.52105970E+00 -9.18349587E-04  6.01915438E-02  5.52105970E+00 -9.18349587E-04
 -6.02682714E+00 -8.61272149E-01  8.39112313E-01 -6.02682714E+00 -8.61272149E-01
  8.39112313E-01 -5.16606929E+00 -2.24077751E+00 -1.83165740E+00 -5.16606929E+00
 -2.24077751E+00 -1.83165740E+00 -4.44855855E+00 -3.55075790E+00  9.14546811E-01
 -4.44855855E+00 -3.55075790E+00  9.14546811E-01  4.59292842E+00 -3.85592725E+00
 -7.07474728E-01  4.59292842E+00 -3.85592725E+00 -7.07474728E-01  6.25152246E+00
 -9.74094564E-01 -1.13084220E+00  6.25152246E+00 -9.74094564E-01 -1.13084220E+00
  5.56076434E+00 -2.06895322E+00  1.94709338E+00  5.56076434E+00 -2.06895322E+00
  1.94709338E+00
Constraint Structure                       R   N=          54
 -4.58897989E+00 -1.85082892E+00 -1.57802475E-02 -2.17883484E+00 -4.41591736E-01
  3.22762405E-02  2.36556355E+00 -5.14349483E-01 -2.70438209E-02  6.15529152E-02
 -1.81421469E+00 -3.56250276E-03 -2.25380032E+00  2.18321342E+00  2.35574977E-02
  2.32549250E+00  2.13551679E+00 -2.56105804E-02  5.06421440E-02  3.46837709E+00
  1.36448008E-03  4.82908097E+00 -1.93654442E+00  1.65520719E-02  3.27501290E-02
 -3.87056728E+00 -1.25830015E-02 -4.03470776E+00  3.20622174E+00  3.68009154E-02
  4.10268360E+00  3.16842914E+00 -4.88163268E-02  6.01915438E-02  5.52105970E+00
 -9.18349587E-04 -6.02682714E+00 -8.61272149E-01  8.39112313E-01 -5.16606929E+00
 -2.24077751E+00 -1.83165740E+00 -4.44855855E+00 -3.55075790E+00  9.14546811E-01
  4.59292842E+00 -3.85592725E+00 -7.07474728E-01  6.25152246E+00 -9.74094564E-01
 -1.13084220E+00  5.56076434E+00 -2.06895322E+00  1.94709338E+00
Num ILSW                                   I              100
ILSW                                       I   N=         100
           0           1           0           0           2           0
           0           0           0           0           0          -1
           0           0           0           0           0           0
           0           0           0           0           1           0
           1           0           0           0           0           0
           0           0      100000           0          -1           0
           0           0           0           0           0           0
           0           0           0           1           1           0
           0           0           1           0           0           0
           0           0           4          40           0           0
           0           0           0           0           0           0
           0           0           0           0           0           0
           0           0           0           0           0           0
           0           0           0           0           0           0
           0           0           0           0           0           0
           0           0           0           0           0           0
           0           0           0           0
Num RLSW                                   I               40
RLSW                                       R   N=          40
  1.00000000E+00  1.00000000E+00  1.00000000E+00  1.00000000E+00  1.00000000E+00
  0.00000000E+00  0.00000000E+00  1.00000000E+00  0.00000000E+00  0.00000000E+00
  0.00000000E+00  0.00000000E+00  1.00000000E+00  0.00000000E+00  0.00000000E+00
  0.00000000E+00  0.00000000E+00  1.00000000E+00  0.00000000E+00  0.00000000E+00
  0.00000000E+00  0.00000000E+00  1.00000000E+00  0.00000000E+00  0.00000000E+00
  0.00000000E+00  0.00000000E+00  1.00000000E+00  0.00000000E+00  0.00000000E+00
  0.00000000E+00  0.00000000E+00  0.00000000E+00  0.00000000E+00  0.00000000E+00
  0.00000000E+00  0.00000000E+00  0.00000000E+00  1.00000000E+00  1.00000000E+00
MxBond                                     I                4
NBond                                      I   N=          18
           4           3           3           3           3           3
           3           4           1           1           1           1
           1           1           1           1           1           1
IBond                                      I   N=          72
           2          13          14          15           1           4
           5           0           4           6           8           0
           2           3           9           0           2           7
          10           0           3           7          11           0
           5           6          12           0           3          16
          17          18           4           0           0           0
           5           0           0           0           6           0
           0           0           7           0           0           0
           1           0           0           0           1           0
           0           0           1           0           0           0
           8           0           0           0           8           0
           0           0           8           0           0           0
RBond                                      R   N=          72
  1.00000000E+00  1.00000000E+00  1.00000000E+00  1.00000000E+00  1.00000000E+00
  1.50000000E+00  1.50000000E+00  0.00000000E+00  1.50000000E+00  1.50000000E+00
  1.00000000E+00  0.00000000E+00  1.50000000E+00  1.50000000E+00  1.00000000E+00
  0.00000000E+00  1.50000000E+00  1.50000000E+00  1.00000000E+00  0.00000000E+00
  1.50000000E+00  1.50000000E+00  1.00000000E+00  0.00000000E+00  1.50000000E+00
  1.50000000E+00  1.00000000E+00  0.00000000E+00  1.00000000E+00  1.00000000E+00
  1.00000000E+00  1.00000000E+00  1.00000000E+00  0.00000000E+00  0.00000000E+00
  0.00000000E+00  1.00000000E+00  0.00000000E+00  0.00000000E+00  0.00000000E+00
  1.00000000E+00  0.00000000E+00  0.00000000E+00  0.00000000E+00  1.00000000E+00
  0.00000000E+00  0.00000000E+00  0.00000000E+00  1.00000000E+00  0.00000000E+00
  0.00000000E+00  0.00000000E+00  1.00000000E+00  0.00000000E+00  0.00000000E+00
  0.00000000E+00  1.00000000E+00  0.00000000E+00  0.00000000E+00  0.00000000E+00
  1.00000000E+00  0.00000000E+00  0.00000000E+00  0.00000000E+00  1.00000000E+00
  0.00000000E+00  0.00000000E+00  0.00000000E+00  1.00000000E+00  0.00000000E+00
  0.00000000E+00  0.00000000E+00
Virial Ratio                               R      2.002516513505534E+00
SCF Energy                                 R     -3.252178679267223E+02
MP2 Energy                                 R     -3.262698819771184E+02
Total Energy                               R     -3.262698819771184E+02
Post-SCF wavefunction norm                 R      1.655721481329866E+00
RMS Force                                  R      6.380388091197404E-06
RMS Density                                R      8.414124261211022E-10
External E-field                           R   N=          35
  0.00000000E+00  0.00000000E+00  0.00000000E+00  0.00000000E+00  0.00000000E+00
  0.00000000E+00  0.00000000E+00  0.00000000E+00  0.00000000E+00  0.00000000E+00
  0.00000000E+00  0.00000000E+00  0.00000000E+00  0.00000000E+00  0.00000000E+00
  0.00000000E+00  0.00000000E+00  0.00000000E+00  0.00000000E+00  0.00000000E+00
  0.00000000E+00  0.00000000E+00  0.00000000E+00  0.00000000E+00  0.00000000E+00
  0.00000000E+00  0.00000000E+00  0.00000000E+00  0.00000000E+00  0.00000000E+00
  0.00000000E+00  0.00000000E+00  0.00000000E+00  0.00000000E+00  0.00000000E+00
IOpCl                                      I                0
IROHF                                      I                0
Alpha Orbital Energies                     R   N=         140
 -1.57236292E+01 -1.13206672E+01 -1.12677928E+01 -1.12666014E+01 -1.12651967E+01
 -1.12595439E+01 -1.12532439E+01 -1.12311256E+01 -1.34011072E+00 -1.17409498E+00
 -1.06666301E+00 -1.03506584E+00 -9.53540448E-01 -8.59743675E-01 -8.39699816E-01
 -7.80649605E-01 -7.65595680E-01 -7.27989685E-01 -6.87542977E-01 -6.52028796E-01
 -6.17204142E-01 -5.93364862E-01 -5.84549041E-01 -5.51953984E-01 -5.22503497E-01
 -5.14341875E-01 -5.11493053E-01 -3.63286862E-01 -3.48329553E-01  1.09704650E-01
  1.17373321E-01  1.73033352E-01  2.24701813E-01  2.37623950E-01  2.47143439E-01
  2.62713969E-01  2.85248784E-01  3.04132672E-01  3.16852746E-01  3.31057858E-01
  3.38238843E-01  3.67888298E-01  3.86807826E-01  4.00027160E-01  4.56425446E-01
  4.91702186E-01  4.97101996E-01  5.35285919E-01  5.92055370E-01  7.02484672E-01
  7.15770291E-01  7.31985889E-01  7.41539787E-01  7.54941816E-01  7.64506460E-01
  7.90492523E-01  7.93912585E-01  8.05227135E-01  8.16188237E-01  8.36825680E-01
  8.56078848E-01  8.76003344E-01  9.00053764E-01  9.35127240E-01  9.71760663E-01
  9.78235622E-01  1.00240565E+00  1.01838286E+00  1.05293851E+00  1.07065455E+00
  1.07524798E+00  1.07761208E+00  1.09317938E+00  1.10492898E+00  1.11530354E+00
  1.14046953E+00  1.15320097E+00  1.17160249E+00  1.19759468E+00  1.20411067E+00
  1.23317096E+00  1.26207891E+00  1.30966484E+00  1.34321993E+00  1.37772152E+00
  1.41228537E+00  1.42557924E+00  1.48361549E+00  1.56849260E+00  1.59798546E+00
  1.63274939E+00  1.64517749E+00  1.68813023E+00  1.71498166E+00  1.73376527E+00
  1.75022059E+00  1.89718976E+00  2.04093005E+00  2.05069109E+00  2.11582828E+00
  2.12471905E+00  2.13624596E+00  2.14545968E+00  2.16723555E+00  2.18471312E+00
  2.19352007E+00  2.25982317E+00  2.34888843E+00  2.37883696E+00  2.41881435E+00
  2.44618230E+00  2.46085193E+00  2.48173344E+00  2.55077813E+00  2.55480911E+00
  2.58514596E+00  2.64383731E+00  2.66430626E+00  2.68002715E+00  2.70262014E+00
  2.72322611E+00  2.75817902E+00  2.91248577E+00  2.92424564E+00  2.98221496E+00
  3.05783784E+00  3.07053172E+00  3.15886781E+00  3.16293107E+00  3.22219849E+00
  3.42909862E+00  3.76270889E+00  4.17515007E+00  4.48754983E+00  4.51556051E+00
  4.52249110E+00  4.64866447E+00  4.74256605E+00  4.80128188E+00  5.11092523E+00
Alpha MO coefficients                      R   N=       19600
  9.94951601E-01  2.53869319E-02 -2.18709779E-05 -1.43139515E-05  8.54920289E-06
 -3.22476740E-03 -7.32754829E-04 -4.34591404E-04 -6.48204562E-05 -3.56099837E-03
 -3.47251706E-03 -3.43328520E-03 -9.23587536E-05 -1.22727353E-06 -6.77810601E-07
  9.07975419E-06  1.93310577E-04 -1.66564243E-04 -9.99286962E-05 -4.79416019E-06
  5.87126617E-04 -1.86213489E-03 -1.05492775E-03  2.89523139E-06  2.84429360E-05
 -1.12302601E-05 -6.59133286E-05  4.28190301E-05  2.99742140E-06  1.87404148E-06
 -5.42805146E-06 -2.01059626E-05  3.53083847E-05 -7.74126787E-06 -3.21607529E-06
 -3.55814154E-04 -1.78991839E-04  1.35327825E-04  1.04454144E-05 -1.38024943E-06
  2.90013497E-06 -1.97520494E-05  1.44469754E-05 -1.56249760E-06  5.55490351E-07
 -8.17466065E-06 -3.38447854E-05  2.18094478E-05  3.44126982E-06  3.23127524E-06
  5.58364473E-04  8.02744399E-05  6.20716923E-04 -6.74019896E-06 -5.62634886E-05
  2.98652151E-05 -3.64458766E-05 -2.82960039E-05  6.72158550E-07  2.54036814E-06
 -7.89165953E-06 -3.11883272E-05  1.38303383E-05  1.55845362E-05  3.07176117E-06
  5.59700843E-04  6.37162106E-04 -2.41751366E-04 -1.28194096E-05 -8.94109003E-06
 -1.86784386E-05 -3.58311904E-05 -5.88412902E-05  1.72062635E-06  2.80343877E-08
 -4.22184581E-06 -1.47109481E-05  1.62702463E-05  9.55321905E-06 -2.26673237E-07
  7.83614839E-06  7.01750774E-06 -6.07943485E-06 -5.04357818E-06 -5.73735910E-06
 -3.46529662E-06 -1.39507899E-05 -7.24416439E-06 -2.80072578E-08  2.02374745E-07
 -8.31456390E-06 -3.58121475E-05  1.32685464E-05  2.47750432E-05 -2.47562228E-06
 -2.37155437E-04  3.82993090E-05 -4.53010234E-05  9.49921282E-06  5.69397280E-06
 -2.76122280E-06 -2.63165265E-05  5.69407619E-06 -4.42300018E-07 -1.28420301E-06
 -6.33521262E-06 -3.41144214E-05 -6.71214317E-06  6.32004423E-06  1.39567915E-07
  3.01524987E-04 -1.18957679E-04  6.00945719E-05 -6.52802005E-06  2.37499234E-06
 -4.86512429E-06 -1.05493205E-05 -8.42482905E-06  1.13112506E-06 -1.76905893E-07
  2.00854168E-05  1.97429216E-04  2.50283597E-05  2.21847289E-04 -9.42511489E-07
  5.08304240E-06  8.22047649E-06  6.95328237E-05  3.67039092E-04  3.09088653E-04
  3.60539406E-04  2.48261573E-04  3.67596486E-04  3.04157550E-04 -1.26018135E-05
 -5.23430261E-06 -9.48827456E-06 -6.14640567E-06 -8.21075663E-06 -8.81584133E-06
 -1.23451775E-04  4.98817341E-04 -2.45274277E-05 -1.90643145E-05 -5.08356358E-05
 -2.30040865E-04 -2.50422158E-04 -1.26203724E-04  2.26730402E-04 -5.83783436E-04
 -1.49641215E-04  2.04320652E-04 -4.47006178E-04 -2.70241449E-05 -1.67554910E-05
  9.95585969E-01  2.74248081E-02 -8.71472638E-04 -5.20021325E-04 -5.50935282E-05
 -1.52063679E-02 -2.77541693E-03 -1.56634126E-03  9.13394798E-05 -1.60255280E-03
 -1.49903043E-03 -2.17869349E-03 -8.62959156E-05  1.83794782E-05  1.59156817E-05
  9.10437526E-05  4.04563480E-05 -1.36922495E-05 -7.21007795E-06 -2.04209718E-07
 -2.84561801E-03  1.43514981E-03 -7.48047941E-04 -2.30879327E-05  1.21383830E-04
  4.01135899E-05  3.33659277E-05  3.60688622E-05 -3.62011486E-06  1.03579715E-06
  1.05425563E-02 -1.01255613E-04  1.18295463E-04 -9.47784695E-05 -3.97646796E-06
  6.75630407E-03 -1.46236422E-03  3.03124127E-03  1.58408720E-05 -4.28103878E-04
 -2.35925395E-04 -1.96598532E-04 -3.28066045E-05  7.13485659E-06 -1.73356668E-06