
    -----------------------------------------------------------------------
          Psi4: An Open-Source Ab Initio Electronic Structure Package
                               Psi4 1.4a3.dev225 

                         Git: Rev {master} 7105e37 


    D. G. A. Smith, L. A. Burns, A. C. Simmonett, R. M. Parrish,
    M. C. Schieber, R. Galvelis, P. Kraus, H. Kruse, R. Di Remigio,
    A. Alenaizan, A. M. James, S. Lehtola, J. P. Misiewicz, M. Scheurer,
    R. A. Shaw, J. B. Schriber, Y. Xie, Z. L. Glick, D. A. Sirianni,
    J. S. O'Brien, J. M. Waldrop, A. Kumar, E. G. Hohenstein,
    B. P. Pritchard, B. R. Brooks, H. F. Schaefer III, A. Yu. Sokolov,
    K. Patkowski, A. E. DePrince III, U. Bozkaya, R. A. King,
    F. A. Evangelista, J. M. Turney, T. D. Crawford, C. D. Sherrill,
    J. Chem. Phys. 152(18) 184108 (2020). https://doi.org/10.1063/5.0006002

                            Additional Code Authors
    E. T. Seidl, C. L. Janssen, E. F. Valeev, M. L. Leininger,
    J. F. Gonthier, R. M. Richard, H. R. McAlexander, M. Saitow, X. Wang,
    P. Verma, and M. H. Lechner

             Previous Authors, Complete List of Code Contributors,
                       and Citations for Specific Modules
    https://github.com/psi4/psi4/blob/master/codemeta.json
    https://github.com/psi4/psi4/graphs/contributors
    http://psicode.org/psi4manual/master/introduction.html#citing-psifour

    -----------------------------------------------------------------------


    Psi4 started on: Sunday, 07 March 2021 07:49PM

    Process ID: 41491
    Host:       c419-053.stampede2.tacc.utexas.edu
    PSIDATADIR: /home1/07844/xy3866/miniconda3/envs/p4env/share/psi4
    Memory:     500.0 MiB
    Threads:    32
    
  ==> Input File <==

--------------------------------------------------------------------------
#psi4
#
memory 32 gb

molecule  {
0 1
  O        2.2381840    -1.1587810    -0.1175950
  O        2.2381840     1.1587830    -0.1175780
  C       -1.4506090    -0.7058110    -0.0005310
  C       -1.4506100     0.7058110    -0.0005190
  C        0.9370840    -0.6945160    -0.0405820
  C        0.9370830     0.6945180    -0.0405590
  C       -0.2384000    -1.4209720    -0.0261700
  C       -0.2384020     1.4209720    -0.0261890
  C        3.0186620    -0.0000010     0.2058680
  C       -2.7532520    -1.4635880     0.0322900
  C       -2.7532530     1.4635870     0.0322790
  H       -0.2243070    -2.5079120    -0.0340590
  H       -0.2243080     2.5079120    -0.0340480
  H        3.2578704    -0.0000108     1.3812071
  H        3.9284370     0.0000040    -0.3938210
  H       -2.5724980    -2.5416060     0.0194510
  H       -3.3330080    -1.2312860     0.9325220
  H       -3.3837460    -1.2187210    -0.8295640
  H       -3.3329960     1.2313300     0.9325330
  H       -2.5725010     2.5416050     0.0193840
  H       -3.3837580     1.2186740    -0.8295530
units angstrom
no_reorient  #important for SAPT in psi4, default
symmetry c1  #important for SAPT in psi4, default
}

set PROPERTIES_ORIGIN ["COM"]
properties('MP2/aug-cc-pvtz', properties = ['dipole'])
--------------------------------------------------------------------------

  Memory set to  29.802 GiB by Python driver.
    SCF Algorithm Type (re)set to DF.

*** tstart() called on c419-053.stampede2.tacc.utexas.edu
*** at Sun Mar  7 19:49:48 2021

   => Loading Basis Set <=

    Name: AUG-CC-PVTZ
    Role: ORBITAL
    Keyword: BASIS
    atoms 1-2   entry O          line   331 file /home1/07844/xy3866/miniconda3/envs/p4env/share/psi4/basis/aug-cc-pvtz.gbs 
    atoms 3-11  entry C          line   239 file /home1/07844/xy3866/miniconda3/envs/p4env/share/psi4/basis/aug-cc-pvtz.gbs 
    atoms 12-21 entry H          line    40 file /home1/07844/xy3866/miniconda3/envs/p4env/share/psi4/basis/aug-cc-pvtz.gbs 


         ---------------------------------------------------------
                                   SCF
               by Justin Turney, Rob Parrish, Andy Simmonett
                          and Daniel G. A. Smith
                              RHF Reference
                       32 Threads,  30517 MiB Core
         ---------------------------------------------------------

  ==> Geometry <==

    Molecular point group: c1
    Full point group: C1

    Geometry (in Angstrom), charge = 0, multiplicity = 1:

       Center              X                  Y                   Z               Mass       
    ------------   -----------------  -----------------  -----------------  -----------------
         O            2.159784312043    -1.158781140638    -0.111212781920    15.994914619570
         O            2.159784312043     1.158782859362    -0.111195781920    15.994914619570
         C           -1.529008687957    -0.705811140638     0.005851218080    12.000000000000
         C           -1.529009687957     0.705810859362     0.005863218080    12.000000000000
         C            0.858684312043    -0.694516140638    -0.034199781920    12.000000000000
         C            0.858683312043     0.694517859362    -0.034176781920    12.000000000000
         C           -0.316799687957    -1.420972140638    -0.019787781920    12.000000000000
         C           -0.316801687957     1.420971859362    -0.019806781920    12.000000000000
         C            2.940262312043    -0.000001140638     0.212250218080    12.000000000000
         C           -2.831651687957    -1.463588140638     0.038672218080    12.000000000000
         C           -2.831652687957     1.463586859362     0.038661218080    12.000000000000
         H           -0.302706687957    -2.507912140638    -0.027676781920     1.007825032230
         H           -0.302707687957     2.507911859362    -0.027665781920     1.007825032230
         H            3.179470712043    -0.000010940638     1.387589318080     1.007825032230
         H            3.850037312043     0.000003859362    -0.387438781920     1.007825032230
         H           -2.650897687957    -2.541606140638     0.025833218080     1.007825032230
         H           -3.411407687957    -1.231286140638     0.938904218080     1.007825032230
         H           -3.462145687957    -1.218721140638    -0.823181781920     1.007825032230
         H           -3.411395687957     1.231329859362     0.938915218080     1.007825032230
         H           -2.650900687957     2.541604859362     0.025766218080     1.007825032230
         H           -3.462157687957     1.218673859362    -0.823170781920     1.007825032230

  Running in c1 symmetry.

  Rotational constants: A =      0.08249  B =      0.02741  C =      0.02089 [cm^-1]
  Rotational constants: A =   2473.10780  B =    821.81152  C =    626.38471 [MHz]
  Nuclear repulsion =  600.789504541899987

  Charge       = 0
  Multiplicity = 1
  Electrons    = 80
  Nalpha       = 40
  Nbeta        = 40

  ==> Algorithm <==

  SCF Algorithm Type is DF.
  DIIS enabled.
  MOM disabled.
  Fractional occupation disabled.
  Guess Type is SAD.
  Energy threshold   = 1.00e-10
  Density threshold  = 1.00e-10
  Integral threshold = 1.00e-12

  ==> Primary Basis <==

  Basis Set: AUG-CC-PVTZ
    Blend: AUG-CC-PVTZ
    Number of shells: 244
    Number of basis functions: 736
    Number of Cartesian functions: 855
    Spherical Harmonics?: true
    Max angular momentum: 3

   => Loading Basis Set <=

    Name: (AUG-CC-PVTZ AUX)
    Role: JKFIT
    Keyword: DF_BASIS_SCF
    atoms 1-2   entry O          line   286 file /home1/07844/xy3866/miniconda3/envs/p4env/share/psi4/basis/aug-cc-pvtz-jkfit.gbs 
    atoms 3-11  entry C          line   162 file /home1/07844/xy3866/miniconda3/envs/p4env/share/psi4/basis/aug-cc-pvtz-jkfit.gbs 
    atoms 12-21 entry H          line    70 file /home1/07844/xy3866/miniconda3/envs/p4env/share/psi4/basis/aug-cc-pvtz-jkfit.gbs 

  ==> Integral Setup <==

  DFHelper Memory: AOs need 5.959 GiB; user supplied 22.352 GiB. Using in-core AOs.

  ==> MemDFJK: Density-Fitted J/K Matrices <==

    J tasked:                   Yes
    K tasked:                   Yes
    wK tasked:                   No
    OpenMP threads:              32
    Memory [MiB]:             22888
    Algorithm:                 Core
    Schwarz Cutoff:           1E-12
    Mask sparsity (%):      11.9285
    Fitting Condition:        1E-10

   => Auxiliary Basis Set <=

  Basis Set: (AUG-CC-PVTZ AUX)
    Blend: AUG-CC-PVTZ-JKFIT
    Number of shells: 470
    Number of basis functions: 1604
    Number of Cartesian functions: 1991
    Spherical Harmonics?: true
    Max angular momentum: 4

  Minimum eigenvalue in the overlap matrix is 3.2129696536E-07.
  Reciprocal condition number of the overlap matrix is 1.5940080363E-08.
    Using symmetric orthogonalization.

  ==> Pre-Iterations <==

  SCF Guess: Superposition of Atomic Densities via on-the-fly atomic UHF (no occupation information).

   -------------------------
    Irrep   Nso     Nmo    
   -------------------------
     A        736     736 
   -------------------------
    Total     736     736
   -------------------------

  ==> Iterations <==

                           Total Energy        Delta E     RMS |[F,P]|

   @DF-RHF iter SAD:  -496.12373412373131   -4.96124e+02   0.00000e+00 
   @DF-RHF iter   1:  -496.20005951635875   -7.63254e-02   9.64686e-04 DIIS
   @DF-RHF iter   2:  -496.44730607815245   -2.47247e-01   4.53015e-04 DIIS
   @DF-RHF iter   3:  -496.50134868853996   -5.40426e-02   1.20878e-04 DIIS
   @DF-RHF iter   4:  -496.50638622621852   -5.03754e-03   5.37292e-05 DIIS
   @DF-RHF iter   5:  -496.50730414597905   -9.17920e-04   7.83012e-06 DIIS
   @DF-RHF iter   6:  -496.50733671303863   -3.25671e-05   3.16655e-06 DIIS
   @DF-RHF iter   7:  -496.50734185007775   -5.13704e-06   9.27152e-07 DIIS
   @DF-RHF iter   8:  -496.50734265234513   -8.02267e-07   3.53007e-07 DIIS
   @DF-RHF iter   9:  -496.50734280297729   -1.50632e-07   1.54115e-07 DIIS
   @DF-RHF iter  10:  -496.50734283323635   -3.02591e-08   7.29287e-08 DIIS
   @DF-RHF iter  11:  -496.50734284316127   -9.92492e-09   2.72349e-08 DIIS
   @DF-RHF iter  12:  -496.50734284458332   -1.42205e-09   8.26955e-09 DIIS
   @DF-RHF iter  13:  -496.50734284465807   -7.47491e-11   2.55999e-09 DIIS
   @DF-RHF iter  14:  -496.50734284466608   -8.01492e-12   6.08471e-10 DIIS
   @DF-RHF iter  15:  -496.50734284466586    2.27374e-13   2.10276e-10 DIIS
   @DF-RHF iter  16:  -496.50734284466546    3.97904e-13   7.71561e-11 DIIS
  Energy and wave function converged.


  ==> Post-Iterations <==

    Orbital Energies [Eh]
    ---------------------

    Doubly Occupied:                                                      

       1A    -20.598334     2A    -20.598313     3A    -11.363600  
       4A    -11.292877     5A    -11.291605     6A    -11.242890  
       7A    -11.241793     8A    -11.238923     9A    -11.238903  
      10A    -11.225698    11A    -11.225691    12A     -1.468288  
      13A     -1.366201    14A     -1.158971    15A     -1.053080  
      16A     -1.038889    17A     -0.952884    18A     -0.939108  
      19A     -0.878799    20A     -0.837519    21A     -0.796531  
      22A     -0.716169    23A     -0.703039    24A     -0.675938  
      25A     -0.648601    26A     -0.615658    27A     -0.609605  
      28A     -0.595519    29A     -0.574917    30A     -0.565457  
      31A     -0.551909    32A     -0.541554    33A     -0.536451  
      34A     -0.532988    35A     -0.524055    36A     -0.501384  
      37A     -0.491913    38A     -0.439095    39A     -0.334923  
      40A     -0.293854  

    Virtual:                                                              

      41A      0.028893    42A      0.032052    43A      0.032813  
      44A      0.042721    45A      0.045011    46A      0.047813  
      47A      0.050676    48A      0.061860    49A      0.063897  
      50A      0.073406    51A      0.082975    52A      0.092621  
      53A      0.094938    54A      0.098180    55A      0.109622  
      56A      0.110152    57A      0.111720    58A      0.116375  
      59A      0.126308    60A      0.131720    61A      0.132615  
      62A      0.134486    63A      0.137535    64A      0.137733  
      65A      0.141015    66A      0.143536    67A      0.150555  
      68A      0.150891    69A      0.156195    70A      0.157199  
      71A      0.164700    72A      0.168456    73A      0.171585  
      74A      0.174181    75A      0.182562    76A      0.187702  
      77A      0.192669    78A      0.194042    79A      0.207304  
      80A      0.211792    81A      0.213958    82A      0.215043  
      83A      0.216828    84A      0.226304    85A      0.239547  
      86A      0.245725    87A      0.253812    88A      0.259777  
      89A      0.263305    90A      0.263664    91A      0.267877  
      92A      0.269564    93A      0.271682    94A      0.278906  
      95A      0.297348    96A      0.298232    97A      0.298409  
      98A      0.304520    99A      0.313216   100A      0.324494  
     101A      0.327503   102A      0.328322   103A      0.331454  
     104A      0.332598   105A      0.336894   106A      0.346553  
     107A      0.348915   108A      0.352923   109A      0.359422  
     110A      0.360878   111A      0.366366   112A      0.375410  
     113A      0.378431   114A      0.383370   115A      0.386719  
     116A      0.388962   117A      0.393923   118A      0.396473  
     119A      0.401344   120A      0.403456   121A      0.404655  
     122A      0.415185   123A      0.416617   124A      0.419543  
     125A      0.421725   126A      0.426510   127A      0.430779  
     128A      0.435971   129A      0.439610   130A      0.448066  
     131A      0.452001   132A      0.462274   133A      0.462288  
     134A      0.468416   135A      0.469079   136A      0.475426  
     137A      0.479362   138A      0.479470   139A      0.481468  
     140A      0.486568   141A      0.490372   142A      0.491916  
     143A      0.493769   144A      0.497897   145A      0.505909  
     146A      0.506824   147A      0.512165   148A      0.517631  
     149A      0.519423   150A      0.528033   151A      0.528388  
     152A      0.537440   153A      0.540607   154A      0.542083  
     155A      0.544041   156A      0.552563   157A      0.563225  
     158A      0.564632   159A      0.566533   160A      0.569481  
     161A      0.580055   162A      0.582922   163A      0.588291  
     164A      0.589403   165A      0.591189   166A      0.599523  
     167A      0.605211   168A      0.614662   169A      0.617498  
     170A      0.623536   171A      0.632201   172A      0.644769  
     173A      0.665720   174A      0.667805   175A      0.672984  
     176A      0.675370   177A      0.684994   178A      0.686560  
     179A      0.697415   180A      0.700586   181A      0.714678  
     182A      0.718012   183A      0.729164   184A      0.734849  
     185A      0.739441   186A      0.746007   187A      0.752263  
     188A      0.762405   189A      0.765346   190A      0.766706  
     191A      0.783323   192A      0.791085   193A      0.796052  
     194A      0.804252   195A      0.814187   196A      0.819715  
     197A      0.832979   198A      0.833454   199A      0.837033  
     200A      0.843905   201A      0.849881   202A      0.850044  
     203A      0.856445   204A      0.859852   205A      0.863267  
     206A      0.867310   207A      0.879455   208A      0.884250  
     209A      0.896571   210A      0.901583   211A      0.905826  
     212A      0.909174   213A      0.914186   214A      0.916320  
     215A      0.924864   216A      0.930411   217A      0.938863  
     218A      0.941539   219A      0.949357   220A      0.950022  
     221A      0.955781   222A      0.957167   223A      0.957745  
     224A      0.972798   225A      0.974015   226A      0.978353  
     227A      0.984254   228A      0.984792   229A      0.986998  
     230A      0.998124   231A      1.001514   232A      1.008507  
     233A      1.010909   234A      1.021037   235A      1.026600  
     236A      1.027799   237A      1.029938   238A      1.039455  
     239A      1.045332   240A      1.049357   241A      1.053525  
     242A      1.061183   243A      1.068479   244A      1.081169  
     245A      1.082480   246A      1.083910   247A      1.086289  
     248A      1.090952   249A      1.094444   250A      1.096924  
     251A      1.103343   252A      1.109771   253A      1.110968  
     254A      1.116948   255A      1.124756   256A      1.126319  
     257A      1.135385   258A      1.148182   259A      1.152232  
     260A      1.162150   261A      1.166418   262A      1.170450  
     263A      1.177004   264A      1.181083   265A      1.181519  
     266A      1.184297   267A      1.190093   268A      1.197916  
     269A      1.203548   270A      1.211101   271A      1.213407  
     272A      1.220385   273A      1.224716   274A      1.237916  
     275A      1.240825   276A      1.243618   277A      1.256481  
     278A      1.256867   279A      1.270007   280A      1.271269  
     281A      1.282019   282A      1.282227   283A      1.303069  
     284A      1.314968   285A      1.315889   286A      1.331648  
     287A      1.333430   288A      1.337154   289A      1.346741  
     290A      1.363195   291A      1.367930   292A      1.379906  
     293A      1.390243   294A      1.397279   295A      1.406682  
     296A      1.415166   297A      1.417796   298A      1.430254  
     299A      1.433405   300A      1.436426   301A      1.448313  
     302A      1.450295   303A      1.461201   304A      1.461945  
     305A      1.481510   306A      1.484224   307A      1.488154  
     308A      1.491104   309A      1.501616   310A      1.517531  
     311A      1.518013   312A      1.530591   313A      1.540867  
     314A      1.541965   315A      1.547198   316A      1.560148  
     317A      1.568941   318A      1.572631   319A      1.587591  
     320A      1.595342   321A      1.597614   322A      1.608969  
     323A      1.615713   324A      1.621477   325A      1.628037  
     326A      1.630489   327A      1.650505   328A      1.657020  
     329A      1.663482   330A      1.670034   331A      1.675890  
     332A      1.680091   333A      1.687498   334A      1.690616  
     335A      1.694454   336A      1.701215   337A      1.716091  
     338A      1.724131   339A      1.726772   340A      1.735113  
     341A      1.750776   342A      1.758952   343A      1.765707  
     344A      1.772766   345A      1.789255   346A      1.795180  
     347A      1.800785   348A      1.801670   349A      1.803851  
     350A      1.822089   351A      1.823555   352A      1.830170  
     353A      1.834807   354A      1.850533   355A      1.857515  
     356A      1.862610   357A      1.864282   358A      1.874005  
     359A      1.896628   360A      1.905719   361A      1.906308  
     362A      1.909845   363A      1.919960   364A      1.932823  
     365A      1.941834   366A      1.950290   367A      1.960548  
     368A      1.965771   369A      1.967917   370A      1.968175  
     371A      1.981868   372A      1.983093   373A      1.988513  
     374A      1.995784   375A      2.008314   376A      2.024276  
     377A      2.029045   378A      2.037400   379A      2.039542  
     380A      2.061856   381A      2.064607   382A      2.078349  
     383A      2.082486   384A      2.103187   385A      2.113315  
     386A      2.126308   387A      2.138476   388A      2.141540  
     389A      2.179854   390A      2.182583   391A      2.187426  
     392A      2.190392   393A      2.197696   394A      2.209688  
     395A      2.219545   396A      2.227846   397A      2.229194  
     398A      2.229883   399A      2.240510   400A      2.253920  
     401A      2.258367   402A      2.259919   403A      2.269882  
     404A      2.290351   405A      2.290791   406A      2.303986  
     407A      2.317722   408A      2.323530   409A      2.333744  
     410A      2.340751   411A      2.341376   412A      2.365188  
     413A      2.372527   414A      2.376814   415A      2.388952  
     416A      2.404620   417A      2.411318   418A      2.433424  
     419A      2.454120   420A      2.455453   421A      2.479111  
     422A      2.497522   423A      2.508548   424A      2.516209  
     425A      2.524435   426A      2.539457   427A      2.546207  
     428A      2.552261   429A      2.611538   430A      2.612568  
     431A      2.642879   432A      2.651675   433A      2.662345  
     434A      2.679954   435A      2.700450   436A      2.702198  
     437A      2.717683   438A      2.724124   439A      2.754001  
     440A      2.756384   441A      2.775406   442A      2.802849  
     443A      2.808635   444A      2.831359   445A      2.844753  
     446A      2.868549   447A      2.882860   448A      2.895900  
     449A      2.966040   450A      2.972895   451A      2.987616  
     452A      2.994208   453A      3.044768   454A      3.047858  
     455A      3.050232   456A      3.062735   457A      3.080288  
     458A      3.112653   459A      3.133149   460A      3.155003  
     461A      3.171434   462A      3.227539   463A      3.247679  
     464A      3.266010   465A      3.268773   466A      3.297455  
     467A      3.307057   468A      3.334503   469A      3.354178  
     470A      3.362355   471A      3.375094   472A      3.383499  
     473A      3.401052   474A      3.409304   475A      3.416297  
     476A      3.436986   477A      3.446121   478A      3.457985  
     479A      3.458942   480A      3.468444   481A      3.474675  
     482A      3.502451   483A      3.511358   484A      3.514132  
     485A      3.538058   486A      3.540817   487A      3.549440  
     488A      3.557246   489A      3.562036   490A      3.566670  
     491A      3.589491   492A      3.599763   493A      3.612699  
     494A      3.625104   495A      3.628981   496A      3.632826  
     497A      3.643301   498A      3.669733   499A      3.681495  
     500A      3.684931   501A      3.703137   502A      3.704032  
     503A      3.710805   504A      3.715114   505A      3.727782  
     506A      3.728251   507A      3.741628   508A      3.745349  
     509A      3.760409   510A      3.769185   511A      3.776867  
     512A      3.784820   513A      3.812412   514A      3.815261  
     515A      3.827400   516A      3.829300   517A      3.844996  
     518A      3.848918   519A      3.856383   520A      3.864770  
     521A      3.871602   522A      3.888438   523A      3.889848  
     524A      3.900897   525A      3.908678   526A      3.920823  
     527A      3.927554   528A      3.939429   529A      3.949323  
     530A      3.959360   531A      3.968728   532A      3.997422  
     533A      4.005072   534A      4.009517   535A      4.021966  
     536A      4.028972   537A      4.029190   538A      4.037710  
     539A      4.043734   540A      4.059090   541A      4.084346  
     542A      4.092401   543A      4.094048   544A      4.112581  
     545A      4.117561   546A      4.141205   547A      4.145869  
     548A      4.157920   549A      4.158209   550A      4.168187  
     551A      4.185841   552A      4.194064   553A      4.199664  
     554A      4.209567   555A      4.215023   556A      4.219599  
     557A      4.249061   558A      4.250385   559A      4.257534  
     560A      4.264077   561A      4.273298   562A      4.274087  
     563A      4.283943   564A      4.299975   565A      4.300517  
     566A      4.327275   567A      4.329606   568A      4.335782  
     569A      4.339427   570A      4.354634   571A      4.358978  
     572A      4.363151   573A      4.371388   574A      4.381467  
     575A      4.403153   576A      4.424857   577A      4.429322  
     578A      4.434335   579A      4.460491   580A      4.462521  
     581A      4.472260   582A      4.476277   583A      4.481631  
     584A      4.495731   585A      4.515204   586A      4.524104  
     587A      4.544272   588A      4.566464   589A      4.577621  
     590A      4.581781   591A      4.589379   592A      4.607329  
     593A      4.615983   594A      4.625490   595A      4.654174  
     596A      4.655695   597A      4.679977   598A      4.683765  
     599A      4.692766   600A      4.704646   601A      4.713241  
     602A      4.720316   603A      4.734682   604A      4.765369  
     605A      4.783037   606A      4.788296   607A      4.801831  
     608A      4.805810   609A      4.827245   610A      4.839681  
     611A      4.844099   612A      4.863403   613A      4.872218  
     614A      4.872604   615A      4.880825   616A      4.896775  
     617A      4.904353   618A      4.918953   619A      4.930924  
     620A      4.953083   621A      4.972911   622A      4.979406  
     623A      5.000942   624A      5.016793   625A      5.022418  
     626A      5.038528   627A      5.052936   628A      5.062503  
     629A      5.069911   630A      5.094279   631A      5.126233  
     632A      5.132861   633A      5.137080   634A      5.179893  
     635A      5.189150   636A      5.214355   637A      5.222388  
     638A      5.228618   639A      5.243506   640A      5.256540  
     641A      5.258809   642A      5.276560   643A      5.295007  
     644A      5.307396   645A      5.320932   646A      5.326184  
     647A      5.350702   648A      5.369172   649A      5.373296  
     650A      5.399552   651A      5.411514   652A      5.420276  
     653A      5.430024   654A      5.464293   655A      5.492478  
     656A      5.530733   657A      5.556796   658A      5.570000  
     659A      5.594521   660A      5.601198   661A      5.613820  
     662A      5.674295   663A      5.679655   664A      5.695847  
     665A      5.719709   666A      5.739251   667A      5.749474  
     668A      5.819504   669A      5.833236   670A      5.841531  
     671A      5.853866   672A      5.928789   673A      5.948359  
     674A      6.006276   675A      6.029344   676A      6.104244  
     677A      6.123932   678A      6.130654   679A      6.136805  
     680A      6.178255   681A      6.203855   682A      6.249029  
     683A      6.263238   684A      6.275796   685A      6.372738  
     686A      6.382346   687A      6.406629   688A      6.407319  
     689A      6.535361   690A      6.539363   691A      6.616394  
     692A      6.641387   693A      6.675042   694A      6.727771  
     695A      6.752985   696A      6.811352   697A      6.823161  
     698A      6.823589   699A      6.884134   700A      6.922871  
     701A      6.969531   702A      7.014313   703A      7.028269  
     704A      7.099363   705A      7.102525   706A      7.145200  
     707A      7.157985   708A      7.190893   709A      7.222310  
     710A      7.347610   711A      7.404044   712A      7.448354  
     713A      7.495255   714A      7.512987   715A      7.575043  
     716A      7.614478   717A      7.771906   718A      7.785348  
     719A      7.921240   720A      7.921949   721A      8.002521  
     722A      8.282709   723A      8.314883   724A      8.409480  
     725A      8.540659   726A     15.208872   727A     15.981510  
     728A     16.645984   729A     17.321779   730A     17.741524  
     731A     17.870098   732A     19.461563   733A     19.557912  
     734A     20.230759   735A     20.370401   736A     21.856796  

    Final Occupation by Irrep:
              A 
    DOCC [    40 ]

  @DF-RHF Final Energy:  -496.50734284466546

   => Energetics <=

    Nuclear Repulsion Energy =            600.7895045418999871
    One-Electron Energy =               -1867.5898413171935317
    Two-Electron Energy =                 770.2929939306280858
    Total Energy =                       -496.5073428446654589

Computation Completed

*** tstop() called on c419-053.stampede2.tacc.utexas.edu at Sun Mar  7 19:50:31 2021
Module time:
	user time   =     798.96 seconds =      13.32 minutes
	system time =      49.90 seconds =       0.83 minutes
	total time  =         43 seconds =       0.72 minutes
Total time:
	user time   =     798.96 seconds =      13.32 minutes
	system time =      49.90 seconds =       0.83 minutes
	total time  =         43 seconds =       0.72 minutes
   => Loading Basis Set <=

    Name: (AUG-CC-PVTZ AUX)
    Role: RIFIT
    Keyword: DF_BASIS_MP2
    atoms 1-2   entry O          line   264 file /home1/07844/xy3866/miniconda3/envs/p4env/share/psi4/basis/aug-cc-pvtz-ri.gbs 
    atoms 3-11  entry C          line   148 file /home1/07844/xy3866/miniconda3/envs/p4env/share/psi4/basis/aug-cc-pvtz-ri.gbs 
    atoms 12-21 entry H          line    30 file /home1/07844/xy3866/miniconda3/envs/p4env/share/psi4/basis/aug-cc-pvtz-ri.gbs 


*** tstart() called on c419-053.stampede2.tacc.utexas.edu
*** at Sun Mar  7 19:50:33 2021


  //>>>>>>>>>>>>>>>>>>>>>>>>>>>>>>>>>>>//
  //               DFMP2               //
  //<<<<<<<<<<<<<<<<<<<<<<<<<<<<<<<<<<<//

	 --------------------------------------------------------
	                          DF-MP2                         
	      2nd-Order Density-Fitted Moller-Plesset Theory     
	              RMP2 Wavefunction,  32 Threads             
	                                                         
	        Rob Parrish, Justin Turney, Andy Simmonett,      
	           Ed Hohenstein, and C. David Sherrill          
	 --------------------------------------------------------

   => Auxiliary Basis Set <=

  Basis Set: (AUG-CC-PVTZ AUX)
    Blend: AUG-CC-PVTZ-RI
    Number of shells: 448
    Number of basis functions: 1626
    Number of Cartesian functions: 2046
    Spherical Harmonics?: true
    Max angular momentum: 4

	 --------------------------------------------------------
	                 NBF =   736, NAUX =  1626
	 --------------------------------------------------------
	   CLASS    FOCC     OCC    AOCC    AVIR     VIR    FVIR
	   PAIRS       0      40      40     696     696       0
	 --------------------------------------------------------

  DFHelper Memory: AOs need 6.252 GiB; user supplied 22.352 GiB. Using in-core AOs.


         ------------------------------------------------------------
                                     CPHF                           
                                  Rob Parrish                       
         ------------------------------------------------------------

  ==> Geometry <==

    Molecular point group: c1
    Full point group: C1

    Geometry (in Angstrom), charge = 0, multiplicity = 1:

       Center              X                  Y                   Z               Mass       
    ------------   -----------------  -----------------  -----------------  -----------------
         O            2.159784312043    -1.158781140638    -0.111212781920    15.994914619570
         O            2.159784312043     1.158782859362    -0.111195781920    15.994914619570
         C           -1.529008687957    -0.705811140638     0.005851218080    12.000000000000
         C           -1.529009687957     0.705810859362     0.005863218080    12.000000000000
         C            0.858684312043    -0.694516140638    -0.034199781920    12.000000000000
         C            0.858683312043     0.694517859362    -0.034176781920    12.000000000000
         C           -0.316799687957    -1.420972140638    -0.019787781920    12.000000000000
         C           -0.316801687957     1.420971859362    -0.019806781920    12.000000000000
         C            2.940262312043    -0.000001140638     0.212250218080    12.000000000000
         C           -2.831651687957    -1.463588140638     0.038672218080    12.000000000000
         C           -2.831652687957     1.463586859362     0.038661218080    12.000000000000
         H           -0.302706687957    -2.507912140638    -0.027676781920     1.007825032230
         H           -0.302707687957     2.507911859362    -0.027665781920     1.007825032230
         H            3.179470712043    -0.000010940638     1.387589318080     1.007825032230
         H            3.850037312043     0.000003859362    -0.387438781920     1.007825032230
         H           -2.650897687957    -2.541606140638     0.025833218080     1.007825032230
         H           -3.411407687957    -1.231286140638     0.938904218080     1.007825032230
         H           -3.462145687957    -1.218721140638    -0.823181781920     1.007825032230
         H           -3.411395687957     1.231329859362     0.938915218080     1.007825032230
         H           -2.650900687957     2.541604859362     0.025766218080     1.007825032230
         H           -3.462157687957     1.218673859362    -0.823170781920     1.007825032230

  Nuclear repulsion =  600.789504541899987
  Reference energy  = -496.507342844665459

  ==> Basis Set <==

  Basis Set: AUG-CC-PVTZ
    Blend: AUG-CC-PVTZ
    Number of shells: 244
    Number of basis functions: 736
    Number of Cartesian functions: 855
    Spherical Harmonics?: true
    Max angular momentum: 3

  ==> CGRSolver (by Rob Parrish) <==

   Number of roots    =         1
   Preconditioning    =    JACOBI
   Convergence cutoff =     1E-06
   Maximum iterations =       100

  ==> CPHFRHamiltonian (by Rob Parrish) <== 

  ==> MemDFJK: Density-Fitted J/K Matrices <==

    J tasked:                   Yes
    K tasked:                   Yes
    wK tasked:                   No
    OpenMP threads:              32
    Memory [MiB]:             22888
    Algorithm:                 Core
    Schwarz Cutoff:           1E-12
    Mask sparsity (%):       7.3909
    Fitting Condition:        1E-10

   => Auxiliary Basis Set <=

  Basis Set: (AUG-CC-PVTZ AUX)
    Blend: AUG-CC-PVTZ-JKFIT
    Number of shells: 470
    Number of basis functions: 1604
    Number of Cartesian functions: 1991
    Spherical Harmonics?: true
    Max angular momentum: 4

  ==> CPHF Iterations <==

  => Iterations <=

             Iter  Converged  Remaining    Residual
  CGR           1          0          1   9.202E-02
  CGR           2          0          1   2.239E-02
  CGR           3          0          1   8.409E-03
  CGR           4          0          1   2.564E-03
  CGR           5          0          1   9.608E-04
  CGR           6          0          1   3.513E-04
  CGR           7          0          1   1.600E-04
  CGR           8          0          1   8.474E-05
  CGR           9          0          1   2.627E-05
  CGR          10          0          1   6.626E-06
  CGR          11          0          1   1.597E-06
  CGR          12          1          0   4.451E-07

    CGRSolver converged.

	-----------------------------------------------------------
	 ==================> DF-MP2 Energies <==================== 
	-----------------------------------------------------------
	 Reference Energy          =    -496.5073428446654589 [Eh]
	 Singles Energy            =      -0.0000000000000000 [Eh]
	 Same-Spin Energy          =      -0.5243617325374866 [Eh]
	 Opposite-Spin Energy      =      -1.6332919550103533 [Eh]
	 Correlation Energy        =      -2.1576536875478398 [Eh]
	 Total Energy              =    -498.6649965322133085 [Eh]
	-----------------------------------------------------------
	 ================> DF-SCS-MP2 Energies <================== 
	-----------------------------------------------------------
	 SCS Same-Spin Scale       =       0.3333333333333333 [-]
	 SCS Opposite-Spin Scale   =       1.2000000000000000 [-]
	 SCS Same-Spin Energy      =      -0.1747872441791622 [Eh]
	 SCS Opposite-Spin Energy  =      -1.9599503460124239 [Eh]
	 SCS Correlation Energy    =      -2.1347375901915862 [Eh]
	 SCS Total Energy          =    -498.6420804348570641 [Eh]
	-----------------------------------------------------------



Properties will be evaluated at  -0.000000,   0.000000,   0.000000 [a0]

Properties computed using the MP2 density matrix

  Nuclear Dipole Moment: [e a0]
     X:   -11.8146      Y:    -0.0000      Z:     1.1500

  Electronic Dipole Moment: [e a0]
     X:    11.5509      Y:     0.0000      Z:    -0.9646

  Dipole Moment: [e a0]
     X:    -0.2637      Y:    -0.0000      Z:     0.1854     Total:     0.3224

  Dipole Moment: [D]
     X:    -0.6703      Y:    -0.0000      Z:     0.4712     Total:     0.8194


*** tstop() called on c419-053.stampede2.tacc.utexas.edu at Sun Mar  7 19:55:06 2021
Module time:
	user time   =    2550.23 seconds =      42.50 minutes
	system time =      77.95 seconds =       1.30 minutes
	total time  =        273 seconds =       4.55 minutes
Total time:
	user time   =    3350.22 seconds =      55.84 minutes
	system time =     127.88 seconds =       2.13 minutes
	total time  =        318 seconds =       5.30 minutes

    Psi4 stopped on: Sunday, 07 March 2021 07:55PM
    Psi4 wall time for execution: 0:05:18.57

*** Psi4 exiting successfully. Buy a developer a beer!
