
    -----------------------------------------------------------------------
          Psi4: An Open-Source Ab Initio Electronic Structure Package
                               Psi4 1.4a3.dev225 

                         Git: Rev {master} 7105e37 


    D. G. A. Smith, L. A. Burns, A. C. Simmonett, R. M. Parrish,
    M. C. Schieber, R. Galvelis, P. Kraus, H. Kruse, R. Di Remigio,
    A. Alenaizan, A. M. James, S. Lehtola, J. P. Misiewicz, M. Scheurer,
    R. A. Shaw, J. B. Schriber, Y. Xie, Z. L. Glick, D. A. Sirianni,
    J. S. O'Brien, J. M. Waldrop, A. Kumar, E. G. Hohenstein,
    B. P. Pritchard, B. R. Brooks, H. F. Schaefer III, A. Yu. Sokolov,
    K. Patkowski, A. E. DePrince III, U. Bozkaya, R. A. King,
    F. A. Evangelista, J. M. Turney, T. D. Crawford, C. D. Sherrill,
    J. Chem. Phys. 152(18) 184108 (2020). https://doi.org/10.1063/5.0006002

                            Additional Code Authors
    E. T. Seidl, C. L. Janssen, E. F. Valeev, M. L. Leininger,
    J. F. Gonthier, R. M. Richard, H. R. McAlexander, M. Saitow, X. Wang,
    P. Verma, and M. H. Lechner

             Previous Authors, Complete List of Code Contributors,
                       and Citations for Specific Modules
    https://github.com/psi4/psi4/blob/master/codemeta.json
    https://github.com/psi4/psi4/graphs/contributors
    http://psicode.org/psi4manual/master/introduction.html#citing-psifour

    -----------------------------------------------------------------------


    Psi4 started on: Monday, 01 March 2021 11:29AM

    Process ID: 173606
    Host:       c405-071.stampede2.tacc.utexas.edu
    PSIDATADIR: /home1/07844/xy3866/miniconda3/envs/p4env/share/psi4
    Memory:     500.0 MiB
    Threads:    32
    
  ==> Input File <==

--------------------------------------------------------------------------
#psi4
#
memory 32 gb

molecule  {
0 1
  O        2.2039193    -1.1439248    -0.0842662
  O        2.2381840     1.1587830    -0.1175780
  C       -1.4506090    -0.7058110    -0.0005310
  C       -1.4506100     0.7058110    -0.0005190
  C        0.9370840    -0.6945160    -0.0405820
  C        0.9370830     0.6945180    -0.0405590
  C       -0.2384000    -1.4209720    -0.0261700
  C       -0.2384020     1.4209720    -0.0261890
  C        3.0186620    -0.0000010     0.2058680
  C       -2.7532520    -1.4635880     0.0322900
  C       -2.7532530     1.4635870     0.0322790
  H       -0.2243070    -2.5079120    -0.0340590
  H       -0.2243080     2.5079120    -0.0340480
  H        3.2379270    -0.0000100     1.2832160
  H        3.9284370     0.0000040    -0.3938210
  H       -2.5724980    -2.5416060     0.0194510
  H       -3.3330080    -1.2312860     0.9325220
  H       -3.3837460    -1.2187210    -0.8295640
  H       -3.3329960     1.2313300     0.9325330
  H       -2.5725010     2.5416050     0.0193840
  H       -3.3837580     1.2186740    -0.8295530
units angstrom
no_reorient  #important for SAPT in psi4, default
symmetry c1  #important for SAPT in psi4, default
}

set PROPERTIES_ORIGIN ["COM"]
properties('MP2/aug-cc-pvtz', properties = ['dipole'])
--------------------------------------------------------------------------

  Memory set to  29.802 GiB by Python driver.
    SCF Algorithm Type (re)set to DF.

*** tstart() called on c405-071.stampede2.tacc.utexas.edu
*** at Mon Mar  1 11:29:12 2021

   => Loading Basis Set <=

    Name: AUG-CC-PVTZ
    Role: ORBITAL
    Keyword: BASIS
    atoms 1-2   entry O          line   331 file /home1/07844/xy3866/miniconda3/envs/p4env/share/psi4/basis/aug-cc-pvtz.gbs 
    atoms 3-11  entry C          line   239 file /home1/07844/xy3866/miniconda3/envs/p4env/share/psi4/basis/aug-cc-pvtz.gbs 
    atoms 12-21 entry H          line    40 file /home1/07844/xy3866/miniconda3/envs/p4env/share/psi4/basis/aug-cc-pvtz.gbs 


         ---------------------------------------------------------
                                   SCF
               by Justin Turney, Rob Parrish, Andy Simmonett
                          and Daniel G. A. Smith
                              RHF Reference
                       32 Threads,  30517 MiB Core
         ---------------------------------------------------------

  ==> Geometry <==

    Molecular point group: c1
    Full point group: C1

    Geometry (in Angstrom), charge = 0, multiplicity = 1:

       Center              X                  Y                   Z               Mass       
    ------------   -----------------  -----------------  -----------------  -----------------
         O            2.129305629765    -1.145508385016    -0.080778224507    15.994914619570
         O            2.163570329765     1.157199414984    -0.114090024507    15.994914619570
         C           -1.525222670235    -0.707394585016     0.002956975493    12.000000000000
         C           -1.525223670235     0.704227414984     0.002968975493    12.000000000000
         C            0.862470329765    -0.696099585016    -0.037094024507    12.000000000000
         C            0.862469329765     0.692934414984    -0.037071024507    12.000000000000
         C           -0.313013670235    -1.422555585016    -0.022682024507    12.000000000000
         C           -0.313015670235     1.419388414984    -0.022701024507    12.000000000000
         C            2.944048329765    -0.001584585016     0.209355975493    12.000000000000
         C           -2.827865670235    -1.465171585016     0.035777975493    12.000000000000
         C           -2.827866670235     1.462003414984     0.035766975493    12.000000000000
         H           -0.298920670235    -2.509495585016    -0.030571024507     1.007825032230
         H           -0.298921670235     2.506328414984    -0.030560024507     1.007825032230
         H            3.163313329765    -0.001593585016     1.286703975493     1.007825032230
         H            3.853823329765    -0.001579585016    -0.390333024507     1.007825032230
         H           -2.647111670235    -2.543189585016     0.022938975493     1.007825032230
         H           -3.407621670235    -1.232869585016     0.936009975493     1.007825032230
         H           -3.458359670235    -1.220304585016    -0.826076024507     1.007825032230
         H           -3.407609670235     1.229746414984     0.936020975493     1.007825032230
         H           -2.647114670235     2.540021414984     0.022871975493     1.007825032230
         H           -3.458371670235     1.217090414984    -0.826065024507     1.007825032230

  Running in c1 symmetry.

  Rotational constants: A =      0.08286  B =      0.02754  C =      0.02097 [cm^-1]
  Rotational constants: A =   2484.22160  B =    825.62920  C =    628.74330 [MHz]
  Nuclear repulsion =  602.504497032243421

  Charge       = 0
  Multiplicity = 1
  Electrons    = 80
  Nalpha       = 40
  Nbeta        = 40

  ==> Algorithm <==

  SCF Algorithm Type is DF.
  DIIS enabled.
  MOM disabled.
  Fractional occupation disabled.
  Guess Type is SAD.
  Energy threshold   = 1.00e-10
  Density threshold  = 1.00e-10
  Integral threshold = 1.00e-12

  ==> Primary Basis <==

  Basis Set: AUG-CC-PVTZ
    Blend: AUG-CC-PVTZ
    Number of shells: 244
    Number of basis functions: 736
    Number of Cartesian functions: 855
    Spherical Harmonics?: true
    Max angular momentum: 3

   => Loading Basis Set <=

    Name: (AUG-CC-PVTZ AUX)
    Role: JKFIT
    Keyword: DF_BASIS_SCF
    atoms 1-2   entry O          line   286 file /home1/07844/xy3866/miniconda3/envs/p4env/share/psi4/basis/aug-cc-pvtz-jkfit.gbs 
    atoms 3-11  entry C          line   162 file /home1/07844/xy3866/miniconda3/envs/p4env/share/psi4/basis/aug-cc-pvtz-jkfit.gbs 
    atoms 12-21 entry H          line    70 file /home1/07844/xy3866/miniconda3/envs/p4env/share/psi4/basis/aug-cc-pvtz-jkfit.gbs 

  ==> Integral Setup <==

  DFHelper Memory: AOs need 5.961 GiB; user supplied 22.352 GiB. Using in-core AOs.

  ==> MemDFJK: Density-Fitted J/K Matrices <==

    J tasked:                   Yes
    K tasked:                   Yes
    wK tasked:                   No
    OpenMP threads:              32
    Memory [MiB]:             22888
    Algorithm:                 Core
    Schwarz Cutoff:           1E-12
    Mask sparsity (%):      11.8908
    Fitting Condition:        1E-10

   => Auxiliary Basis Set <=

  Basis Set: (AUG-CC-PVTZ AUX)
    Blend: AUG-CC-PVTZ-JKFIT
    Number of shells: 470
    Number of basis functions: 1604
    Number of Cartesian functions: 1991
    Spherical Harmonics?: true
    Max angular momentum: 4

  Minimum eigenvalue in the overlap matrix is 3.2488495609E-07.
  Reciprocal condition number of the overlap matrix is 1.6101739453E-08.
    Using symmetric orthogonalization.

  ==> Pre-Iterations <==

  SCF Guess: Superposition of Atomic Densities via on-the-fly atomic UHF (no occupation information).

   -------------------------
    Irrep   Nso     Nmo    
   -------------------------
     A        736     736 
   -------------------------
    Total     736     736
   -------------------------

  ==> Iterations <==

                           Total Energy        Delta E     RMS |[F,P]|

   @DF-RHF iter SAD:  -496.24455287486182   -4.96245e+02   0.00000e+00 
   @DF-RHF iter   1:  -496.20696107473111    3.75918e-02   9.65778e-04 DIIS
   @DF-RHF iter   2:  -496.45493936571842   -2.47978e-01   4.51236e-04 DIIS
   @DF-RHF iter   3:  -496.50897029556762   -5.40309e-02   1.20801e-04 DIIS
   @DF-RHF iter   4:  -496.51398814041545   -5.01784e-03   5.39539e-05 DIIS
   @DF-RHF iter   5:  -496.51490361788433   -9.15477e-04   7.78256e-06 DIIS
   @DF-RHF iter   6:  -496.51493545603296   -3.18381e-05   3.10748e-06 DIIS
   @DF-RHF iter   7:  -496.51494048189193   -5.02586e-06   9.27171e-07 DIIS
   @DF-RHF iter   8:  -496.51494132299058   -8.41099e-07   3.71734e-07 DIIS
   @DF-RHF iter   9:  -496.51494150073745   -1.77747e-07   1.65531e-07 DIIS
   @DF-RHF iter  10:  -496.51494153765998   -3.69225e-08   7.67950e-08 DIIS
   @DF-RHF iter  11:  -496.51494154858972   -1.09297e-08   3.00879e-08 DIIS
   @DF-RHF iter  12:  -496.51494155002604   -1.43632e-09   1.03706e-08 DIIS
   @DF-RHF iter  13:  -496.51494155012085   -9.48148e-11   3.46788e-09 DIIS
   @DF-RHF iter  14:  -496.51494155013052   -9.66338e-12   1.19051e-09 DIIS
   @DF-RHF iter  15:  -496.51494155013279   -2.27374e-12   5.73950e-10 DIIS
   @DF-RHF iter  16:  -496.51494155013245    3.41061e-13   2.79843e-10 DIIS
   @DF-RHF iter  17:  -496.51494155013171    7.38964e-13   1.37544e-10 DIIS
   @DF-RHF iter  18:  -496.51494155013245   -7.38964e-13   4.77431e-11 DIIS
  Energy and wave function converged.


  ==> Post-Iterations <==

    Orbital Energies [Eh]
    ---------------------

    Doubly Occupied:                                                      

       1A    -20.596904     2A    -20.596130     3A    -11.355381  
       4A    -11.290185     5A    -11.288112     6A    -11.240633  
       7A    -11.238521     8A    -11.236887     9A    -11.235088  
      10A    -11.224170    11A    -11.223613    12A     -1.476320  
      13A     -1.371358    14A     -1.156651    15A     -1.052843  
      16A     -1.036573    17A     -0.951213    18A     -0.945836  
      19A     -0.882391    20A     -0.836662    21A     -0.798407  
      22A     -0.718548    23A     -0.715134    24A     -0.678412  
      25A     -0.649956    26A     -0.613916    27A     -0.612717  
      28A     -0.594057    29A     -0.576240    30A     -0.566082  
      31A     -0.550162    32A     -0.541548    33A     -0.537778  
      34A     -0.533720    35A     -0.530152    36A     -0.499310  
      37A     -0.489408    38A     -0.440515    39A     -0.332374  
      40A     -0.289219  

    Virtual:                                                              

      41A      0.029424    42A      0.031978    43A      0.032463  
      44A      0.042768    45A      0.045089    46A      0.047867  
      47A      0.050484    48A      0.062379    49A      0.064178  
      50A      0.073242    51A      0.083284    52A      0.092182  
      53A      0.095451    54A      0.098229    55A      0.109964  
      56A      0.110080    57A      0.112157    58A      0.116608  
      59A      0.126747    60A      0.132209    61A      0.132687  
      62A      0.134728    63A      0.137296    64A      0.139482  
      65A      0.141720    66A      0.143445    67A      0.151220  
      68A      0.151619    69A      0.156551    70A      0.158232  
      71A      0.165125    72A      0.168614    73A      0.171662  
      74A      0.174559    75A      0.182404    76A      0.188005  
      77A      0.192952    78A      0.194712    79A      0.207211  
      80A      0.211851    81A      0.214255    82A      0.214834  
      83A      0.217528    84A      0.226998    85A      0.240157  
      86A      0.245811    87A      0.254296    88A      0.261403  
      89A      0.263144    90A      0.263723    91A      0.267351  
      92A      0.269907    93A      0.272603    94A      0.279222  
      95A      0.298328    96A      0.298784    97A      0.298932  
      98A      0.304386    99A      0.314678   100A      0.325506  
     101A      0.327655   102A      0.329532   103A      0.332291  
     104A      0.336776   105A      0.337895   106A      0.347241  
     107A      0.350544   108A      0.353616   109A      0.360396  
     110A      0.361440   111A      0.366334   112A      0.376244  
     113A      0.379490   114A      0.385129   115A      0.388106  
     116A      0.390695   117A      0.395750   118A      0.399902  
     119A      0.403357   120A      0.404704   121A      0.405156  
     122A      0.416678   123A      0.418959   124A      0.421287  
     125A      0.424480   126A      0.426940   127A      0.431428  
     128A      0.437491   129A      0.441914   130A      0.449033  
     131A      0.451423   132A      0.461692   133A      0.464796  
     134A      0.468886   135A      0.470402   136A      0.478370  
     137A      0.480533   138A      0.480916   139A      0.484391  
     140A      0.487181   141A      0.491509   142A      0.493629  
     143A      0.494103   144A      0.498651   145A      0.506806  
     146A      0.507535   147A      0.512622   148A      0.519599  
     149A      0.520967   150A      0.529207   151A      0.532406  
     152A      0.538429   153A      0.541665   154A      0.544839  
     155A      0.545550   156A      0.554103   157A      0.563680  
     158A      0.565451   159A      0.567658   160A      0.569904  
     161A      0.581696   162A      0.584250   163A      0.589614  
     164A      0.590475   165A      0.592785   166A      0.598588  
     167A      0.606724   168A      0.616327   169A      0.618642  
     170A      0.626300   171A      0.634230   172A      0.648560  
     173A      0.668148   174A      0.671422   175A      0.674732  
     176A      0.677628   177A      0.686036   178A      0.692149  
     179A      0.698630   180A      0.701334   181A      0.716507  
     182A      0.719315   183A      0.732096   184A      0.737011  
     185A      0.740493   186A      0.746654   187A      0.755552  
     188A      0.764007   189A      0.766222   190A      0.768373  
     191A      0.786802   192A      0.793684   193A      0.796900  
     194A      0.805583   195A      0.814378   196A      0.821892  
     197A      0.830609   198A      0.834300   199A      0.836675  
     200A      0.842695   201A      0.849597   202A      0.850463  
     203A      0.858142   204A      0.859898   205A      0.866230  
     206A      0.868757   207A      0.879423   208A      0.884693  
     209A      0.898356   210A      0.902449   211A      0.905970  
     212A      0.909191   213A      0.913791   214A      0.916219  
     215A      0.926031   216A      0.931235   217A      0.940164  
     218A      0.942823   219A      0.949950   220A      0.951211  
     221A      0.953962   222A      0.958647   223A      0.958771  
     224A      0.973964   225A      0.977845   226A      0.980289  
     227A      0.984425   228A      0.986545   229A      0.988676  
     230A      0.999448   231A      1.002289   232A      1.009914  
     233A      1.010591   234A      1.020100   235A      1.029337  
     236A      1.030361   237A      1.036082   238A      1.041941  
     239A      1.046626   240A      1.050887   241A      1.055879  
     242A      1.062332   243A      1.066889   244A      1.083736  
     245A      1.084780   246A      1.086100   247A      1.088340  
     248A      1.092657   249A      1.095452   250A      1.098263  
     251A      1.105015   252A      1.112019   253A      1.112729  
     254A      1.116167   255A      1.126677   256A      1.127783  
     257A      1.138625   258A      1.150124   259A      1.152278  
     260A      1.165348   261A      1.168603   262A      1.170557  
     263A      1.178228   264A      1.182046   265A      1.183074  
     266A      1.185599   267A      1.196396   268A      1.199308  
     269A      1.205481   270A      1.212299   271A      1.215352  
     272A      1.220190   273A      1.228157   274A      1.239629  
     275A      1.243304   276A      1.247180   277A      1.257867  
     278A      1.259465   279A      1.273257   280A      1.273331  
     281A      1.285854   282A      1.288482   283A      1.302534  
     284A      1.320470   285A      1.323971   286A      1.332496  
     287A      1.333436   288A      1.339090   289A      1.350826  
     290A      1.366807   291A      1.371666   292A      1.380637  
     293A      1.396183   294A      1.400097   295A      1.410421  
     296A      1.415648   297A      1.416794   298A      1.431478  
     299A      1.435904   300A      1.438488   301A      1.448554  
     302A      1.452335   303A      1.463002   304A      1.463910  
     305A      1.480791   306A      1.484520   307A      1.491723  
     308A      1.495517   309A      1.505504   310A      1.519123  
     311A      1.521158   312A      1.528869   313A      1.542354  
     314A      1.544745   315A      1.549695   316A      1.558495  
     317A      1.572284   318A      1.577914   319A      1.588612  
     320A      1.597038   321A      1.601935   322A      1.610321  
     323A      1.621570   324A      1.623813   325A      1.630690  
     326A      1.633132   327A      1.653217   328A      1.659490  
     329A      1.665279   330A      1.672615   331A      1.679964  
     332A      1.682535   333A      1.688034   334A      1.694418  
     335A      1.695990   336A      1.703759   337A      1.716808  
     338A      1.729194   339A      1.732572   340A      1.737807  
     341A      1.747705   342A      1.760151   343A      1.769557  
     344A      1.780378   345A      1.790895   346A      1.797169  
     347A      1.801236   348A      1.803527   349A      1.806789  
     350A      1.820917   351A      1.823791   352A      1.830671  
     353A      1.839324   354A      1.857888   355A      1.864362  
     356A      1.865906   357A      1.867900   358A      1.885294  
     359A      1.899513   360A      1.906352   361A      1.910552  
     362A      1.920356   363A      1.922862   364A      1.937008  
     365A      1.944747   366A      1.954679   367A      1.963287  
     368A      1.970076   369A      1.972145   370A      1.978000  
     371A      1.985107   372A      1.987560   373A      1.990080  
     374A      2.010632   375A      2.013421   376A      2.025082  
     377A      2.032597   378A      2.042075   379A      2.043958  
     380A      2.068943   381A      2.076952   382A      2.082088  
     383A      2.085559   384A      2.110188   385A      2.118936  
     386A      2.138729   387A      2.141296   388A      2.146074  
     389A      2.181240   390A      2.187479   391A      2.189454  
     392A      2.195804   393A      2.202129   394A      2.212222  
     395A      2.217736   396A      2.230968   397A      2.236036  
     398A      2.240269   399A      2.244066   400A      2.256863  
     401A      2.263403   402A      2.265871   403A      2.273593  
     404A      2.290608   405A      2.293732   406A      2.306438  
     407A      2.317966   408A      2.325969   409A      2.336524  
     410A      2.340995   411A      2.342687   412A      2.366066  
     413A      2.374731   414A      2.380499   415A      2.392559  
     416A      2.405958   417A      2.414283   418A      2.442143  
     419A      2.456051   420A      2.457918   421A      2.482437  
     422A      2.505893   423A      2.517979   424A      2.521718  
     425A      2.526258   426A      2.541837   427A      2.548555  
     428A      2.555197   429A      2.615723   430A      2.617595  
     431A      2.651166   432A      2.658398   433A      2.667693  
     434A      2.684978   435A      2.705436   436A      2.710765  
     437A      2.722405   438A      2.727009   439A      2.759951  
     440A      2.765982   441A      2.785332   442A      2.803616  
     443A      2.819086   444A      2.840708   445A      2.851247  
     446A      2.864290   447A      2.883902   448A      2.896368  
     449A      2.961183   450A      2.975382   451A      2.984830  
     452A      2.995429   453A      3.031294   454A      3.048774  
     455A      3.052463   456A      3.076418   457A      3.082989  
     458A      3.121456   459A      3.134828   460A      3.167136  
     461A      3.168871   462A      3.245780   463A      3.254520  
     464A      3.273014   465A      3.275105   466A      3.295682  
     467A      3.313233   468A      3.338689   469A      3.356836  
     470A      3.365918   471A      3.371190   472A      3.381830  
     473A      3.389262   474A      3.407905   475A      3.419301  
     476A      3.439913   477A      3.452440   478A      3.462445  
     479A      3.469106   480A      3.473136   481A      3.477787  
     482A      3.503357   483A      3.514246   484A      3.516090  
     485A      3.530236   486A      3.542223   487A      3.550829  
     488A      3.567281   489A      3.571330   490A      3.580925  
     491A      3.593069   492A      3.611064   493A      3.617071  
     494A      3.629931   495A      3.632838   496A      3.638941  
     497A      3.647891   498A      3.675551   499A      3.684267  
     500A      3.688914   501A      3.707551   502A      3.709320  
     503A      3.717451   504A      3.720683   505A      3.726866  
     506A      3.734370   507A      3.740413   508A      3.753800  
     509A      3.764187   510A      3.775859   511A      3.779324  
     512A      3.786291   513A      3.820253   514A      3.824534  
     515A      3.831130   516A      3.840202   517A      3.851641  
     518A      3.853203   519A      3.860203   520A      3.871775  
     521A      3.890632   522A      3.894534   523A      3.901934  
     524A      3.907227   525A      3.913383   526A      3.922140  
     527A      3.930986   528A      3.943003   529A      3.948056  
     530A      3.962626   531A      3.971229   532A      4.006237  
     533A      4.007569   534A      4.014821   535A      4.024662  
     536A      4.032251   537A      4.038478   538A      4.043553  
     539A      4.054799   540A      4.064186   541A      4.088413  
     542A      4.095519   543A      4.114174   544A      4.119832  
     545A      4.122627   546A      4.150032   547A      4.160707  
     548A      4.163816   549A      4.167980   550A      4.181793  
     551A      4.190445   552A      4.201683   553A      4.206147  
     554A      4.214740   555A      4.220738   556A      4.237251  
     557A      4.251356   558A      4.256218   559A      4.262224  
     560A      4.278693   561A      4.283481   562A      4.286988  
     563A      4.290171   564A      4.307109   565A      4.311090  
     566A      4.330607   567A      4.336579   568A      4.344723  
     569A      4.360205   570A      4.363427   571A      4.370531  
     572A      4.375602   573A      4.383390   574A      4.387034  
     575A      4.411103   576A      4.432237   577A      4.439862  
     578A      4.458579   579A      4.470737   580A      4.473992  
     581A      4.482980   582A      4.489124   583A      4.497278  
     584A      4.520554   585A      4.529949   586A      4.540273  
     587A      4.571247   588A      4.574275   589A      4.585819  
     590A      4.591984   591A      4.593180   592A      4.622058  
     593A      4.632818   594A      4.641638   595A      4.658912  
     596A      4.669612   597A      4.690524   598A      4.694461  
     599A      4.697018   600A      4.715180   601A      4.723658  
     602A      4.727597   603A      4.742728   604A      4.770791  
     605A      4.792889   606A      4.795028   607A      4.819511  
     608A      4.837735   609A      4.844678   610A      4.851569  
     611A      4.867700   612A      4.872224   613A      4.880567  
     614A      4.892398   615A      4.895947   616A      4.905210  
     617A      4.910936   618A      4.937644   619A      4.946319  
     620A      4.967577   621A      4.988186   622A      4.990315  
     623A      5.018125   624A      5.027405   625A      5.032038  
     626A      5.049746   627A      5.062309   628A      5.065925  
     629A      5.078148   630A      5.100108   631A      5.131408  
     632A      5.138889   633A      5.172754   634A      5.189447  
     635A      5.203028   636A      5.230387   637A      5.235214  
     638A      5.246024   639A      5.267132   640A      5.275052  
     641A      5.284614   642A      5.286202   643A      5.328501  
     644A      5.331126   645A      5.345294   646A      5.370144  
     647A      5.392327   648A      5.394252   649A      5.401999  
     650A      5.421726   651A      5.441825   652A      5.459875  
     653A      5.468930   654A      5.472723   655A      5.499436  
     656A      5.549917   657A      5.573929   658A      5.585303  
     659A      5.596372   660A      5.612394   661A      5.625418  
     662A      5.678858   663A      5.681547   664A      5.702368  
     665A      5.726857   666A      5.754504   667A      5.830291  
     668A      5.843641   669A      5.855702   670A      5.860977  
     671A      5.892352   672A      5.950874   673A      5.995090  
     674A      6.010525   675A      6.037887   676A      6.111366  
     677A      6.124136   678A      6.132503   679A      6.146992  
     680A      6.185729   681A      6.207980   682A      6.250968  
     683A      6.266063   684A      6.282057   685A      6.375863  
     686A      6.394494   687A      6.410200   688A      6.431161  
     689A      6.541344   690A      6.565613   691A      6.620356  
     692A      6.681344   693A      6.693750   694A      6.739426  
     695A      6.754978   696A      6.814188   697A      6.825228  
     698A      6.825568   699A      6.888593   700A      6.932646  
     701A      6.977104   702A      7.018831   703A      7.029955  
     704A      7.094512   705A      7.112466   706A      7.166011  
     707A      7.168762   708A      7.211267   709A      7.236216  
     710A      7.371723   711A      7.405342   712A      7.470617  
     713A      7.528803   714A      7.552162   715A      7.604275  
     716A      7.625001   717A      7.793177   718A      7.805732  
     719A      7.936466   720A      7.971360   721A      8.039467  
     722A      8.292908   723A      8.344211   724A      8.431848  
     725A      8.565137   726A     15.417372   727A     16.030123  
     728A     16.678883   729A     17.748446   730A     17.956873  
     731A     18.176632   732A     19.488575   733A     19.730034  
     734A     20.274566   735A     20.388666   736A     21.865609  

    Final Occupation by Irrep:
              A 
    DOCC [    40 ]

  @DF-RHF Final Energy:  -496.51494155013245

   => Energetics <=

    Nuclear Repulsion Energy =            602.5044970322434210
    One-Electron Energy =               -1871.0326186558838799
    Two-Electron Energy =                 772.0131800735078969
    Total Energy =                       -496.5149415501324484

Computation Completed

*** tstop() called on c405-071.stampede2.tacc.utexas.edu at Mon Mar  1 11:29:57 2021
Module time:
	user time   =     859.31 seconds =      14.32 minutes
	system time =      54.68 seconds =       0.91 minutes
	total time  =         45 seconds =       0.75 minutes
Total time:
	user time   =     859.31 seconds =      14.32 minutes
	system time =      54.68 seconds =       0.91 minutes
	total time  =         45 seconds =       0.75 minutes
   => Loading Basis Set <=

    Name: (AUG-CC-PVTZ AUX)
    Role: RIFIT
    Keyword: DF_BASIS_MP2
    atoms 1-2   entry O          line   264 file /home1/07844/xy3866/miniconda3/envs/p4env/share/psi4/basis/aug-cc-pvtz-ri.gbs 
    atoms 3-11  entry C          line   148 file /home1/07844/xy3866/miniconda3/envs/p4env/share/psi4/basis/aug-cc-pvtz-ri.gbs 
    atoms 12-21 entry H          line    30 file /home1/07844/xy3866/miniconda3/envs/p4env/share/psi4/basis/aug-cc-pvtz-ri.gbs 


*** tstart() called on c405-071.stampede2.tacc.utexas.edu
*** at Mon Mar  1 11:29:58 2021


  //>>>>>>>>>>>>>>>>>>>>>>>>>>>>>>>>>>>//
  //               DFMP2               //
  //<<<<<<<<<<<<<<<<<<<<<<<<<<<<<<<<<<<//

	 --------------------------------------------------------
	                          DF-MP2                         
	      2nd-Order Density-Fitted Moller-Plesset Theory     
	              RMP2 Wavefunction,  32 Threads             
	                                                         
	        Rob Parrish, Justin Turney, Andy Simmonett,      
	           Ed Hohenstein, and C. David Sherrill          
	 --------------------------------------------------------

   => Auxiliary Basis Set <=

  Basis Set: (AUG-CC-PVTZ AUX)
    Blend: AUG-CC-PVTZ-RI
    Number of shells: 448
    Number of basis functions: 1626
    Number of Cartesian functions: 2046
    Spherical Harmonics?: true
    Max angular momentum: 4

	 --------------------------------------------------------
	                 NBF =   736, NAUX =  1626
	 --------------------------------------------------------
	   CLASS    FOCC     OCC    AOCC    AVIR     VIR    FVIR
	   PAIRS       0      40      40     696     696       0
	 --------------------------------------------------------

  DFHelper Memory: AOs need 6.255 GiB; user supplied 22.352 GiB. Using in-core AOs.


         ------------------------------------------------------------
                                     CPHF                           
                                  Rob Parrish                       
         ------------------------------------------------------------

  ==> Geometry <==

    Molecular point group: c1
    Full point group: C1

    Geometry (in Angstrom), charge = 0, multiplicity = 1:

       Center              X                  Y                   Z               Mass       
    ------------   -----------------  -----------------  -----------------  -----------------
         O            2.129305629765    -1.145508385016    -0.080778224507    15.994914619570
         O            2.163570329765     1.157199414984    -0.114090024507    15.994914619570
         C           -1.525222670235    -0.707394585016     0.002956975493    12.000000000000
         C           -1.525223670235     0.704227414984     0.002968975493    12.000000000000
         C            0.862470329765    -0.696099585016    -0.037094024507    12.000000000000
         C            0.862469329765     0.692934414984    -0.037071024507    12.000000000000
         C           -0.313013670235    -1.422555585016    -0.022682024507    12.000000000000
         C           -0.313015670235     1.419388414984    -0.022701024507    12.000000000000
         C            2.944048329765    -0.001584585016     0.209355975493    12.000000000000
         C           -2.827865670235    -1.465171585016     0.035777975493    12.000000000000
         C           -2.827866670235     1.462003414984     0.035766975493    12.000000000000
         H           -0.298920670235    -2.509495585016    -0.030571024507     1.007825032230
         H           -0.298921670235     2.506328414984    -0.030560024507     1.007825032230
         H            3.163313329765    -0.001593585016     1.286703975493     1.007825032230
         H            3.853823329765    -0.001579585016    -0.390333024507     1.007825032230
         H           -2.647111670235    -2.543189585016     0.022938975493     1.007825032230
         H           -3.407621670235    -1.232869585016     0.936009975493     1.007825032230
         H           -3.458359670235    -1.220304585016    -0.826076024507     1.007825032230
         H           -3.407609670235     1.229746414984     0.936020975493     1.007825032230
         H           -2.647114670235     2.540021414984     0.022871975493     1.007825032230
         H           -3.458371670235     1.217090414984    -0.826065024507     1.007825032230

  Nuclear repulsion =  602.504497032243421
  Reference energy  = -496.514941550132448

  ==> Basis Set <==

  Basis Set: AUG-CC-PVTZ
    Blend: AUG-CC-PVTZ
    Number of shells: 244
    Number of basis functions: 736
    Number of Cartesian functions: 855
    Spherical Harmonics?: true
    Max angular momentum: 3

  ==> CGRSolver (by Rob Parrish) <==

   Number of roots    =         1
   Preconditioning    =    JACOBI
   Convergence cutoff =     1E-06
   Maximum iterations =       100

  ==> CPHFRHamiltonian (by Rob Parrish) <== 

  ==> MemDFJK: Density-Fitted J/K Matrices <==

    J tasked:                   Yes
    K tasked:                   Yes
    wK tasked:                   No
    OpenMP threads:              32
    Memory [MiB]:             22888
    Algorithm:                 Core
    Schwarz Cutoff:           1E-12
    Mask sparsity (%):       7.3491
    Fitting Condition:        1E-10

   => Auxiliary Basis Set <=

  Basis Set: (AUG-CC-PVTZ AUX)
    Blend: AUG-CC-PVTZ-JKFIT
    Number of shells: 470
    Number of basis functions: 1604
    Number of Cartesian functions: 1991
    Spherical Harmonics?: true
    Max angular momentum: 4

  ==> CPHF Iterations <==

  => Iterations <=

             Iter  Converged  Remaining    Residual
  CGR           1          0          1   9.074E-02
  CGR           2          0          1   2.207E-02
  CGR           3          0          1   8.399E-03
  CGR           4          0          1   2.891E-03
  CGR           5          0          1   1.276E-03
  CGR           6          0          1   6.565E-04
  CGR           7          0          1   2.770E-04
  CGR           8          0          1   1.134E-04
  CGR           9          0          1   3.113E-05
  CGR          10          0          1   9.310E-06
  CGR          11          0          1   4.241E-06
  CGR          12          0          1   1.938E-06
  CGR          13          1          0   7.970E-07

    CGRSolver converged.

	-----------------------------------------------------------
	 ==================> DF-MP2 Energies <==================== 
	-----------------------------------------------------------
	 Reference Energy          =    -496.5149415501324484 [Eh]
	 Singles Energy            =      -0.0000000000000000 [Eh]
	 Same-Spin Energy          =      -0.5238709234988015 [Eh]
	 Opposite-Spin Energy      =      -1.6312347888275942 [Eh]
	 Correlation Energy        =      -2.1551057123263959 [Eh]
	 Total Energy              =    -498.6700472624588656 [Eh]
	-----------------------------------------------------------
	 ================> DF-SCS-MP2 Energies <================== 
	-----------------------------------------------------------
	 SCS Same-Spin Scale       =       0.3333333333333333 [-]
	 SCS Opposite-Spin Scale   =       1.2000000000000000 [-]
	 SCS Same-Spin Energy      =      -0.1746236411662672 [Eh]
	 SCS Opposite-Spin Energy  =      -1.9574817465931129 [Eh]
	 SCS Correlation Energy    =      -2.1321053877593799 [Eh]
	 SCS Total Energy          =    -498.6470469378918438 [Eh]
	-----------------------------------------------------------



Properties will be evaluated at  -0.000000,  -0.000000,  -0.000000 [a0]

Properties computed using the MP2 density matrix

  Nuclear Dipole Moment: [e a0]
     X:   -11.7980      Y:    -0.0148      Z:     1.0312

  Electronic Dipole Moment: [e a0]
     X:    11.6835      Y:    -0.0108      Z:    -0.8235

  Dipole Moment: [e a0]
     X:    -0.1145      Y:    -0.0255      Z:     0.2076     Total:     0.2385

  Dipole Moment: [D]
     X:    -0.2909      Y:    -0.0649      Z:     0.5277     Total:     0.6061


*** tstop() called on c405-071.stampede2.tacc.utexas.edu at Mon Mar  1 11:42:30 2021
Module time:
	user time   =    2585.61 seconds =      43.09 minutes
	system time =      76.48 seconds =       1.27 minutes
	total time  =        752 seconds =      12.53 minutes
Total time:
	user time   =    3445.98 seconds =      57.43 minutes
	system time =     131.18 seconds =       2.19 minutes
	total time  =        798 seconds =      13.30 minutes

    Psi4 stopped on: Monday, 01 March 2021 11:42AM
    Psi4 wall time for execution: 0:13:19.63

*** Psi4 exiting successfully. Buy a developer a beer!
