
    -----------------------------------------------------------------------
          Psi4: An Open-Source Ab Initio Electronic Structure Package
                               Psi4 1.4a3.dev225 

                         Git: Rev {master} 7105e37 


    D. G. A. Smith, L. A. Burns, A. C. Simmonett, R. M. Parrish,
    M. C. Schieber, R. Galvelis, P. Kraus, H. Kruse, R. Di Remigio,
    A. Alenaizan, A. M. James, S. Lehtola, J. P. Misiewicz, M. Scheurer,
    R. A. Shaw, J. B. Schriber, Y. Xie, Z. L. Glick, D. A. Sirianni,
    J. S. O'Brien, J. M. Waldrop, A. Kumar, E. G. Hohenstein,
    B. P. Pritchard, B. R. Brooks, H. F. Schaefer III, A. Yu. Sokolov,
    K. Patkowski, A. E. DePrince III, U. Bozkaya, R. A. King,
    F. A. Evangelista, J. M. Turney, T. D. Crawford, C. D. Sherrill,
    J. Chem. Phys. 152(18) 184108 (2020). https://doi.org/10.1063/5.0006002

                            Additional Code Authors
    E. T. Seidl, C. L. Janssen, E. F. Valeev, M. L. Leininger,
    J. F. Gonthier, R. M. Richard, H. R. McAlexander, M. Saitow, X. Wang,
    P. Verma, and M. H. Lechner

             Previous Authors, Complete List of Code Contributors,
                       and Citations for Specific Modules
    https://github.com/psi4/psi4/blob/master/codemeta.json
    https://github.com/psi4/psi4/graphs/contributors
    http://psicode.org/psi4manual/master/introduction.html#citing-psifour

    -----------------------------------------------------------------------


    Psi4 started on: Sunday, 21 March 2021 10:43AM

    Process ID: 84393
    Host:       c446-001.stampede2.tacc.utexas.edu
    PSIDATADIR: /home1/07844/xy3866/miniconda3/envs/p4env/share/psi4
    Memory:     500.0 MiB
    Threads:    32
    
  ==> Input File <==

--------------------------------------------------------------------------
#psi4
#
memory 32 gb

molecule  {
0 1
  N        0.8160970    -0.2990240    -0.0443680
  N        1.3505744    -1.5083429    -0.2700814
  N       -1.0817850     0.9875590    -0.4601130
  N       -1.2686320    -1.2431920     0.4227390
  C        1.7597130     0.6951090     0.1272320
  C        2.9786120     0.0532150     0.0016160
  C       -0.5903530    -0.1795160    -0.0248380
  C        1.4539390     2.1247050     0.4316710
  C        2.6793880    -1.2992810    -0.2463060
  C       -2.4210880     1.0928180    -0.4382200
  C       -2.6039190    -1.1175230     0.3972460
  C       -3.2414650     0.0469210    -0.0276130
  H        3.9528590     0.5149220     0.0929350
  H        1.0131890     2.6387050    -0.4244530
  H        0.7544440     2.2203260     1.2670250
  H        2.3864280     2.6245280     0.7070350
  H        3.3561510    -2.1272050    -0.4162310
  H       -2.8304840     2.0415190    -0.7796900
  H       -3.1684390    -1.9801170     0.7461500
  H       -4.3226790     0.1358530    -0.0311710
units angstrom
no_reorient  #important for SAPT in psi4, default
symmetry c1  #important for SAPT in psi4, default
}

set PROPERTIES_ORIGIN ["COM"]
properties('MP2/aug-cc-pvtz', properties = ['dipole'])
--------------------------------------------------------------------------

  Memory set to  29.802 GiB by Python driver.
    SCF Algorithm Type (re)set to DF.

*** tstart() called on c446-001.stampede2.tacc.utexas.edu
*** at Sun Mar 21 10:43:19 2021

   => Loading Basis Set <=

    Name: AUG-CC-PVTZ
    Role: ORBITAL
    Keyword: BASIS
    atoms 1-4   entry N          line   285 file /home1/07844/xy3866/miniconda3/envs/p4env/share/psi4/basis/aug-cc-pvtz.gbs 
    atoms 5-12  entry C          line   239 file /home1/07844/xy3866/miniconda3/envs/p4env/share/psi4/basis/aug-cc-pvtz.gbs 
    atoms 13-20 entry H          line    40 file /home1/07844/xy3866/miniconda3/envs/p4env/share/psi4/basis/aug-cc-pvtz.gbs 


         ---------------------------------------------------------
                                   SCF
               by Justin Turney, Rob Parrish, Andy Simmonett
                          and Daniel G. A. Smith
                              RHF Reference
                       32 Threads,  30517 MiB Core
         ---------------------------------------------------------

  ==> Geometry <==

    Molecular point group: c1
    Full point group: C1

    Geometry (in Angstrom), charge = 0, multiplicity = 1:

       Center              X                  Y                   Z               Mass       
    ------------   -----------------  -----------------  -----------------  -----------------
         N            0.823872598998    -0.262947469860    -0.037455838412    14.003074004430
         N            1.358349998998    -1.472266369860    -0.263169238412    14.003074004430
         N           -1.074009401002     1.023635530140    -0.453200838412    14.003074004430
         N           -1.260856401002    -1.207115469860     0.429651161588    14.003074004430
         C            1.767488598998     0.731185530140     0.134144161588    12.000000000000
         C            2.986387598998     0.089291530140     0.008528161588    12.000000000000
         C           -0.582577401002    -0.143439469860    -0.017925838412    12.000000000000
         C            1.461714598998     2.160781530140     0.438583161588    12.000000000000
         C            2.687163598998    -1.263204469860    -0.239393838412    12.000000000000
         C           -2.413312401002     1.128894530140    -0.431307838412    12.000000000000
         C           -2.596143401002    -1.081446469860     0.404158161588    12.000000000000
         C           -3.233689401002     0.082997530140    -0.020700838412    12.000000000000
         H            3.960634598998     0.550998530140     0.099847161588     1.007825032230
         H            1.020964598998     2.674781530140    -0.417540838412     1.007825032230
         H            0.762219598998     2.256402530140     1.273937161588     1.007825032230
         H            2.394203598998     2.660604530140     0.713947161588     1.007825032230
         H            3.363926598998    -2.091128469860    -0.409318838412     1.007825032230
         H           -2.822708401002     2.077595530140    -0.772777838412     1.007825032230
         H           -3.160663401002    -1.944040469860     0.753062161588     1.007825032230
         H           -4.314903401002     0.171929530140    -0.024258838412     1.007825032230

  Running in c1 symmetry.

  Rotational constants: A =      0.07406  B =      0.02408  C =      0.01889 [cm^-1]
  Rotational constants: A =   2220.37794  B =    722.02380  C =    566.25003 [MHz]
  Nuclear repulsion =  658.822575489086148

  Charge       = 0
  Multiplicity = 1
  Electrons    = 84
  Nalpha       = 42
  Nbeta        = 42

  ==> Algorithm <==

  SCF Algorithm Type is DF.
  DIIS enabled.
  MOM disabled.
  Fractional occupation disabled.
  Guess Type is SAD.
  Energy threshold   = 1.00e-10
  Density threshold  = 1.00e-10
  Integral threshold = 1.00e-12

  ==> Primary Basis <==

  Basis Set: AUG-CC-PVTZ
    Blend: AUG-CC-PVTZ
    Number of shells: 240
    Number of basis functions: 736
    Number of Cartesian functions: 860
    Spherical Harmonics?: true
    Max angular momentum: 3

   => Loading Basis Set <=

    Name: (AUG-CC-PVTZ AUX)
    Role: JKFIT
    Keyword: DF_BASIS_SCF
    atoms 1-4   entry N          line   224 file /home1/07844/xy3866/miniconda3/envs/p4env/share/psi4/basis/aug-cc-pvtz-jkfit.gbs 
    atoms 5-12  entry C          line   162 file /home1/07844/xy3866/miniconda3/envs/p4env/share/psi4/basis/aug-cc-pvtz-jkfit.gbs 
    atoms 13-20 entry H          line    70 file /home1/07844/xy3866/miniconda3/envs/p4env/share/psi4/basis/aug-cc-pvtz-jkfit.gbs 

  ==> Integral Setup <==

  DFHelper Memory: AOs need 5.992 GiB; user supplied 22.352 GiB. Using in-core AOs.

  ==> MemDFJK: Density-Fitted J/K Matrices <==

    J tasked:                   Yes
    K tasked:                   Yes
    wK tasked:                   No
    OpenMP threads:              32
    Memory [MiB]:             22888
    Algorithm:                 Core
    Schwarz Cutoff:           1E-12
    Mask sparsity (%):      12.0725
    Fitting Condition:        1E-10

   => Auxiliary Basis Set <=

  Basis Set: (AUG-CC-PVTZ AUX)
    Blend: AUG-CC-PVTZ-JKFIT
    Number of shells: 472
    Number of basis functions: 1616
    Number of Cartesian functions: 2012
    Spherical Harmonics?: true
    Max angular momentum: 4

  Minimum eigenvalue in the overlap matrix is 2.2100497033E-06.
  Reciprocal condition number of the overlap matrix is 1.1758004312E-07.
    Using symmetric orthogonalization.

  ==> Pre-Iterations <==

  SCF Guess: Superposition of Atomic Densities via on-the-fly atomic UHF (no occupation information).

   -------------------------
    Irrep   Nso     Nmo    
   -------------------------
     A        736     736 
   -------------------------
    Total     736     736
   -------------------------

  ==> Iterations <==

                           Total Energy        Delta E     RMS |[F,P]|

   @DF-RHF iter SAD:  -525.10393446664079   -5.25104e+02   0.00000e+00 
   @DF-RHF iter   1:  -525.26338988904809   -1.59455e-01   9.46541e-04 DIIS
   @DF-RHF iter   2:  -525.49655391689430   -2.33164e-01   4.33295e-04 DIIS
   @DF-RHF iter   3:  -525.53901282478819   -4.24589e-02   1.08155e-04 DIIS
   @DF-RHF iter   4:  -525.54278064405571   -3.76782e-03   5.21568e-05 DIIS
   @DF-RHF iter   5:  -525.54354097607541   -7.60332e-04   1.06017e-05 DIIS
   @DF-RHF iter   6:  -525.54359161088666   -5.06348e-05   4.40148e-06 DIIS
   @DF-RHF iter   7:  -525.54360376984539   -1.21590e-05   1.79936e-06 DIIS
   @DF-RHF iter   8:  -525.54360656555536   -2.79571e-06   7.26111e-07 DIIS
   @DF-RHF iter   9:  -525.54360719647025   -6.30915e-07   3.49741e-07 DIIS
   @DF-RHF iter  10:  -525.54360729930897   -1.02839e-07   1.03103e-07 DIIS
   @DF-RHF iter  11:  -525.54360730781605   -8.50707e-09   4.79776e-08 DIIS
   @DF-RHF iter  12:  -525.54360730910093   -1.28489e-09   1.88277e-08 DIIS
   @DF-RHF iter  13:  -525.54360730947974   -3.78805e-10   8.56780e-09 DIIS
   @DF-RHF iter  14:  -525.54360730955193   -7.21911e-11   3.84979e-09 DIIS
   @DF-RHF iter  15:  -525.54360730957274   -2.08047e-11   1.44907e-09 DIIS
   @DF-RHF iter  16:  -525.54360730957171    1.02318e-12   8.11468e-10 DIIS
   @DF-RHF iter  17:  -525.54360730957285   -1.13687e-12   2.38300e-10 DIIS
   @DF-RHF iter  18:  -525.54360730957194    9.09495e-13   9.41763e-11 DIIS
  Energy and wave function converged.


  ==> Post-Iterations <==

    Orbital Energies [Eh]
    ---------------------

    Doubly Occupied:                                                      

       1A    -15.643743     2A    -15.583091     3A    -15.580016  
       4A    -15.579363     5A    -11.367886     6A    -11.311946  
       7A    -11.309941     8A    -11.284419     9A    -11.253474  
      10A    -11.253294    11A    -11.233835    12A    -11.217340  
      13A     -1.392505    14A     -1.314305    15A     -1.206607  
      16A     -1.128434    17A     -1.084174    18A     -1.046018  
      19A     -0.957601    20A     -0.909546    21A     -0.897658  
      22A     -0.801702    23A     -0.796887    24A     -0.713304  
      25A     -0.707792    26A     -0.682474    27A     -0.640147  
      28A     -0.634061    29A     -0.607488    30A     -0.590906  
      31A     -0.587122    32A     -0.575808    33A     -0.563755  
      34A     -0.553735    35A     -0.535152    36A     -0.492117  
      37A     -0.453445    38A     -0.430878    39A     -0.420361  
      40A     -0.407170    41A     -0.338219    42A     -0.330686  

    Virtual:                                                              

      43A      0.022813    44A      0.030557    45A      0.033622  
      46A      0.039121    47A      0.044404    48A      0.048270  
      49A      0.056851    50A      0.065578    51A      0.070589  
      52A      0.075505    53A      0.081759    54A      0.085855  
      55A      0.091897    56A      0.099572    57A      0.101649  
      58A      0.107934    59A      0.108936    60A      0.112615  
      61A      0.116194    62A      0.117994    63A      0.122425  
      64A      0.124863    65A      0.126035    66A      0.129364  
      67A      0.131153    68A      0.133609    69A      0.140829  
      70A      0.145267    71A      0.151987    72A      0.153675  
      73A      0.160842    74A      0.163245    75A      0.172676  
      76A      0.174499    77A      0.177800    78A      0.194210  
      79A      0.203096    80A      0.205865    81A      0.208553  
      82A      0.219094    83A      0.222500    84A      0.225018  
      85A      0.234025    86A      0.236918    87A      0.241303  
      88A      0.245508    89A      0.248904    90A      0.253454  
      91A      0.258913    92A      0.261811    93A      0.263123  
      94A      0.268572    95A      0.270976    96A      0.280615  
      97A      0.285592    98A      0.286235    99A      0.290628  
     100A      0.297159   101A      0.300930   102A      0.307965  
     103A      0.309397   104A      0.314247   105A      0.315690  
     106A      0.321422   107A      0.326268   108A      0.329329  
     109A      0.338159   110A      0.340124   111A      0.343874  
     112A      0.350822   113A      0.361453   114A      0.364093  
     115A      0.369735   116A      0.370727   117A      0.374222  
     118A      0.379358   119A      0.389299   120A      0.392057  
     121A      0.397156   122A      0.400863   123A      0.409544  
     124A      0.410681   125A      0.411938   126A      0.420496  
     127A      0.425428   128A      0.430105   129A      0.431993  
     130A      0.434416   131A      0.442585   132A      0.444103  
     133A      0.448505   134A      0.452152   135A      0.455788  
     136A      0.465228   137A      0.466876   138A      0.471278  
     139A      0.474307   140A      0.479082   141A      0.482925  
     142A      0.488258   143A      0.492845   144A      0.497542  
     145A      0.500528   146A      0.502896   147A      0.508809  
     148A      0.515921   149A      0.517872   150A      0.521352  
     151A      0.527482   152A      0.528867   153A      0.531479  
     154A      0.536305   155A      0.540494   156A      0.546818  
     157A      0.557027   158A      0.559399   159A      0.563427  
     160A      0.571708   161A      0.576251   162A      0.580495  
     163A      0.586045   164A      0.590196   165A      0.593685  
     166A      0.600802   167A      0.603531   168A      0.609527  
     169A      0.615047   170A      0.620713   171A      0.626675  
     172A      0.628925   173A      0.636916   174A      0.648508  
     175A      0.652171   176A      0.654013   177A      0.662747  
     178A      0.665059   179A      0.673113   180A      0.680739  
     181A      0.687647   182A      0.690903   183A      0.702583  
     184A      0.705816   185A      0.712936   186A      0.715399  
     187A      0.722972   188A      0.727850   189A      0.736824  
     190A      0.745007   191A      0.750699   192A      0.756693  
     193A      0.763915   194A      0.764446   195A      0.776355  
     196A      0.781266   197A      0.784454   198A      0.790576  
     199A      0.802169   200A      0.804513   201A      0.811961  
     202A      0.820226   203A      0.821757   204A      0.829760  
     205A      0.834286   206A      0.840270   207A      0.851637  
     208A      0.856316   209A      0.864106   210A      0.869262  
     211A      0.874357   212A      0.880982   213A      0.885078  
     214A      0.887792   215A      0.895091   216A      0.900459  
     217A      0.906351   218A      0.913873   219A      0.915954  
     220A      0.922089   221A      0.928838   222A      0.932015  
     223A      0.936993   224A      0.941879   225A      0.947705  
     226A      0.955102   227A      0.962763   228A      0.967976  
     229A      0.968952   230A      0.974782   231A      0.983931  
     232A      0.993557   233A      1.000400   234A      1.006884  
     235A      1.010715   236A      1.018785   237A      1.019587  
     238A      1.025212   239A      1.030906   240A      1.033469  
     241A      1.037699   242A      1.046384   243A      1.049148  
     244A      1.054953   245A      1.059609   246A      1.066737  
     247A      1.069964   248A      1.078293   249A      1.082837  
     250A      1.088243   251A      1.097779   252A      1.101424  
     253A      1.108331   254A      1.113546   255A      1.116494  
     256A      1.120942   257A      1.124803   258A      1.131107  
     259A      1.142865   260A      1.148057   261A      1.150261  
     262A      1.153647   263A      1.159189   264A      1.165592  
     265A      1.169747   266A      1.174063   267A      1.178813  
     268A      1.181856   269A      1.186476   270A      1.190694  
     271A      1.192056   272A      1.205305   273A      1.210447  
     274A      1.215916   275A      1.221976   276A      1.226964  
     277A      1.232469   278A      1.237050   279A      1.243169  
     280A      1.251513   281A      1.255942   282A      1.257597  
     283A      1.269766   284A      1.275345   285A      1.285075  
     286A      1.292179   287A      1.301384   288A      1.308994  
     289A      1.315079   290A      1.323663   291A      1.330017  
     292A      1.341911   293A      1.359384   294A      1.360927  
     295A      1.373890   296A      1.376417   297A      1.380813  
     298A      1.390402   299A      1.394750   300A      1.398096  
     301A      1.410090   302A      1.416928   303A      1.433753  
     304A      1.438600   305A      1.444680   306A      1.452953  
     307A      1.472129   308A      1.474187   309A      1.485550  
     310A      1.493550   311A      1.504406   312A      1.507570  
     313A      1.513392   314A      1.520243   315A      1.531704  
     316A      1.537277   317A      1.541645   318A      1.545150  
     319A      1.546658   320A      1.557128   321A      1.558345  
     322A      1.569297   323A      1.583543   324A      1.593092  
     325A      1.603989   326A      1.614884   327A      1.625761  
     328A      1.627522   329A      1.635236   330A      1.638821  
     331A      1.644663   332A      1.654723   333A      1.661553  
     334A      1.665029   335A      1.670688   336A      1.672907  
     337A      1.683587   338A      1.689975   339A      1.706833  
     340A      1.718917   341A      1.721476   342A      1.734212  
     343A      1.740686   344A      1.743370   345A      1.753913  
     346A      1.760040   347A      1.776905   348A      1.779643  
     349A      1.787729   350A      1.801087   351A      1.806413  
     352A      1.807480   353A      1.814194   354A      1.821648  
     355A      1.838788   356A      1.846249   357A      1.850954  
     358A      1.860725   359A      1.873067   360A      1.878442  
     361A      1.893528   362A      1.903440   363A      1.905543  
     364A      1.913391   365A      1.915230   366A      1.931165  
     367A      1.938826   368A      1.942838   369A      1.957622  
     370A      1.960468   371A      1.967647   372A      1.975841  
     373A      1.991950   374A      2.001476   375A      2.006731  
     376A      2.006958   377A      2.017063   378A      2.031920  
     379A      2.040265   380A      2.045689   381A      2.047939  
     382A      2.053433   383A      2.065598   384A      2.074585  
     385A      2.084952   386A      2.095187   387A      2.098332  
     388A      2.106797   389A      2.111664   390A      2.130001  
     391A      2.141183   392A      2.145910   393A      2.150110  
     394A      2.159652   395A      2.177751   396A      2.183652  
     397A      2.191526   398A      2.206442   399A      2.212601  
     400A      2.225667   401A      2.232092   402A      2.237428  
     403A      2.253843   404A      2.257252   405A      2.260244  
     406A      2.275565   407A      2.290897   408A      2.299789  
     409A      2.302432   410A      2.313256   411A      2.323288  
     412A      2.327856   413A      2.343439   414A      2.354252  
     415A      2.364234   416A      2.365816   417A      2.384449  
     418A      2.388140   419A      2.397909   420A      2.417717  
     421A      2.440224   422A      2.449146   423A      2.462861  
     424A      2.475517   425A      2.491015   426A      2.496568  
     427A      2.503667   428A      2.517154   429A      2.525934  
     430A      2.533311   431A      2.552217   432A      2.577312  
     433A      2.584378   434A      2.592330   435A      2.608678  
     436A      2.611477   437A      2.621538   438A      2.633700  
     439A      2.644290   440A      2.670667   441A      2.696653  
     442A      2.706622   443A      2.709811   444A      2.739033  
     445A      2.748269   446A      2.775170   447A      2.789392  
     448A      2.817814   449A      2.832701   450A      2.856225  
     451A      2.894898   452A      2.902533   453A      2.916878  
     454A      2.930379   455A      2.968140   456A      2.970744  
     457A      2.988350   458A      2.998714   459A      3.019561  
     460A      3.037611   461A      3.057696   462A      3.071784  
     463A      3.093522   464A      3.113104   465A      3.149415  
     466A      3.166928   467A      3.188463   468A      3.201404  
     469A      3.225216   470A      3.246329   471A      3.254725  
     472A      3.280433   473A      3.300194   474A      3.318277  
     475A      3.325682   476A      3.332061   477A      3.340571  
     478A      3.344316   479A      3.361135   480A      3.379871  
     481A      3.381738   482A      3.395444   483A      3.414172  
     484A      3.416952   485A      3.432415   486A      3.447732  
     487A      3.469284   488A      3.479313   489A      3.487705  
     490A      3.509317   491A      3.523463   492A      3.531960  
     493A      3.547635   494A      3.559614   495A      3.569490  
     496A      3.576861   497A      3.587474   498A      3.590729  
     499A      3.609792   500A      3.611428   501A      3.621728  
     502A      3.630888   503A      3.646737   504A      3.650888  
     505A      3.661723   506A      3.672359   507A      3.679970  
     508A      3.696628   509A      3.707067   510A      3.716554  
     511A      3.727927   512A      3.730982   513A      3.742910  
     514A      3.746588   515A      3.774000   516A      3.782030  
     517A      3.790376   518A      3.810201   519A      3.823136  
     520A      3.828926   521A      3.839325   522A      3.852812  
     523A      3.854126   524A      3.876012   525A      3.878818  
     526A      3.889694   527A      3.892576   528A      3.901473  
     529A      3.905573   530A      3.926000   531A      3.936418  
     532A      3.942366   533A      3.952493   534A      3.954384  
     535A      3.963945   536A      3.976670   537A      3.995317  
     538A      4.001980   539A      4.015172   540A      4.020487  
     541A      4.026384   542A      4.035155   543A      4.043449  
     544A      4.049881   545A      4.083345   546A      4.089219  
     547A      4.099072   548A      4.105228   549A      4.112971  
     550A      4.131545   551A      4.138909   552A      4.159150  
     553A      4.163460   554A      4.166482   555A      4.181945  
     556A      4.192666   557A      4.211661   558A      4.213896  
     559A      4.221440   560A      4.226623   561A      4.230556  
     562A      4.235086   563A      4.249792   564A      4.261239  
     565A      4.269582   566A      4.272928   567A      4.281068  
     568A      4.283547   569A      4.306284   570A      4.337253  
     571A      4.348382   572A      4.357812   573A      4.377194  
     574A      4.385947   575A      4.394325   576A      4.412018  
     577A      4.444613   578A      4.463624   579A      4.465149  
     580A      4.473066   581A      4.481152   582A      4.494792  
     583A      4.508022   584A      4.517867   585A      4.529414  
     586A      4.541192   587A      4.553583   588A      4.557221  
     589A      4.577217   590A      4.586593   591A      4.602738  
     592A      4.609963   593A      4.630180   594A      4.655564  
     595A      4.663835   596A      4.688416   597A      4.691179  
     598A      4.722198   599A      4.730350   600A      4.764020  
     601A      4.773970   602A      4.791009   603A      4.797326  
     604A      4.807823   605A      4.828559   606A      4.833024  
     607A      4.865244   608A      4.877280   609A      4.880743  
     610A      4.896126   611A      4.901913   612A      4.914286  
     613A      4.933512   614A      4.963721   615A      4.972421  
     616A      4.980120   617A      5.008441   618A      5.015340  
     619A      5.033412   620A      5.039752   621A      5.059974  
     622A      5.069715   623A      5.081579   624A      5.087876  
     625A      5.103249   626A      5.114975   627A      5.125255  
     628A      5.127475   629A      5.164744   630A      5.173129  
     631A      5.179186   632A      5.194814   633A      5.209660  
     634A      5.237269   635A      5.240087   636A      5.246488  
     637A      5.257110   638A      5.265469   639A      5.289840  
     640A      5.294852   641A      5.308541   642A      5.319997  
     643A      5.343937   644A      5.376779   645A      5.398545  
     646A      5.411448   647A      5.460993   648A      5.466824  
     649A      5.485988   650A      5.490780   651A      5.506198  
     652A      5.532329   653A      5.537834   654A      5.567174  
     655A      5.588566   656A      5.593555   657A      5.609296  
     658A      5.625332   659A      5.651268   660A      5.677211  
     661A      5.711310   662A      5.713820   663A      5.735274  
     664A      5.740481   665A      5.753256   666A      5.769980  
     667A      5.771069   668A      5.797737   669A      5.806151  
     670A      5.819170   671A      5.825152   672A      5.851079  
     673A      5.863999   674A      5.876108   675A      5.882852  
     676A      5.921896   677A      5.924699   678A      5.944062  
     679A      5.968202   680A      5.989267   681A      6.006798  
     682A      6.024460   683A      6.062988   684A      6.076114  
     685A      6.093133   686A      6.119429   687A      6.131045  
     688A      6.154360   689A      6.163261   690A      6.169635  
     691A      6.191990   692A      6.197497   693A      6.209510  
     694A      6.219089   695A      6.268043   696A      6.320002  
     697A      6.339678   698A      6.383998   699A      6.432389  
     700A      6.527376   701A      6.543093   702A      6.556978  
     703A      6.599285   704A      6.643576   705A      6.677541  
     706A      6.707366   707A      6.744962   708A      6.757456  
     709A      6.795202   710A      6.805531   711A      6.845663  
     712A      6.867135   713A      6.915370   714A      6.921986  
     715A      6.975020   716A      7.015262   717A      7.103955  
     718A      7.134423   719A      7.171810   720A      7.219499  
     721A      7.240623   722A      7.308712   723A      7.604386  
     724A      7.866917   725A     15.654324   726A     15.821070  
     727A     16.479970   728A     16.609480   729A     17.444744  
     730A     18.257029   731A     18.567282   732A     18.679739  
     733A     19.028894   734A     19.330653   735A     20.385248  
     736A     22.146516  

    Final Occupation by Irrep:
              A 
    DOCC [    42 ]

  @DF-RHF Final Energy:  -525.54360730957194

   => Energetics <=

    Nuclear Repulsion Energy =            658.8225754890861481
    One-Electron Energy =               -2019.8955493569640112
    Two-Electron Energy =                 835.5293665583059237
    Total Energy =                       -525.5436073095719394

Computation Completed

*** tstop() called on c446-001.stampede2.tacc.utexas.edu at Sun Mar 21 10:44:07 2021
Module time:
	user time   =     924.76 seconds =      15.41 minutes
	system time =      58.60 seconds =       0.98 minutes
	total time  =         48 seconds =       0.80 minutes
Total time:
	user time   =     924.76 seconds =      15.41 minutes
	system time =      58.60 seconds =       0.98 minutes
	total time  =         48 seconds =       0.80 minutes
   => Loading Basis Set <=

    Name: (AUG-CC-PVTZ AUX)
    Role: RIFIT
    Keyword: DF_BASIS_MP2
    atoms 1-4   entry N          line   206 file /home1/07844/xy3866/miniconda3/envs/p4env/share/psi4/basis/aug-cc-pvtz-ri.gbs 
    atoms 5-12  entry C          line   148 file /home1/07844/xy3866/miniconda3/envs/p4env/share/psi4/basis/aug-cc-pvtz-ri.gbs 
    atoms 13-20 entry H          line    30 file /home1/07844/xy3866/miniconda3/envs/p4env/share/psi4/basis/aug-cc-pvtz-ri.gbs 


*** tstart() called on c446-001.stampede2.tacc.utexas.edu
*** at Sun Mar 21 10:44:08 2021


  //>>>>>>>>>>>>>>>>>>>>>>>>>>>>>>>>>>>//
  //               DFMP2               //
  //<<<<<<<<<<<<<<<<<<<<<<<<<<<<<<<<<<<//

	 --------------------------------------------------------
	                          DF-MP2                         
	      2nd-Order Density-Fitted Moller-Plesset Theory     
	              RMP2 Wavefunction,  32 Threads             
	                                                         
	        Rob Parrish, Justin Turney, Andy Simmonett,      
	           Ed Hohenstein, and C. David Sherrill          
	 --------------------------------------------------------

   => Auxiliary Basis Set <=

  Basis Set: (AUG-CC-PVTZ AUX)
    Blend: AUG-CC-PVTZ-RI
    Number of shells: 448
    Number of basis functions: 1640
    Number of Cartesian functions: 2072
    Spherical Harmonics?: true
    Max angular momentum: 4

	 --------------------------------------------------------
	                 NBF =   736, NAUX =  1640
	 --------------------------------------------------------
	   CLASS    FOCC     OCC    AOCC    AVIR     VIR    FVIR
	   PAIRS       0      42      42     694     694       0
	 --------------------------------------------------------

  DFHelper Memory: AOs need 6.298 GiB; user supplied 22.352 GiB. Using in-core AOs.


         ------------------------------------------------------------
                                     CPHF                           
                                  Rob Parrish                       
         ------------------------------------------------------------

  ==> Geometry <==

    Molecular point group: c1
    Full point group: C1

    Geometry (in Angstrom), charge = 0, multiplicity = 1:

       Center              X                  Y                   Z               Mass       
    ------------   -----------------  -----------------  -----------------  -----------------
         N            0.823872598998    -0.262947469860    -0.037455838412    14.003074004430
         N            1.358349998998    -1.472266369860    -0.263169238412    14.003074004430
         N           -1.074009401002     1.023635530140    -0.453200838412    14.003074004430
         N           -1.260856401002    -1.207115469860     0.429651161588    14.003074004430
         C            1.767488598998     0.731185530140     0.134144161588    12.000000000000
         C            2.986387598998     0.089291530140     0.008528161588    12.000000000000
         C           -0.582577401002    -0.143439469860    -0.017925838412    12.000000000000
         C            1.461714598998     2.160781530140     0.438583161588    12.000000000000
         C            2.687163598998    -1.263204469860    -0.239393838412    12.000000000000
         C           -2.413312401002     1.128894530140    -0.431307838412    12.000000000000
         C           -2.596143401002    -1.081446469860     0.404158161588    12.000000000000
         C           -3.233689401002     0.082997530140    -0.020700838412    12.000000000000
         H            3.960634598998     0.550998530140     0.099847161588     1.007825032230
         H            1.020964598998     2.674781530140    -0.417540838412     1.007825032230
         H            0.762219598998     2.256402530140     1.273937161588     1.007825032230
         H            2.394203598998     2.660604530140     0.713947161588     1.007825032230
         H            3.363926598998    -2.091128469860    -0.409318838412     1.007825032230
         H           -2.822708401002     2.077595530140    -0.772777838412     1.007825032230
         H           -3.160663401002    -1.944040469860     0.753062161588     1.007825032230
         H           -4.314903401002     0.171929530140    -0.024258838412     1.007825032230

  Nuclear repulsion =  658.822575489086148
  Reference energy  = -525.543607309571939

  ==> Basis Set <==

  Basis Set: AUG-CC-PVTZ
    Blend: AUG-CC-PVTZ
    Number of shells: 240
    Number of basis functions: 736
    Number of Cartesian functions: 860
    Spherical Harmonics?: true
    Max angular momentum: 3

  ==> CGRSolver (by Rob Parrish) <==

   Number of roots    =         1
   Preconditioning    =    JACOBI
   Convergence cutoff =     1E-06
   Maximum iterations =       100

  ==> CPHFRHamiltonian (by Rob Parrish) <== 

  ==> MemDFJK: Density-Fitted J/K Matrices <==

    J tasked:                   Yes
    K tasked:                   Yes
    wK tasked:                   No
    OpenMP threads:              32
    Memory [MiB]:             22888
    Algorithm:                 Core
    Schwarz Cutoff:           1E-12
    Mask sparsity (%):       7.3820
    Fitting Condition:        1E-10

   => Auxiliary Basis Set <=

  Basis Set: (AUG-CC-PVTZ AUX)
    Blend: AUG-CC-PVTZ-JKFIT
    Number of shells: 472
    Number of basis functions: 1616
    Number of Cartesian functions: 2012
    Spherical Harmonics?: true
    Max angular momentum: 4

  ==> CPHF Iterations <==

  => Iterations <=

             Iter  Converged  Remaining    Residual
  CGR           1          0          1   1.144E-01
  CGR           2          0          1   5.573E-02
  CGR           3          0          1   3.155E-02
  CGR           4          0          1   9.853E-03
  CGR           5          0          1   3.800E-03
  CGR           6          0          1   1.599E-03
  CGR           7          0          1   6.103E-04
  CGR           8          0          1   2.769E-04
  CGR           9          0          1   1.044E-04
  CGR          10          0          1   3.908E-05
  CGR          11          0          1   1.457E-05
  CGR          12          0          1   4.791E-06
  CGR          13          0          1   2.027E-06
  CGR          14          1          0   7.368E-07

    CGRSolver converged.

	-----------------------------------------------------------
	 ==================> DF-MP2 Energies <==================== 
	-----------------------------------------------------------
	 Reference Energy          =    -525.5436073095719394 [Eh]
	 Singles Energy            =      -0.0000000000000000 [Eh]
	 Same-Spin Energy          =      -0.5777830966099686 [Eh]
	 Opposite-Spin Energy      =      -1.7385145239737438 [Eh]
	 Correlation Energy        =      -2.3162976205837125 [Eh]
	 Total Energy              =    -527.8599049301556079 [Eh]
	-----------------------------------------------------------
	 ================> DF-SCS-MP2 Energies <================== 
	-----------------------------------------------------------
	 SCS Same-Spin Scale       =       0.3333333333333333 [-]
	 SCS Opposite-Spin Scale   =       1.2000000000000000 [-]
	 SCS Same-Spin Energy      =      -0.1925943655366562 [Eh]
	 SCS Opposite-Spin Energy  =      -2.0862174287684927 [Eh]
	 SCS Correlation Energy    =      -2.2788117943051489 [Eh]
	 SCS Total Energy          =    -527.8224191038771096 [Eh]
	-----------------------------------------------------------



Properties will be evaluated at  -0.000000,  -0.000000,   0.000000 [a0]

Properties computed using the MP2 density matrix

  Nuclear Dipole Moment: [e a0]
     X:     1.1289      Y:     5.9652      Z:     1.1417

  Electronic Dipole Moment: [e a0]
     X:    -2.1624      Y:    -4.9675      Z:    -0.9701

  Dipole Moment: [e a0]
     X:    -1.0335      Y:     0.9977      Z:     0.1716     Total:     1.4468

  Dipole Moment: [D]
     X:    -2.6270      Y:     2.5359      Z:     0.4362     Total:     3.6773


*** tstop() called on c446-001.stampede2.tacc.utexas.edu at Sun Mar 21 10:49:08 2021
Module time:
	user time   =    2821.16 seconds =      47.02 minutes
	system time =      84.72 seconds =       1.41 minutes
	total time  =        300 seconds =       5.00 minutes
Total time:
	user time   =    3746.93 seconds =      62.45 minutes
	system time =     143.34 seconds =       2.39 minutes
	total time  =        349 seconds =       5.82 minutes

    Psi4 stopped on: Sunday, 21 March 2021 10:49AM
    Psi4 wall time for execution: 0:05:50.53

*** Psi4 exiting successfully. Buy a developer a beer!
