
    -----------------------------------------------------------------------
          Psi4: An Open-Source Ab Initio Electronic Structure Package
                               Psi4 1.3.2 release

                         Git: Rev {HEAD} ecbda83 


    R. M. Parrish, L. A. Burns, D. G. A. Smith, A. C. Simmonett,
    A. E. DePrince III, E. G. Hohenstein, U. Bozkaya, A. Yu. Sokolov,
    R. Di Remigio, R. M. Richard, J. F. Gonthier, A. M. James,
    H. R. McAlexander, A. Kumar, M. Saitow, X. Wang, B. P. Pritchard,
    P. Verma, H. F. Schaefer III, K. Patkowski, R. A. King, E. F. Valeev,
    F. A. Evangelista, J. M. Turney, T. D. Crawford, and C. D. Sherrill,
    J. Chem. Theory Comput. 13(7) pp 3185--3197 (2017).
    (doi: 10.1021/acs.jctc.7b00174)


                         Additional Contributions by
    P. Kraus, H. Kruse, M. H. Lechner, M. C. Schieber, R. A. Shaw,
    A. Alenaizan, R. Galvelis, Z. L. Glick, S. Lehtola, and J. P. Misiewicz

    -----------------------------------------------------------------------


    Psi4 started on: Wednesday, 03 February 2021 12:08PM

    Process ID: 60231
    Host:       node144.bme.utexas.edu
    PSIDATADIR: /home/xy3866/psi4conda/share/psi4
    Memory:     500.0 MiB
    Threads:    8
    
  ==> Input File <==

--------------------------------------------------------------------------
#psi4
#
memory 32 gb

molecule  {
0 1
  N        0.8160970    -0.2990240    -0.0443680
  N        1.3585440    -1.5263750    -0.2734470
  N       -1.0817850     0.9875590    -0.4601130
  N       -1.2686320    -1.2431920     0.4227390
  C        1.7597130     0.6951090     0.1272320
  C        2.9300275    -0.0282535    -0.0164092
  C       -0.5903530    -0.1795160    -0.0248380
  C        1.4539390     2.1247050     0.4316710
  C        2.6793880    -1.2992810    -0.2463060
  C       -2.4210880     1.0928180    -0.4382200
  C       -2.6039190    -1.1175230     0.3972460
  C       -3.2414650     0.0469210    -0.0276130
  H        3.9528590     0.5149220     0.0929350
  H        1.0131890     2.6387050    -0.4244530
  H        0.7544440     2.2203260     1.2670250
  H        2.3864280     2.6245280     0.7070350
  H        3.3561510    -2.1272050    -0.4162310
  H       -2.8304840     2.0415190    -0.7796900
  H       -3.1684390    -1.9801170     0.7461500
  H       -4.3226790     0.1358530    -0.0311710
units angstrom
no_reorient  #important for SAPT in psi4, default
symmetry c1  #important for SAPT in psi4, default
}

set PROPERTIES_ORIGIN ["COM"]
properties('MP2/aug-cc-pvtz', properties = ['dipole'])
--------------------------------------------------------------------------

  Memory set to  29.802 GiB by Python driver.
    SCF Algorithm Type (re)set to DF.

*** tstart() called on node144.bme.utexas.edu
*** at Wed Feb  3 12:08:42 2021

   => Loading Basis Set <=

    Name: AUG-CC-PVTZ
    Role: ORBITAL
    Keyword: BASIS
    atoms 1-4   entry N          line   281 file /home/xy3866/psi4conda/share/psi4/basis/aug-cc-pvtz.gbs 
    atoms 5-12  entry C          line   235 file /home/xy3866/psi4conda/share/psi4/basis/aug-cc-pvtz.gbs 
    atoms 13-20 entry H          line    36 file /home/xy3866/psi4conda/share/psi4/basis/aug-cc-pvtz.gbs 


         ---------------------------------------------------------
                                   SCF
               by Justin Turney, Rob Parrish, Andy Simmonett
                          and Daniel G. A. Smith
                              RHF Reference
                        8 Threads,  30517 MiB Core
         ---------------------------------------------------------

  ==> Geometry <==

    Molecular point group: c1
    Full point group: C1

    Geometry (in Angstrom), charge = 0, multiplicity = 1:

       Center              X                  Y                   Z               Mass       
    ------------   -----------------  -----------------  -----------------  -----------------
         N            0.826817564838    -0.255262774387    -0.035810164093    14.003074004430
         N            1.369264564838    -1.482613774387    -0.264889164093    14.003074004430
         N           -1.071064435162     1.031320225613    -0.451555164093    14.003074004430
         N           -1.257911435162    -1.199430774387     0.431296835907    14.003074004430
         C            1.770433564838     0.738870225613     0.135789835907    12.000000000000
         C            2.940748064838     0.015507725613    -0.007851364093    12.000000000000
         C           -0.579632435162    -0.135754774387    -0.016280164093    12.000000000000
         C            1.464659564838     2.168466225613     0.440228835907    12.000000000000
         C            2.690108564838    -1.255519774387    -0.237748164093    12.000000000000
         C           -2.410367435162     1.136579225613    -0.429662164093    12.000000000000
         C           -2.593198435162    -1.073761774387     0.405803835907    12.000000000000
         C           -3.230744435162     0.090682225613    -0.019055164093    12.000000000000
         H            3.963579564838     0.558683225613     0.101492835907     1.007825032230
         H            1.023909564838     2.682466225613    -0.415895164093     1.007825032230
         H            0.765164564838     2.264087225613     1.275582835907     1.007825032230
         H            2.397148564838     2.668289225613     0.715592835907     1.007825032230
         H            3.366871564838    -2.083443774387    -0.407673164093     1.007825032230
         H           -2.819763435162     2.085280225613    -0.771132164093     1.007825032230
         H           -3.157718435162    -1.936355774387     0.754707835907     1.007825032230
         H           -4.311958435162     0.179614225613    -0.022613164093     1.007825032230

  Running in c1 symmetry.

  Rotational constants: A =      0.07388  B =      0.02419  C =      0.01894 [cm^-1]
  Rotational constants: A =   2214.85447  B =    725.15993  C =    567.84452 [MHz]
  Nuclear repulsion =  659.885459850677421

  Charge       = 0
  Multiplicity = 1
  Electrons    = 84
  Nalpha       = 42
  Nbeta        = 42

  ==> Algorithm <==

  SCF Algorithm Type is DF.
  DIIS enabled.
  MOM disabled.
  Fractional occupation disabled.
  Guess Type is SAD.
  Energy threshold   = 1.00e-10
  Density threshold  = 1.00e-10
  Integral threshold = 0.00e+00

  ==> Primary Basis <==

  Basis Set: AUG-CC-PVTZ
    Blend: AUG-CC-PVTZ
    Number of shells: 240
    Number of basis function: 736
    Number of Cartesian functions: 860
    Spherical Harmonics?: true
    Max angular momentum: 3

   => Loading Basis Set <=

    Name: (AUG-CC-PVTZ AUX)
    Role: JKFIT
    Keyword: DF_BASIS_SCF
    atoms 1-4   entry N          line   224 file /home/xy3866/psi4conda/share/psi4/basis/aug-cc-pvtz-jkfit.gbs 
    atoms 5-12  entry C          line   162 file /home/xy3866/psi4conda/share/psi4/basis/aug-cc-pvtz-jkfit.gbs 
    atoms 13-20 entry H          line    70 file /home/xy3866/psi4conda/share/psi4/basis/aug-cc-pvtz-jkfit.gbs 

  ==> Pre-Iterations <==

   -------------------------------------------------------
    Irrep   Nso     Nmo     Nalpha   Nbeta   Ndocc  Nsocc
   -------------------------------------------------------
     A        736     736       0       0       0       0
   -------------------------------------------------------
    Total     736     736      42      42      42       0
   -------------------------------------------------------

  ==> Integral Setup <==

  DFHelper Memory: AOs need 6.202 GiB; user supplied 22.352 GiB. Using in-core AOs.

  ==> MemDFJK: Density-Fitted J/K Matrices <==

    J tasked:                   Yes
    K tasked:                   Yes
    wK tasked:                   No
    OpenMP threads:               8
    Memory [MiB]:             22888
    Algorithm:                 Disk
    Schwarz Cutoff:           1E-12
    Mask sparsity (%):       7.3687
    Fitting Condition:        1E-10

   => Auxiliary Basis Set <=

  Basis Set: (AUG-CC-PVTZ AUX)
    Blend: AUG-CC-PVTZ-JKFIT
    Number of shells: 472
    Number of basis function: 1616
    Number of Cartesian functions: 2012
    Spherical Harmonics?: true
    Max angular momentum: 4

  Minimum eigenvalue in the overlap matrix is 2.0998159438E-06.
  Using Symmetric Orthogonalization.

  SCF Guess: Superposition of Atomic Densities via on-the-fly atomic UHF.

  ==> Iterations <==

                           Total Energy        Delta E     RMS |[F,P]|

   @DF-RHF iter SAD:  -525.18571385352732   -5.25186e+02   0.00000e+00 
   @DF-RHF iter   1:  -525.23387703498656   -4.81632e-02   9.73508e-04 DIIS
   @DF-RHF iter   2:  -525.47482454123713   -2.40948e-01   4.61938e-04 DIIS
   @DF-RHF iter   3:  -525.52303898188643   -4.82144e-02   1.13529e-04 DIIS
   @DF-RHF iter   4:  -525.52707170146527   -4.03272e-03   5.45815e-05 DIIS
   @DF-RHF iter   5:  -525.52791038591818   -8.38684e-04   1.03258e-05 DIIS
   @DF-RHF iter   6:  -525.52795737746828   -4.69916e-05   4.17704e-06 DIIS
   @DF-RHF iter   7:  -525.52796758170575   -1.02042e-05   1.65757e-06 DIIS
   @DF-RHF iter   8:  -525.52796985413590   -2.27243e-06   7.04916e-07 DIIS
   @DF-RHF iter   9:  -525.52797041311908   -5.58983e-07   3.34918e-07 DIIS
   @DF-RHF iter  10:  -525.52797051498146   -1.01862e-07   1.06840e-07 DIIS
   @DF-RHF iter  11:  -525.52797052390201   -8.92055e-09   4.93561e-08 DIIS
   @DF-RHF iter  12:  -525.52797052521305   -1.31104e-09   1.84074e-08 DIIS
   @DF-RHF iter  13:  -525.52797052557219   -3.59137e-10   8.19855e-09 DIIS
   @DF-RHF iter  14:  -525.52797052563767   -6.54836e-11   3.73802e-09 DIIS
   @DF-RHF iter  15:  -525.52797052565643   -1.87583e-11   1.54770e-09 DIIS
   @DF-RHF iter  16:  -525.52797052565563    7.95808e-13   8.81952e-10 DIIS
   @DF-RHF iter  17:  -525.52797052565859   -2.95586e-12   2.51710e-10 DIIS
   @DF-RHF iter  18:  -525.52797052565893   -3.41061e-13   9.71738e-11 DIIS
  Energy and wave function converged.


  ==> Post-Iterations <==

    Orbital Energies [Eh]
    ---------------------

    Doubly Occupied:                                                      

       1A    -15.644413     2A    -15.583390     3A    -15.579222  
       4A    -15.576254     5A    -11.367321     6A    -11.312034  
       7A    -11.309799     8A    -11.284819     9A    -11.253507  
      10A    -11.242229    11A    -11.237630    12A    -11.214007  
      13A     -1.389283    14A     -1.314454    15A     -1.206569  
      16A     -1.134677    17A     -1.083239    18A     -1.049638  
      19A     -0.963215    20A     -0.909256    21A     -0.900540  
      22A     -0.804672    23A     -0.786461    24A     -0.716001  
      25A     -0.709632    26A     -0.684961    27A     -0.639733  
      28A     -0.632464    29A     -0.603642    30A     -0.589618  
      31A     -0.582904    32A     -0.575612    33A     -0.563951  
      34A     -0.555427    35A     -0.531927    36A     -0.491487  
      37A     -0.452893    38A     -0.430808    39A     -0.420384  
      40A     -0.412813    41A     -0.344072    42A     -0.326597  

    Virtual:                                                              

      43A      0.022629    44A      0.030376    45A      0.033871  
      46A      0.039126    47A      0.044484    48A      0.048003  
      49A      0.056706    50A      0.065489    51A      0.070556  
      52A      0.075392    53A      0.081269    54A      0.085487  
      55A      0.091359    56A      0.099412    57A      0.102140  
      58A      0.107730    59A      0.108762    60A      0.112383  
      61A      0.116057    62A      0.117928    63A      0.122297  
      64A      0.124542    65A      0.126074    66A      0.129146  
      67A      0.130992    68A      0.133147    69A      0.140918  
      70A      0.145049    71A      0.152079    72A      0.153559  
      73A      0.160843    74A      0.163604    75A      0.172853  
      76A      0.174588    77A      0.176218    78A      0.194284  
      79A      0.201849    80A      0.205617    81A      0.209505  
      82A      0.220018    83A      0.221867    84A      0.231959  
      85A      0.235568    86A      0.238038    87A      0.241011  
      88A      0.244947    89A      0.249161    90A      0.254292  
      91A      0.258556    92A      0.261260    93A      0.262346  
      94A      0.268526    95A      0.270738    96A      0.280492  
      97A      0.282756    98A      0.285565    99A      0.289517  
     100A      0.297281   101A      0.300854   102A      0.306960  
     103A      0.309233   104A      0.313176   105A      0.315629  
     106A      0.321226   107A      0.325108   108A      0.330171  
     109A      0.337556   110A      0.339977   111A      0.344407  
     112A      0.349644   113A      0.359687   114A      0.362767  
     115A      0.368705   116A      0.370842   117A      0.375647  
     118A      0.379274   119A      0.388740   120A      0.391998  
     121A      0.398032   122A      0.399142   123A      0.408294  
     124A      0.410574   125A      0.411915   126A      0.422110  
     127A      0.425350   128A      0.430326   129A      0.431072  
     130A      0.435636   131A      0.442017   132A      0.442761  
     133A      0.448387   134A      0.451185   135A      0.455556  
     136A      0.462711   137A      0.465821   138A      0.471156  
     139A      0.473035   140A      0.478067   141A      0.482821  
     142A      0.488541   143A      0.492653   144A      0.496302  
     145A      0.499696   146A      0.502296   147A      0.508636  
     148A      0.515545   149A      0.517594   150A      0.522816  
     151A      0.526747   152A      0.529368   153A      0.531946  
     154A      0.536778   155A      0.539508   156A      0.549294  
     157A      0.555823   158A      0.559145   159A      0.563142  
     160A      0.571692   161A      0.575829   162A      0.580299  
     163A      0.585325   164A      0.591330   165A      0.592678  
     166A      0.599389   167A      0.600660   168A      0.610253  
     169A      0.614333   170A      0.622265   171A      0.627294  
     172A      0.630556   173A      0.636894   174A      0.648845  
     175A      0.651687   176A      0.657327   177A      0.662172  
     178A      0.668224   179A      0.673427   180A      0.680732  
     181A      0.687416   182A      0.692666   183A      0.704134  
     184A      0.707344   185A      0.713143   186A      0.715969  
     187A      0.721117   188A      0.730580   189A      0.738814  
     190A      0.745872   191A      0.752517   192A      0.756822  
     193A      0.762782   194A      0.765399   195A      0.777195  
     196A      0.784105   197A      0.788321   198A      0.791329  
     199A      0.802812   200A      0.808697   201A      0.811253  
     202A      0.819854   203A      0.822482   204A      0.831716  
     205A      0.835514   206A      0.837833   207A      0.854617  
     208A      0.858910   209A      0.863019   210A      0.872333  
     211A      0.874454   212A      0.881090   213A      0.885952  
     214A      0.893065   215A      0.895346   216A      0.900853  
     217A      0.907918   218A      0.911871   219A      0.918177  
     220A      0.921135   221A      0.929273   222A      0.931719  
     223A      0.936392   224A      0.943363   225A      0.949480  
     226A      0.959601   227A      0.965948   228A      0.967045  
     229A      0.972306   230A      0.974381   231A      0.982644  
     232A      0.992142   233A      1.003139   234A      1.007307  
     235A      1.011242   236A      1.018407   237A      1.021059  
     238A      1.024621   239A      1.030518   240A      1.033305  
     241A      1.037607   242A      1.043227   243A      1.050697  
     244A      1.053837   245A      1.062517   246A      1.067765  
     247A      1.069370   248A      1.076892   249A      1.085592  
     250A      1.088292   251A      1.099338   252A      1.103309  
     253A      1.108708   254A      1.112851   255A      1.115601  
     256A      1.123332   257A      1.125348   258A      1.131816  
     259A      1.143577   260A      1.149666   261A      1.152851  
     262A      1.154938   263A      1.159606   264A      1.166063  
     265A      1.169747   266A      1.173812   267A      1.178999  
     268A      1.182776   269A      1.185675   270A      1.192032  
     271A      1.192354   272A      1.206052   273A      1.210668  
     274A      1.217532   275A      1.222537   276A      1.224781  
     277A      1.233941   278A      1.237614   279A      1.242863  
     280A      1.250638   281A      1.256415   282A      1.259342  
     283A      1.269527   284A      1.276971   285A      1.285456  
     286A      1.288814   287A      1.301900   288A      1.309109  
     289A      1.317484   290A      1.324040   291A      1.330472  
     292A      1.344162   293A      1.357687   294A      1.359890  
     295A      1.373499   296A      1.375430   297A      1.380141  
     298A      1.392657   299A      1.394232   300A      1.399390  
     301A      1.408714   302A      1.416273   303A      1.433292  
     304A      1.441399   305A      1.443606   306A      1.453382  
     307A      1.471799   308A      1.475001   309A      1.482483  
     310A      1.491996   311A      1.504723   312A      1.506738  
     313A      1.514922   314A      1.520500   315A      1.532164  
     316A      1.538162   317A      1.543682   318A      1.545867  
     319A      1.550408   320A      1.558156   321A      1.562421  
     322A      1.572079   323A      1.585874   324A      1.595625  
     325A      1.606700   326A      1.618356   327A      1.625424  
     328A      1.632839   329A      1.635873   330A      1.640763  
     331A      1.644583   332A      1.653341   333A      1.662308  
     334A      1.667996   335A      1.670467   336A      1.675348  
     337A      1.684216   338A      1.693146   339A      1.704607  
     340A      1.719901   341A      1.721233   342A      1.732300  
     343A      1.741938   344A      1.745557   345A      1.754042  
     346A      1.761418   347A      1.775439   348A      1.781519  
     349A      1.790610   350A      1.804538   351A      1.807086  
     352A      1.810997   353A      1.819294   354A      1.820994  
     355A      1.839817   356A      1.840261   357A      1.850322  
     358A      1.862790   359A      1.871100   360A      1.878056  
     361A      1.892726   362A      1.904032   363A      1.909856  
     364A      1.911080   365A      1.920380   366A      1.930760  
     367A      1.941453   368A      1.943772   369A      1.958214  
     370A      1.959822   371A      1.964916   372A      1.972347  
     373A      1.991841   374A      1.994694   375A      2.005112  
     376A      2.008462   377A      2.022154   378A      2.032552  
     379A      2.039081   380A      2.046554   381A      2.050481  
     382A      2.055796   383A      2.068329   384A      2.071573  
     385A      2.084102   386A      2.091681   387A      2.094974  
     388A      2.103119   389A      2.112906   390A      2.133915  
     391A      2.140951   392A      2.145186   393A      2.149489  
     394A      2.161734   395A      2.176086   396A      2.191916  
     397A      2.198350   398A      2.205533   399A      2.213426  
     400A      2.222732   401A      2.229018   402A      2.243084  
     403A      2.247198   404A      2.255608   405A      2.261774  
     406A      2.269407   407A      2.288296   408A      2.295544  
     409A      2.302831   410A      2.315011   411A      2.326228  
     412A      2.340029   413A      2.350274   414A      2.354859  
     415A      2.364189   416A      2.367192   417A      2.387472  
     418A      2.392546   419A      2.403577   420A      2.416273  
     421A      2.437595   422A      2.448660   423A      2.468966  
     424A      2.472592   425A      2.492125   426A      2.493187  
     427A      2.508653   428A      2.519333   429A      2.527930  
     430A      2.530780   431A      2.552429   432A      2.580206  
     433A      2.587769   434A      2.601005   435A      2.606611  
     436A      2.623479   437A      2.631552   438A      2.637461  
     439A      2.650190   440A      2.685323   441A      2.697705  
     442A      2.707797   443A      2.713087   444A      2.738768  
     445A      2.748989   446A      2.783611   447A      2.792327  
     448A      2.816714   449A      2.836841   450A      2.859419  
     451A      2.896045   452A      2.911664   453A      2.928016  
     454A      2.931948   455A      2.958482   456A      2.987859  
     457A      2.996699   458A      3.004440   459A      3.028189  
     460A      3.046229   461A      3.055146   462A      3.068926  
     463A      3.095933   464A      3.111047   465A      3.152651  
     466A      3.184050   467A      3.196995   468A      3.203486  
     469A      3.234394   470A      3.252760   471A      3.258935  
     472A      3.280831   473A      3.299105   474A      3.316587  
     475A      3.326238   476A      3.340687   477A      3.341073  
     478A      3.347357   479A      3.363093   480A      3.383162  
     481A      3.393808   482A      3.408138   483A      3.421498  
     484A      3.423517   485A      3.435221   486A      3.451721  
     487A      3.460702   488A      3.481868   489A      3.492046  
     490A      3.498981   491A      3.530176   492A      3.545412  
     493A      3.558418   494A      3.560102   495A      3.571403  
     496A      3.574223   497A      3.586209   498A      3.591347  
     499A      3.610842   500A      3.613349   501A      3.628175  
     502A      3.634190   503A      3.647928   504A      3.660404  
     505A      3.663929   506A      3.675012   507A      3.683467  
     508A      3.696803   509A      3.710077   510A      3.718490  
     511A      3.730166   512A      3.731367   513A      3.744382  
     514A      3.744943   515A      3.772237   516A      3.784584  
     517A      3.788159   518A      3.803570   519A      3.823770  
     520A      3.830129   521A      3.840444   522A      3.856377  
     523A      3.859638   524A      3.876413   525A      3.882940  
     526A      3.888172   527A      3.895080   528A      3.902245  
     529A      3.908779   530A      3.923501   531A      3.936826  
     532A      3.942530   533A      3.951178   534A      3.959239  
     535A      3.962875   536A      3.967725   537A      3.998574  
     538A      4.000803   539A      4.011746   540A      4.018117  
     541A      4.028969   542A      4.035622   543A      4.044169  
     544A      4.053386   545A      4.079794   546A      4.084435  
     547A      4.100115   548A      4.105505   549A      4.110114  
     550A      4.137582   551A      4.146403   552A      4.159974  
     553A      4.167351   554A      4.173967   555A      4.183373  
     556A      4.193800   557A      4.208299   558A      4.213727  
     559A      4.223367   560A      4.224536   561A      4.229037  
     562A      4.234490   563A      4.249759   564A      4.260999  
     565A      4.271828   566A      4.281274   567A      4.286254  
     568A      4.289458   569A      4.306795   570A      4.338171  
     571A      4.349797   572A      4.365806   573A      4.374902  
     574A      4.387724   575A      4.399637   576A      4.407476  
     577A      4.447583   578A      4.460456   579A      4.466908  
     580A      4.471966   581A      4.475379   582A      4.492344  
     583A      4.513569   584A      4.524398   585A      4.535911  
     586A      4.549984   587A      4.559093   588A      4.565434  
     589A      4.578580   590A      4.589008   591A      4.608739  
     592A      4.616595   593A      4.633375   594A      4.654226  
     595A      4.671808   596A      4.689572   597A      4.694002  
     598A      4.725392   599A      4.731491   600A      4.760626  
     601A      4.782894   602A      4.792239   603A      4.797250  
     604A      4.816183   605A      4.821719   606A      4.844482  
     607A      4.861539   608A      4.886367   609A      4.889816  
     610A      4.906095   611A      4.930560   612A      4.955243  
     613A      4.959921   614A      4.965649   615A      4.982811  
     616A      4.990235   617A      5.014466   618A      5.023754  
     619A      5.033797   620A      5.041003   621A      5.058205  
     622A      5.073080   623A      5.087264   624A      5.096680  
     625A      5.099513   626A      5.122202   627A      5.127701  
     628A      5.133196   629A      5.149968   630A      5.166943  
     631A      5.186068   632A      5.189801   633A      5.206419  
     634A      5.232709   635A      5.238690   636A      5.250631  
     637A      5.254796   638A      5.267394   639A      5.281404  
     640A      5.298662   641A      5.303831   642A      5.321899  
     643A      5.338738   644A      5.363066   645A      5.392344  
     646A      5.412537   647A      5.452296   648A      5.472707  
     649A      5.483920   650A      5.489872   651A      5.496362  
     652A      5.525953   653A      5.544523   654A      5.561554  
     655A      5.580997   656A      5.591511   657A      5.605973  
     658A      5.609397   659A      5.652668   660A      5.672879  
     661A      5.705946   662A      5.715450   663A      5.732215  
     664A      5.751395   665A      5.753948   666A      5.767905  
     667A      5.776795   668A      5.790653   669A      5.805179  
     670A      5.815369   671A      5.827683   672A      5.847408  
     673A      5.863786   674A      5.879087   675A      5.883897  
     676A      5.927254   677A      5.933155   678A      5.947019  
     679A      5.961912   680A      5.972328   681A      6.007933  
     682A      6.019534   683A      6.036451   684A      6.059065  
     685A      6.087073   686A      6.118125   687A      6.128002  
     688A      6.148155   689A      6.160425   690A      6.170090  
     691A      6.182055   692A      6.186166   693A      6.203326  
     694A      6.214063   695A      6.245789   696A      6.301519  
     697A      6.337658   698A      6.389350   699A      6.432252  
     700A      6.532380   701A      6.547889   702A      6.552733  
     703A      6.606313   704A      6.662047   705A      6.684439  
     706A      6.711776   707A      6.748450   708A      6.752360  
     709A      6.791593   710A      6.813009   711A      6.850351  
     712A      6.872647   713A      6.917401   714A      6.926198  
     715A      6.981698   716A      7.021514   717A      7.103767  
     718A      7.131467   719A      7.169932   720A      7.222140  
     721A      7.239512   722A      7.347225   723A      7.606295  
     724A      7.837266   725A     15.507370   726A     15.814420  
     727A     16.504727   728A     16.865644   729A     17.849813  
     730A     18.359740   731A     18.562144   732A     18.942469  
     733A     19.278588   734A     19.566855   735A     20.247946  
     736A     22.079892  

    Final Occupation by Irrep:
              A 
    DOCC [    42 ]

  @DF-RHF Final Energy:  -525.52797052565893

   => Energetics <=

    Nuclear Repulsion Energy =            659.8854598506774209
    One-Electron Energy =               -2022.0037511776670272
    Two-Electron Energy =                 836.5903208013305630
    Total Energy =                       -525.5279705256589295

Computation Completed

*** tstop() called on node144.bme.utexas.edu at Wed Feb  3 12:11:32 2021
Module time:
	user time   =     767.66 seconds =      12.79 minutes
	system time =      86.10 seconds =       1.43 minutes
	total time  =        170 seconds =       2.83 minutes
Total time:
	user time   =     767.66 seconds =      12.79 minutes
	system time =      86.10 seconds =       1.43 minutes
	total time  =        170 seconds =       2.83 minutes
   => Loading Basis Set <=

    Name: (AUG-CC-PVTZ AUX)
    Role: RIFIT
    Keyword: DF_BASIS_MP2
    atoms 1-4   entry N          line   206 file /home/xy3866/psi4conda/share/psi4/basis/aug-cc-pvtz-ri.gbs 
    atoms 5-12  entry C          line   148 file /home/xy3866/psi4conda/share/psi4/basis/aug-cc-pvtz-ri.gbs 
    atoms 13-20 entry H          line    30 file /home/xy3866/psi4conda/share/psi4/basis/aug-cc-pvtz-ri.gbs 


*** tstart() called on node144.bme.utexas.edu
*** at Wed Feb  3 12:11:32 2021


  //>>>>>>>>>>>>>>>>>>>>>>>>>>>>>>>>>>>//
  //               DFMP2               //
  //<<<<<<<<<<<<<<<<<<<<<<<<<<<<<<<<<<<//

	 --------------------------------------------------------
	                          DF-MP2                         
	      2nd-Order Density-Fitted Moller-Plesset Theory     
	              RMP2 Wavefunction,   8 Threads             
	                                                         
	        Rob Parrish, Justin Turney, Andy Simmonett,      
	           Ed Hohenstein, and C. David Sherrill          
	 --------------------------------------------------------

   => Auxiliary Basis Set <=

  Basis Set: (AUG-CC-PVTZ AUX)
    Blend: AUG-CC-PVTZ-RI
    Number of shells: 448
    Number of basis function: 1640
    Number of Cartesian functions: 2072
    Spherical Harmonics?: true
    Max angular momentum: 4

	 --------------------------------------------------------
	                 NBF =   736, NAUX =  1640
	 --------------------------------------------------------
	   CLASS    FOCC     OCC    AOCC    AVIR     VIR    FVIR
	   PAIRS       0      42      42     694     694       0
	 --------------------------------------------------------

  DFHelper Memory: AOs need 6.202 GiB; user supplied 22.352 GiB. Using in-core AOs.


         ------------------------------------------------------------
                                     CPHF                           
                                  Rob Parrish                       
         ------------------------------------------------------------

  ==> Geometry <==

    Molecular point group: c1
    Full point group: C1

    Geometry (in Angstrom), charge = 0, multiplicity = 1:

       Center              X                  Y                   Z               Mass       
    ------------   -----------------  -----------------  -----------------  -----------------
         N            0.826817564838    -0.255262774387    -0.035810164093    14.003074004430
         N            1.369264564838    -1.482613774387    -0.264889164093    14.003074004430
         N           -1.071064435162     1.031320225613    -0.451555164093    14.003074004430
         N           -1.257911435162    -1.199430774387     0.431296835907    14.003074004430
         C            1.770433564838     0.738870225613     0.135789835907    12.000000000000
         C            2.940748064838     0.015507725613    -0.007851364093    12.000000000000
         C           -0.579632435162    -0.135754774387    -0.016280164093    12.000000000000
         C            1.464659564838     2.168466225613     0.440228835907    12.000000000000
         C            2.690108564838    -1.255519774387    -0.237748164093    12.000000000000
         C           -2.410367435162     1.136579225613    -0.429662164093    12.000000000000
         C           -2.593198435162    -1.073761774387     0.405803835907    12.000000000000
         C           -3.230744435162     0.090682225613    -0.019055164093    12.000000000000
         H            3.963579564838     0.558683225613     0.101492835907     1.007825032230
         H            1.023909564838     2.682466225613    -0.415895164093     1.007825032230
         H            0.765164564838     2.264087225613     1.275582835907     1.007825032230
         H            2.397148564838     2.668289225613     0.715592835907     1.007825032230
         H            3.366871564838    -2.083443774387    -0.407673164093     1.007825032230
         H           -2.819763435162     2.085280225613    -0.771132164093     1.007825032230
         H           -3.157718435162    -1.936355774387     0.754707835907     1.007825032230
         H           -4.311958435162     0.179614225613    -0.022613164093     1.007825032230

  Nuclear repulsion =  659.885459850677421
  Reference energy  = -525.527970525658930

  ==> Basis Set <==

  Basis Set: AUG-CC-PVTZ
    Blend: AUG-CC-PVTZ
    Number of shells: 240
    Number of basis function: 736
    Number of Cartesian functions: 860
    Spherical Harmonics?: true
    Max angular momentum: 3

  ==> CGRSolver (by Rob Parrish) <==

   Number of roots    =         1
   Preconditioning    =    JACOBI
   Convergence cutoff =     1E-06
   Maximum iterations =       100

  ==> CPHFRHamiltonian (by Rob Parrish) <== 

  ==> MemDFJK: Density-Fitted J/K Matrices <==

    J tasked:                   Yes
    K tasked:                   Yes
    wK tasked:                   No
    OpenMP threads:               8
    Memory [MiB]:             22888
    Algorithm:                 Disk
    Schwarz Cutoff:           1E-12
    Mask sparsity (%):       7.3687
    Fitting Condition:        1E-10

   => Auxiliary Basis Set <=

  Basis Set: (AUG-CC-PVTZ AUX)
    Blend: AUG-CC-PVTZ-JKFIT
    Number of shells: 472
    Number of basis function: 1616
    Number of Cartesian functions: 2012
    Spherical Harmonics?: true
    Max angular momentum: 4

  ==> CPHF Iterations <==

  => Iterations <=

             Iter  Converged  Remaining    Residual
  CGR           1          0          1   1.148E-01
  CGR           2          0          1   5.694E-02
  CGR           3          0          1   3.262E-02
  CGR           4          0          1   1.000E-02
  CGR           5          0          1   3.760E-03
  CGR           6          0          1   1.528E-03
  CGR           7          0          1   5.612E-04
  CGR           8          0          1   2.559E-04
  CGR           9          0          1   9.910E-05
  CGR          10          0          1   3.846E-05
  CGR          11          0          1   1.535E-05
  CGR          12          0          1   5.150E-06
  CGR          13          0          1   2.218E-06
  CGR          14          1          0   8.655E-07

    CGRSolver converged.

	-----------------------------------------------------------
	 ==================> DF-MP2 Energies <==================== 
	-----------------------------------------------------------
	 Reference Energy          =    -525.5279705256589295 [Eh]
	 Singles Energy            =      -0.0000000000000000 [Eh]
	 Same-Spin Energy          =      -0.5791796300829457 [Eh]
	 Opposite-Spin Energy      =      -1.7401753311026926 [Eh]
	 Correlation Energy        =      -2.3193549611856383 [Eh]
	 Total Energy              =    -527.8473254868445110 [Eh]
	-----------------------------------------------------------
	 ================> DF-SCS-MP2 Energies <================== 
	-----------------------------------------------------------
	 SCS Same-Spin Scale       =       0.3333333333333333 [-]
	 SCS Opposite-Spin Scale   =       1.2000000000000000 [-]
	 SCS Same-Spin Energy      =      -0.1930598766943152 [Eh]
	 SCS Opposite-Spin Energy  =      -2.0882103973232309 [Eh]
	 SCS Correlation Energy    =      -2.2812702740175461 [Eh]
	 SCS Total Energy          =    -527.8092407996764450 [Eh]
	-----------------------------------------------------------



Properties will be evaluated at   0.000000,   0.000000,   0.000000 [a0]

Properties computed using the MP2 density matrix

  Nuclear Dipole Moment: [e a0]
     X:     1.1509      Y:     6.0228      Z:     1.1541

  Electronic Dipole Moment: [e a0]
     X:    -2.2099      Y:    -5.0066      Z:    -0.9762

  Dipole Moment: [e a0]
     X:    -1.0590      Y:     1.0162      Z:     0.1778     Total:     1.4785

  Dipole Moment: [D]
     X:    -2.6917      Y:     2.5830      Z:     0.4520     Total:     3.7579


*** tstop() called on node144.bme.utexas.edu at Wed Feb  3 12:18:39 2021
Module time:
	user time   =    2428.68 seconds =      40.48 minutes
	system time =     138.55 seconds =       2.31 minutes
	total time  =        427 seconds =       7.12 minutes
Total time:
	user time   =    3196.58 seconds =      53.28 minutes
	system time =     224.66 seconds =       3.74 minutes
	total time  =        597 seconds =       9.95 minutes

    Psi4 stopped on: Wednesday, 03 February 2021 12:18PM
    Psi4 wall time for execution: 0:09:57.88

*** Psi4 exiting successfully. Buy a developer a beer!
