
    -----------------------------------------------------------------------
          Psi4: An Open-Source Ab Initio Electronic Structure Package
                               Psi4 1.3.2 release

                         Git: Rev {HEAD} ecbda83 


    R. M. Parrish, L. A. Burns, D. G. A. Smith, A. C. Simmonett,
    A. E. DePrince III, E. G. Hohenstein, U. Bozkaya, A. Yu. Sokolov,
    R. Di Remigio, R. M. Richard, J. F. Gonthier, A. M. James,
    H. R. McAlexander, A. Kumar, M. Saitow, X. Wang, B. P. Pritchard,
    P. Verma, H. F. Schaefer III, K. Patkowski, R. A. King, E. F. Valeev,
    F. A. Evangelista, J. M. Turney, T. D. Crawford, and C. D. Sherrill,
    J. Chem. Theory Comput. 13(7) pp 3185--3197 (2017).
    (doi: 10.1021/acs.jctc.7b00174)


                         Additional Contributions by
    P. Kraus, H. Kruse, M. H. Lechner, M. C. Schieber, R. A. Shaw,
    A. Alenaizan, R. Galvelis, Z. L. Glick, S. Lehtola, and J. P. Misiewicz

    -----------------------------------------------------------------------


    Psi4 started on: Wednesday, 03 February 2021 03:39PM

    Process ID: 10257
    Host:       node144.bme.utexas.edu
    PSIDATADIR: /home/xy3866/psi4conda/share/psi4
    Memory:     500.0 MiB
    Threads:    8
    
  ==> Input File <==

--------------------------------------------------------------------------
#psi4
#
memory 32 gb

molecule  {
0 1
  N        0.8160970    -0.2990240    -0.0443680
  N        1.3585440    -1.5263750    -0.2734470
  N       -1.0817850     0.9875590    -0.4601130
  N       -1.2686320    -1.2431920     0.4227390
  C        1.7597130     0.6951090     0.1272320
  C        2.9786120     0.0532150     0.0016160
  C       -0.7146692    -0.1188800    -0.0471992
  C        1.4539390     2.1247050     0.4316710
  C        2.6793880    -1.2992810    -0.2463060
  C       -2.4210880     1.0928180    -0.4382200
  C       -2.6039190    -1.1175230     0.3972460
  C       -3.2414650     0.0469210    -0.0276130
  H        3.9528590     0.5149220     0.0929350
  H        1.0131890     2.6387050    -0.4244530
  H        0.7544440     2.2203260     1.2670250
  H        2.3864280     2.6245280     0.7070350
  H        3.3561510    -2.1272050    -0.4162310
  H       -2.8304840     2.0415190    -0.7796900
  H       -3.1684390    -1.9801170     0.7461500
  H       -4.3226790     0.1358530    -0.0311710
units angstrom
no_reorient  #important for SAPT in psi4, default
symmetry c1  #important for SAPT in psi4, default
}

set PROPERTIES_ORIGIN ["COM"]
properties('MP2/aug-cc-pvtz', properties = ['dipole'])
--------------------------------------------------------------------------

  Memory set to  29.802 GiB by Python driver.
    SCF Algorithm Type (re)set to DF.

*** tstart() called on node144.bme.utexas.edu
*** at Wed Feb  3 15:39:55 2021

   => Loading Basis Set <=

    Name: AUG-CC-PVTZ
    Role: ORBITAL
    Keyword: BASIS
    atoms 1-4   entry N          line   281 file /home/xy3866/psi4conda/share/psi4/basis/aug-cc-pvtz.gbs 
    atoms 5-12  entry C          line   235 file /home/xy3866/psi4conda/share/psi4/basis/aug-cc-pvtz.gbs 
    atoms 13-20 entry H          line    36 file /home/xy3866/psi4conda/share/psi4/basis/aug-cc-pvtz.gbs 


         ---------------------------------------------------------
                                   SCF
               by Justin Turney, Rob Parrish, Andy Simmonett
                          and Daniel G. A. Smith
                              RHF Reference
                        8 Threads,  30517 MiB Core
         ---------------------------------------------------------

  ==> Geometry <==

    Molecular point group: c1
    Full point group: C1

    Geometry (in Angstrom), charge = 0, multiplicity = 1:

       Center              X                  Y                   Z               Mass       
    ------------   -----------------  -----------------  -----------------  -----------------
         N            0.832494784822    -0.265915625269    -0.035485116249    14.003074004430
         N            1.374941784822    -1.493266625269    -0.264564116249    14.003074004430
         N           -1.065387215178     1.020667374731    -0.451230116249    14.003074004430
         N           -1.252234215178    -1.210083625269     0.431621883751    14.003074004430
         C            1.776110784822     0.728217374731     0.136114883751    12.000000000000
         C            2.995009784822     0.086323374731     0.010498883751    12.000000000000
         C           -0.698271415178    -0.085771625269    -0.038316316249    12.000000000000
         C            1.470336784822     2.157813374731     0.440553883751    12.000000000000
         C            2.695785784822    -1.266172625269    -0.237423116249    12.000000000000
         C           -2.404690215178     1.125926374731    -0.429337116249    12.000000000000
         C           -2.587521215178    -1.084414625269     0.406128883751    12.000000000000
         C           -3.225067215178     0.080029374731    -0.018730116249    12.000000000000
         H            3.969256784822     0.548030374731     0.101817883751     1.007825032230
         H            1.029586784822     2.671813374731    -0.415570116249     1.007825032230
         H            0.770841784822     2.253434374731     1.275907883751     1.007825032230
         H            2.402825784822     2.657636374731     0.715917883751     1.007825032230
         H            3.372548784822    -2.094096625269    -0.407348116249     1.007825032230
         H           -2.814086215178     2.074627374731    -0.770807116249     1.007825032230
         H           -3.152041215178    -1.947008625269     0.755032883751     1.007825032230
         H           -4.306281215178     0.168961374731    -0.022288116249     1.007825032230

  Running in c1 symmetry.

  Rotational constants: A =      0.07387  B =      0.02401  C =      0.01883 [cm^-1]
  Rotational constants: A =   2214.49687  B =    719.68364  C =    564.48219 [MHz]
  Nuclear repulsion =  658.319511222247343

  Charge       = 0
  Multiplicity = 1
  Electrons    = 84
  Nalpha       = 42
  Nbeta        = 42

  ==> Algorithm <==

  SCF Algorithm Type is DF.
  DIIS enabled.
  MOM disabled.
  Fractional occupation disabled.
  Guess Type is SAD.
  Energy threshold   = 1.00e-10
  Density threshold  = 1.00e-10
  Integral threshold = 0.00e+00

  ==> Primary Basis <==

  Basis Set: AUG-CC-PVTZ
    Blend: AUG-CC-PVTZ
    Number of shells: 240
    Number of basis function: 736
    Number of Cartesian functions: 860
    Spherical Harmonics?: true
    Max angular momentum: 3

   => Loading Basis Set <=

    Name: (AUG-CC-PVTZ AUX)
    Role: JKFIT
    Keyword: DF_BASIS_SCF
    atoms 1-4   entry N          line   224 file /home/xy3866/psi4conda/share/psi4/basis/aug-cc-pvtz-jkfit.gbs 
    atoms 5-12  entry C          line   162 file /home/xy3866/psi4conda/share/psi4/basis/aug-cc-pvtz-jkfit.gbs 
    atoms 13-20 entry H          line    70 file /home/xy3866/psi4conda/share/psi4/basis/aug-cc-pvtz-jkfit.gbs 

  ==> Pre-Iterations <==

   -------------------------------------------------------
    Irrep   Nso     Nmo     Nalpha   Nbeta   Ndocc  Nsocc
   -------------------------------------------------------
     A        736     736       0       0       0       0
   -------------------------------------------------------
    Total     736     736      42      42      42       0
   -------------------------------------------------------

  ==> Integral Setup <==

  DFHelper Memory: AOs need 6.200 GiB; user supplied 22.352 GiB. Using in-core AOs.

  ==> MemDFJK: Density-Fitted J/K Matrices <==

    J tasked:                   Yes
    K tasked:                   Yes
    wK tasked:                   No
    OpenMP threads:               8
    Memory [MiB]:             22888
    Algorithm:                 Disk
    Schwarz Cutoff:           1E-12
    Mask sparsity (%):       7.4034
    Fitting Condition:        1E-10

   => Auxiliary Basis Set <=

  Basis Set: (AUG-CC-PVTZ AUX)
    Blend: AUG-CC-PVTZ-JKFIT
    Number of shells: 472
    Number of basis function: 1616
    Number of Cartesian functions: 2012
    Spherical Harmonics?: true
    Max angular momentum: 4

  Minimum eigenvalue in the overlap matrix is 2.2613925309E-06.
  Using Symmetric Orthogonalization.

  SCF Guess: Superposition of Atomic Densities via on-the-fly atomic UHF.

  ==> Iterations <==

                           Total Energy        Delta E     RMS |[F,P]|

   @DF-RHF iter SAD:  -525.10998056066887   -5.25110e+02   0.00000e+00 
   @DF-RHF iter   1:  -525.23843504190313   -1.28454e-01   9.47226e-04 DIIS
   @DF-RHF iter   2:  -525.47462589342251   -2.36191e-01   4.19717e-04 DIIS
   @DF-RHF iter   3:  -525.51555448517593   -4.09286e-02   1.01446e-04 DIIS
   @DF-RHF iter   4:  -525.51911558513370   -3.56110e-03   4.79954e-05 DIIS
   @DF-RHF iter   5:  -525.51976355371232   -6.47969e-04   1.05143e-05 DIIS
   @DF-RHF iter   6:  -525.51981964341076   -5.60897e-05   4.75986e-06 DIIS
   @DF-RHF iter   7:  -525.51983470455650   -1.50611e-05   1.95243e-06 DIIS
   @DF-RHF iter   8:  -525.51983847313215   -3.76858e-06   8.54955e-07 DIIS
   @DF-RHF iter   9:  -525.51983930096389   -8.27832e-07   3.91039e-07 DIIS
   @DF-RHF iter  10:  -525.51983942845698   -1.27493e-07   1.07167e-07 DIIS
   @DF-RHF iter  11:  -525.51983943807852   -9.62154e-09   4.78671e-08 DIIS
   @DF-RHF iter  12:  -525.51983943918242   -1.10390e-09   1.63128e-08 DIIS
   @DF-RHF iter  13:  -525.51983943941241   -2.29988e-10   6.81894e-09 DIIS
   @DF-RHF iter  14:  -525.51983943944526   -3.28555e-11   2.92735e-09 DIIS
   @DF-RHF iter  15:  -525.51983943945504   -9.77707e-12   1.33515e-09 DIIS
   @DF-RHF iter  16:  -525.51983943945856   -3.52429e-12   7.12047e-10 DIIS
   @DF-RHF iter  17:  -525.51983943945868   -1.13687e-13   2.33544e-10 DIIS
   @DF-RHF iter  18:  -525.51983943945527    3.41061e-12   9.88856e-11 DIIS
  Energy and wave function converged.


  ==> Post-Iterations <==

    Orbital Energies [Eh]
    ---------------------

    Doubly Occupied:                                                      

       1A    -15.626412     2A    -15.591847     3A    -15.589820  
       4A    -15.569982     5A    -11.369055     6A    -11.324176  
       7A    -11.319351     8A    -11.271722     9A    -11.264067  
      10A    -11.240493    11A    -11.229576    12A    -11.204438  
      13A     -1.379999    14A     -1.331298    15A     -1.238487  
      16A     -1.113567    17A     -1.076330    18A     -1.036352  
      19A     -0.950058    20A     -0.929367    21A     -0.892626  
      22A     -0.787950    23A     -0.779251    24A     -0.727932  
      25A     -0.708183    26A     -0.673826    27A     -0.637841  
      28A     -0.635264    29A     -0.616228    30A     -0.590382  
      31A     -0.577887    32A     -0.573466    33A     -0.554933  
      34A     -0.546992    35A     -0.527255    36A     -0.490250  
      37A     -0.457660    38A     -0.449036    39A     -0.431898  
      40A     -0.406974    41A     -0.336199    42A     -0.320341  

    Virtual:                                                              

      43A      0.019625    44A      0.029419    45A      0.034730  
      46A      0.040087    47A      0.043819    48A      0.048192  
      49A      0.057489    50A      0.060464    51A      0.066308  
      52A      0.073573    53A      0.083601    54A      0.090148  
      55A      0.092811    56A      0.097746    57A      0.100236  
      58A      0.105685    59A      0.108583    60A      0.109441  
      61A      0.115907    62A      0.117516    63A      0.123881  
      64A      0.126394    65A      0.127264    66A      0.130054  
      67A      0.133512    68A      0.135084    69A      0.142449  
      70A      0.143885    71A      0.151913    72A      0.153947  
      73A      0.160903    74A      0.164815    75A      0.172609  
      76A      0.175160    77A      0.178385    78A      0.196329  
      79A      0.201473    80A      0.206634    81A      0.209900  
      82A      0.219494    83A      0.222366    84A      0.229098  
      85A      0.234123    86A      0.236908    87A      0.239115  
      88A      0.244254    89A      0.247526    90A      0.253772  
      91A      0.255611    92A      0.260260    93A      0.264021  
      94A      0.268032    95A      0.271515    96A      0.276377  
      97A      0.286896    98A      0.288707    99A      0.291874  
     100A      0.297746   101A      0.297933   102A      0.306486  
     103A      0.309273   104A      0.313547   105A      0.314982  
     106A      0.319128   107A      0.324523   108A      0.329268  
     109A      0.339190   110A      0.343200   111A      0.345465  
     112A      0.350373   113A      0.362379   114A      0.364379  
     115A      0.370542   116A      0.372069   117A      0.376112  
     118A      0.379866   119A      0.384872   120A      0.388997  
     121A      0.395837   122A      0.397761   123A      0.403018  
     124A      0.410364   125A      0.412341   126A      0.413157  
     127A      0.421409   128A      0.427150   129A      0.430160  
     130A      0.431450   131A      0.437226   132A      0.441050  
     133A      0.444248   134A      0.452115   135A      0.453230  
     136A      0.462783   137A      0.465547   138A      0.471985  
     139A      0.475756   140A      0.477675   141A      0.481875  
     142A      0.487733   143A      0.491897   144A      0.497037  
     145A      0.501288   146A      0.504202   147A      0.506889  
     148A      0.512887   149A      0.517572   150A      0.520591  
     151A      0.525060   152A      0.530103   153A      0.533307  
     154A      0.536690   155A      0.538625   156A      0.541967  
     157A      0.556512   158A      0.562198   159A      0.566767  
     160A      0.571011   161A      0.579653   162A      0.583369  
     163A      0.585472   164A      0.588666   165A      0.596366  
     166A      0.600435   167A      0.606313   168A      0.608833  
     169A      0.612301   170A      0.621287   171A      0.623701  
     172A      0.626484   173A      0.633504   174A      0.647720  
     175A      0.651618   176A      0.653089   177A      0.662400  
     178A      0.667950   179A      0.675491   180A      0.681289  
     181A      0.691672   182A      0.693012   183A      0.700446  
     184A      0.709059   185A      0.712192   186A      0.716669  
     187A      0.724487   188A      0.729767   189A      0.738870  
     190A      0.744770   191A      0.751990   192A      0.754115  
     193A      0.758923   194A      0.767866   195A      0.774528  
     196A      0.781293   197A      0.784819   198A      0.789458  
     199A      0.800119   200A      0.805882   201A      0.809797  
     202A      0.817295   203A      0.822828   204A      0.830741  
     205A      0.836606   206A      0.839958   207A      0.852787  
     208A      0.854100   209A      0.862744   210A      0.871185  
     211A      0.872148   212A      0.875781   213A      0.888426  
     214A      0.894066   215A      0.895396   216A      0.899208  
     217A      0.904673   218A      0.912941   219A      0.918373  
     220A      0.924119   221A      0.928281   222A      0.933669  
     223A      0.941288   224A      0.942191   225A      0.948066  
     226A      0.956568   227A      0.963498   228A      0.968382  
     229A      0.972134   230A      0.976300   231A      0.984414  
     232A      0.996606   233A      1.000220   234A      1.005411  
     235A      1.013751   236A      1.016966   237A      1.019782  
     238A      1.027655   239A      1.029992   240A      1.033316  
     241A      1.044801   242A      1.047443   243A      1.054614  
     244A      1.057709   245A      1.065674   246A      1.067583  
     247A      1.071361   248A      1.077968   249A      1.087368  
     250A      1.090358   251A      1.099471   252A      1.101546  
     253A      1.106658   254A      1.109026   255A      1.114688  
     256A      1.120053   257A      1.128515   258A      1.131995  
     259A      1.142341   260A      1.148232   261A      1.151601  
     262A      1.154157   263A      1.158578   264A      1.165901  
     265A      1.168500   266A      1.176050   267A      1.176937  
     268A      1.179511   269A      1.181250   270A      1.184843  
     271A      1.191599   272A      1.206280   273A      1.208547  
     274A      1.216573   275A      1.223116   276A      1.229772  
     277A      1.234840   278A      1.238413   279A      1.253608  
     280A      1.255019   281A      1.258548   282A      1.268677  
     283A      1.273121   284A      1.274329   285A      1.284442  
     286A      1.293312   287A      1.302263   288A      1.313917  
     289A      1.317398   290A      1.327021   291A      1.329365  
     292A      1.342730   293A      1.359162   294A      1.362430  
     295A      1.369812   296A      1.373723   297A      1.383097  
     298A      1.390504   299A      1.392394   300A      1.398165  
     301A      1.413897   302A      1.415659   303A      1.433681  
     304A      1.440995   305A      1.444266   306A      1.453308  
     307A      1.469825   308A      1.473607   309A      1.488640  
     310A      1.496947   311A      1.508047   312A      1.513148  
     313A      1.514582   314A      1.523864   315A      1.532371  
     316A      1.534127   317A      1.540323   318A      1.544948  
     319A      1.547028   320A      1.557087   321A      1.559323  
     322A      1.568694   323A      1.579386   324A      1.596566  
     325A      1.602520   326A      1.616208   327A      1.622139  
     328A      1.629361   329A      1.637033   330A      1.642288  
     331A      1.649720   332A      1.655311   333A      1.659177  
     334A      1.667081   335A      1.670106   336A      1.677089  
     337A      1.682628   338A      1.699361   339A      1.710446  
     340A      1.717705   341A      1.723596   342A      1.735266  
     343A      1.741504   344A      1.745592   345A      1.748427  
     346A      1.755149   347A      1.776575   348A      1.779204  
     349A      1.786844   350A      1.800846   351A      1.804250  
     352A      1.809316   353A      1.814556   354A      1.820253  
     355A      1.839555   356A      1.848439   357A      1.850963  
     358A      1.860365   359A      1.871915   360A      1.875570  
     361A      1.893752   362A      1.902493   363A      1.908344  
     364A      1.916450   365A      1.919017   366A      1.934413  
     367A      1.936144   368A      1.945109   369A      1.952586  
     370A      1.960744   371A      1.972913   372A      1.976905  
     373A      1.987332   374A      1.999486   375A      2.006244  
     376A      2.009517   377A      2.019227   378A      2.029340  
     379A      2.037228   380A      2.044079   381A      2.054000  
     382A      2.055384   383A      2.062763   384A      2.075830  
     385A      2.088193   386A      2.094084   387A      2.101821  
     388A      2.102627   389A      2.110032   390A      2.123354  
     391A      2.132915   392A      2.138454   393A      2.145397  
     394A      2.154324   395A      2.173264   396A      2.177296  
     397A      2.189643   398A      2.200463   399A      2.210553  
     400A      2.227586   401A      2.230875   402A      2.243364  
     403A      2.252278   404A      2.256780   405A      2.264723  
     406A      2.278875   407A      2.282338   408A      2.294731  
     409A      2.303531   410A      2.311232   411A      2.321923  
     412A      2.331852   413A      2.342738   414A      2.354254  
     415A      2.362879   416A      2.368348   417A      2.383302  
     418A      2.399758   419A      2.401428   420A      2.410770  
     421A      2.438266   422A      2.455305   423A      2.467658  
     424A      2.469768   425A      2.488940   426A      2.505308  
     427A      2.508063   428A      2.517009   429A      2.521229  
     430A      2.533407   431A      2.543357   432A      2.564334  
     433A      2.570509   434A      2.583588   435A      2.603584  
     436A      2.606224   437A      2.624388   438A      2.634665  
     439A      2.647484   440A      2.671159   441A      2.684018  
     442A      2.694195   443A      2.709045   444A      2.727290  
     445A      2.754875   446A      2.782485   447A      2.793785  
     448A      2.814101   449A      2.853506   450A      2.859976  
     451A      2.879592   452A      2.897913   453A      2.915357  
     454A      2.924330   455A      2.941810   456A      2.965267  
     457A      2.990024   458A      3.007588   459A      3.013208  
     460A      3.027323   461A      3.049453   462A      3.059680  
     463A      3.100813   464A      3.120227   465A      3.151012  
     466A      3.164016   467A      3.189611   468A      3.192399  
     469A      3.204633   470A      3.239990   471A      3.259391  
     472A      3.270538   473A      3.292518   474A      3.316426  
     475A      3.320279   476A      3.333832   477A      3.341751  
     478A      3.357086   479A      3.367761   480A      3.380463  
     481A      3.381633   482A      3.397098   483A      3.401541  
     484A      3.423983   485A      3.434428   486A      3.451818  
     487A      3.476546   488A      3.481756   489A      3.489328  
     490A      3.499827   491A      3.513504   492A      3.523582  
     493A      3.530428   494A      3.559212   495A      3.569081  
     496A      3.572177   497A      3.582628   498A      3.600399  
     499A      3.606083   500A      3.609791   501A      3.621625  
     502A      3.635716   503A      3.647121   504A      3.659091  
     505A      3.674156   506A      3.677724   507A      3.680916  
     508A      3.691109   509A      3.710523   510A      3.718401  
     511A      3.723767   512A      3.732033   513A      3.744172  
     514A      3.750532   515A      3.774629   516A      3.778610  
     517A      3.796164   518A      3.805169   519A      3.822529  
     520A      3.834889   521A      3.841161   522A      3.848230  
     523A      3.856862   524A      3.872197   525A      3.879298  
     526A      3.883572   527A      3.890402   528A      3.898958  
     529A      3.903777   530A      3.926243   531A      3.936221  
     532A      3.941978   533A      3.949549   534A      3.957859  
     535A      3.962282   536A      3.978838   537A      3.984328  
     538A      3.999115   539A      4.007702   540A      4.014106  
     541A      4.022511   542A      4.025613   543A      4.037933  
     544A      4.040906   545A      4.081040   546A      4.088529  
     547A      4.095213   548A      4.106538   549A      4.115380  
     550A      4.115969   551A      4.140126   552A      4.153873  
     553A      4.165235   554A      4.170095   555A      4.184228  
     556A      4.187843   557A      4.202423   558A      4.212286  
     559A      4.214967   560A      4.221109   561A      4.230254  
     562A      4.237581   563A      4.243685   564A      4.253270  
     565A      4.260722   566A      4.268152   567A      4.277474  
     568A      4.284918   569A      4.309201   570A      4.327622  
     571A      4.348281   572A      4.363989   573A      4.372303  
     574A      4.391046   575A      4.407006   576A      4.414711  
     577A      4.450200   578A      4.458455   579A      4.476434  
     580A      4.480668   581A      4.491158   582A      4.499640  
     583A      4.503600   584A      4.530172   585A      4.533337  
     586A      4.553108   587A      4.555951   588A      4.556560  
     589A      4.571168   590A      4.583356   591A      4.595918  
     592A      4.616670   593A      4.637337   594A      4.650308  
     595A      4.663294   596A      4.678146   597A      4.689852  
     598A      4.710231   599A      4.743766   600A      4.764434  
     601A      4.783594   602A      4.793826   603A      4.797847  
     604A      4.818552   605A      4.836154   606A      4.853973  
     607A      4.862875   608A      4.877865   609A      4.881625  
     610A      4.898574   611A      4.909546   612A      4.922040  
     613A      4.935313   614A      4.960574   615A      4.972797  
     616A      4.980737   617A      4.998912   618A      5.020018  
     619A      5.025468   620A      5.044993   621A      5.059001  
     622A      5.061881   623A      5.073903   624A      5.095308  
     625A      5.104581   626A      5.113513   627A      5.121848  
     628A      5.130767   629A      5.157394   630A      5.164752  
     631A      5.171829   632A      5.192204   633A      5.204091  
     634A      5.228049   635A      5.231447   636A      5.245371  
     637A      5.247120   638A      5.265928   639A      5.288239  
     640A      5.302170   641A      5.305841   642A      5.323380  
     643A      5.339676   644A      5.380162   645A      5.409997  
     646A      5.423560   647A      5.458487   648A      5.483533  
     649A      5.500335   650A      5.510741   651A      5.529301  
     652A      5.544969   653A      5.550781   654A      5.577310  
     655A      5.596336   656A      5.619604   657A      5.632125  
     658A      5.633358   659A      5.655185   660A      5.678528  
     661A      5.698896   662A      5.722257   663A      5.734034  
     664A      5.751197   665A      5.755316   666A      5.768315  
     667A      5.776335   668A      5.796200   669A      5.813350  
     670A      5.818973   671A      5.826409   672A      5.849382  
     673A      5.869840   674A      5.883563   675A      5.885941  
     676A      5.930361   677A      5.930546   678A      5.947081  
     679A      5.980777   680A      5.987153   681A      6.020153  
     682A      6.047483   683A      6.059617   684A      6.065680  
     685A      6.090476   686A      6.110936   687A      6.127932  
     688A      6.141621   689A      6.173547   690A      6.188368  
     691A      6.204357   692A      6.213109   693A      6.232429  
     694A      6.237391   695A      6.288080   696A      6.305918  
     697A      6.355384   698A      6.408176   699A      6.436261  
     700A      6.503588   701A      6.544178   702A      6.554731  
     703A      6.582757   704A      6.642926   705A      6.653005  
     706A      6.686963   707A      6.716675   708A      6.767138  
     709A      6.770359   710A      6.813167   711A      6.848906  
     712A      6.877978   713A      6.917648   714A      6.936190  
     715A      6.965318   716A      6.996999   717A      7.049358  
     718A      7.071394   719A      7.128431   720A      7.165363  
     721A      7.225718   722A      7.276037   723A      7.654363  
     724A      7.833222   725A     15.411192   726A     16.309645  
     727A     16.617815   728A     17.038609   729A     17.378045  
     730A     18.235590   731A     18.531129   732A     18.762272  
     733A     19.125636   734A     19.386127   735A     20.469427  
     736A     21.117799  

    Final Occupation by Irrep:
              A 
    DOCC [    42 ]

  @DF-RHF Final Energy:  -525.51983943945527

   => Energetics <=

    Nuclear Repulsion Energy =            658.3195112222473426
    One-Electron Energy =               -2018.9211641855927155
    Two-Electron Energy =                 835.0818135238899913
    Total Energy =                       -525.5198394394552679

Computation Completed

*** tstop() called on node144.bme.utexas.edu at Wed Feb  3 15:42:07 2021
Module time:
	user time   =     597.73 seconds =       9.96 minutes
	system time =      69.44 seconds =       1.16 minutes
	total time  =        132 seconds =       2.20 minutes
Total time:
	user time   =     597.73 seconds =       9.96 minutes
	system time =      69.44 seconds =       1.16 minutes
	total time  =        132 seconds =       2.20 minutes
   => Loading Basis Set <=

    Name: (AUG-CC-PVTZ AUX)
    Role: RIFIT
    Keyword: DF_BASIS_MP2
    atoms 1-4   entry N          line   206 file /home/xy3866/psi4conda/share/psi4/basis/aug-cc-pvtz-ri.gbs 
    atoms 5-12  entry C          line   148 file /home/xy3866/psi4conda/share/psi4/basis/aug-cc-pvtz-ri.gbs 
    atoms 13-20 entry H          line    30 file /home/xy3866/psi4conda/share/psi4/basis/aug-cc-pvtz-ri.gbs 


*** tstart() called on node144.bme.utexas.edu
*** at Wed Feb  3 15:42:07 2021


  //>>>>>>>>>>>>>>>>>>>>>>>>>>>>>>>>>>>//
  //               DFMP2               //
  //<<<<<<<<<<<<<<<<<<<<<<<<<<<<<<<<<<<//

	 --------------------------------------------------------
	                          DF-MP2                         
	      2nd-Order Density-Fitted Moller-Plesset Theory     
	              RMP2 Wavefunction,   8 Threads             
	                                                         
	        Rob Parrish, Justin Turney, Andy Simmonett,      
	           Ed Hohenstein, and C. David Sherrill          
	 --------------------------------------------------------

   => Auxiliary Basis Set <=

  Basis Set: (AUG-CC-PVTZ AUX)
    Blend: AUG-CC-PVTZ-RI
    Number of shells: 448
    Number of basis function: 1640
    Number of Cartesian functions: 2072
    Spherical Harmonics?: true
    Max angular momentum: 4

	 --------------------------------------------------------
	                 NBF =   736, NAUX =  1640
	 --------------------------------------------------------
	   CLASS    FOCC     OCC    AOCC    AVIR     VIR    FVIR
	   PAIRS       0      42      42     694     694       0
	 --------------------------------------------------------

  DFHelper Memory: AOs need 6.200 GiB; user supplied 22.352 GiB. Using in-core AOs.


         ------------------------------------------------------------
                                     CPHF                           
                                  Rob Parrish                       
         ------------------------------------------------------------

  ==> Geometry <==

    Molecular point group: c1
    Full point group: C1

    Geometry (in Angstrom), charge = 0, multiplicity = 1:

       Center              X                  Y                   Z               Mass       
    ------------   -----------------  -----------------  -----------------  -----------------
         N            0.832494784822    -0.265915625269    -0.035485116249    14.003074004430
         N            1.374941784822    -1.493266625269    -0.264564116249    14.003074004430
         N           -1.065387215178     1.020667374731    -0.451230116249    14.003074004430
         N           -1.252234215178    -1.210083625269     0.431621883751    14.003074004430
         C            1.776110784822     0.728217374731     0.136114883751    12.000000000000
         C            2.995009784822     0.086323374731     0.010498883751    12.000000000000
         C           -0.698271415178    -0.085771625269    -0.038316316249    12.000000000000
         C            1.470336784822     2.157813374731     0.440553883751    12.000000000000
         C            2.695785784822    -1.266172625269    -0.237423116249    12.000000000000
         C           -2.404690215178     1.125926374731    -0.429337116249    12.000000000000
         C           -2.587521215178    -1.084414625269     0.406128883751    12.000000000000
         C           -3.225067215178     0.080029374731    -0.018730116249    12.000000000000
         H            3.969256784822     0.548030374731     0.101817883751     1.007825032230
         H            1.029586784822     2.671813374731    -0.415570116249     1.007825032230
         H            0.770841784822     2.253434374731     1.275907883751     1.007825032230
         H            2.402825784822     2.657636374731     0.715917883751     1.007825032230
         H            3.372548784822    -2.094096625269    -0.407348116249     1.007825032230
         H           -2.814086215178     2.074627374731    -0.770807116249     1.007825032230
         H           -3.152041215178    -1.947008625269     0.755032883751     1.007825032230
         H           -4.306281215178     0.168961374731    -0.022288116249     1.007825032230

  Nuclear repulsion =  658.319511222247343
  Reference energy  = -525.519839439455268

  ==> Basis Set <==

  Basis Set: AUG-CC-PVTZ
    Blend: AUG-CC-PVTZ
    Number of shells: 240
    Number of basis function: 736
    Number of Cartesian functions: 860
    Spherical Harmonics?: true
    Max angular momentum: 3

  ==> CGRSolver (by Rob Parrish) <==

   Number of roots    =         1
   Preconditioning    =    JACOBI
   Convergence cutoff =     1E-06
   Maximum iterations =       100

  ==> CPHFRHamiltonian (by Rob Parrish) <== 

  ==> MemDFJK: Density-Fitted J/K Matrices <==

    J tasked:                   Yes
    K tasked:                   Yes
    wK tasked:                   No
    OpenMP threads:               8
    Memory [MiB]:             22888
    Algorithm:                 Disk
    Schwarz Cutoff:           1E-12
    Mask sparsity (%):       7.4034
    Fitting Condition:        1E-10

   => Auxiliary Basis Set <=

  Basis Set: (AUG-CC-PVTZ AUX)
    Blend: AUG-CC-PVTZ-JKFIT
    Number of shells: 472
    Number of basis function: 1616
    Number of Cartesian functions: 2012
    Spherical Harmonics?: true
    Max angular momentum: 4

  ==> CPHF Iterations <==

  => Iterations <=

             Iter  Converged  Remaining    Residual
  CGR           1          0          1   1.157E-01
  CGR           2          0          1   5.454E-02
  CGR           3          0          1   3.047E-02
  CGR           4          0          1   9.554E-03
  CGR           5          0          1   3.468E-03
  CGR           6          0          1   1.380E-03
  CGR           7          0          1   5.543E-04
  CGR           8          0          1   2.756E-04
  CGR           9          0          1   1.037E-04
  CGR          10          0          1   3.748E-05
  CGR          11          0          1   1.442E-05
  CGR          12          0          1   4.859E-06
  CGR          13          0          1   1.957E-06
  CGR          14          1          0   6.572E-07

    CGRSolver converged.

	-----------------------------------------------------------
	 ==================> DF-MP2 Energies <==================== 
	-----------------------------------------------------------
	 Reference Energy          =    -525.5198394394552679 [Eh]
	 Singles Energy            =      -0.0000000000000000 [Eh]
	 Same-Spin Energy          =      -0.5778200541646259 [Eh]
	 Opposite-Spin Energy      =      -1.7392844759605879 [Eh]
	 Correlation Energy        =      -2.3171045301252136 [Eh]
	 Total Energy              =    -527.8369439695804886 [Eh]
	-----------------------------------------------------------
	 ================> DF-SCS-MP2 Energies <================== 
	-----------------------------------------------------------
	 SCS Same-Spin Scale       =       0.3333333333333333 [-]
	 SCS Opposite-Spin Scale   =       1.2000000000000000 [-]
	 SCS Same-Spin Energy      =      -0.1926066847215420 [Eh]
	 SCS Opposite-Spin Energy  =      -2.0871413711527054 [Eh]
	 SCS Correlation Energy    =      -2.2797480558742471 [Eh]
	 SCS Total Energy          =    -527.7995874953295470 [Eh]
	-----------------------------------------------------------



Properties will be evaluated at  -0.000000,  -0.000000,   0.000000 [a0]

Properties computed using the MP2 density matrix

  Nuclear Dipole Moment: [e a0]
     X:     1.1934      Y:     5.9430      Z:     1.1565

  Electronic Dipole Moment: [e a0]
     X:    -2.7439      Y:    -4.8871      Z:    -0.9937

  Dipole Moment: [e a0]
     X:    -1.5505      Y:     1.0559      Z:     0.1628     Total:     1.8830

  Dipole Moment: [D]
     X:    -3.9411      Y:     2.6839      Z:     0.4137     Total:     4.7861


*** tstop() called on node144.bme.utexas.edu at Wed Feb  3 15:48:08 2021
Module time:
	user time   =    2211.72 seconds =      36.86 minutes
	system time =      90.52 seconds =       1.51 minutes
	total time  =        361 seconds =       6.02 minutes
Total time:
	user time   =    2809.75 seconds =      46.83 minutes
	system time =     159.97 seconds =       2.67 minutes
	total time  =        493 seconds =       8.22 minutes

    Psi4 stopped on: Wednesday, 03 February 2021 03:48PM
    Psi4 wall time for execution: 0:08:13.68

*** Psi4 exiting successfully. Buy a developer a beer!
