10487                                                                   
Freq      RMP2-FC                                                     Gen                 
Number of atoms                            I                5
Info1-9                                    I   N=           9
          80          79        1002           0           0         100
           6           2           1
Charge                                     I                0
Multiplicity                               I                1
Number of electrons                        I              218
Number of alpha electrons                  I              109
Number of beta electrons                   I              109
Number of basis functions                  I              266
Number of independent functions            I              266
Number of point charges in /Mol/           I                0
Number of translation vectors              I                0
Atomic numbers                             I   N=           5
          53          53          53          53           6
Nuclear charges                            R   N=           5
  5.30000000E+01  5.30000000E+01  5.30000000E+01  5.30000000E+01  6.00000000E+00
Current cartesian coordinates              R   N=          15
  1.43350834E+00 -1.88337215E+00  3.38795883E+00 -3.72384432E+00 -1.52020619E+00
 -9.49960882E-01  2.59934041E+00 -6.56550999E-01 -3.14526951E+00 -3.09000311E-01
  4.06013170E+00  7.07272887E-01 -3.63798942E-05 -2.08372486E-05 -1.17533661E-05
Force Field                                I                0
Int Atom Types                             I   N=           5
           0           0           0           0           0
MM charges                                 R   N=           5
  0.00000000E+00  0.00000000E+00  0.00000000E+00  0.00000000E+00  0.00000000E+00
Integer atomic weights                     I   N=           5
         127         127         127         127          12
Real atomic weights                        R   N=           5
  1.26900400E+02  1.26900400E+02  1.26900400E+02  1.26900400E+02  1.20000000E+01
Atom fragment info                         I   N=           5
           0           0           0           0           0
Atom residue num                           I   N=           5
           0           0           0           0           0
Nuclear spins                              I   N=           5
           5           5           5           5           0
Nuclear ZEff                               R   N=           5
 -6.57200000E+01 -6.57200000E+01 -6.57200000E+01 -6.57200000E+01 -3.60000000E+00
Nuclear QMom                               R   N=           5
 -7.10000000E+01 -7.10000000E+01 -7.10000000E+01 -7.10000000E+01  0.00000000E+00
Nuclear GFac                               R   N=           5
  2.81328000E+00  2.81328000E+00  2.81328000E+00  2.81328000E+00  0.00000000E+00
MicOpt                                     I   N=           5
          -1          -1          -1          -1          -1
Number of contracted shells                I              101
Number of primitive shells                 I              148
Pure/Cartesian d shells                    I                0
Pure/Cartesian f shells                    I                0
Highest angular momentum                   I                2
Largest degree of contraction              I                6
Shell types                                I   N=         101
           0           0           0           0           0           0
           0           0           0           0           1           1
           1           1           1           1           1           1
           1          -2          -2          -2          -2          -2
           0           0           0           0           0           0
           0           0           0           0           1           1
           1           1           1           1           1           1
           1          -2          -2          -2          -2          -2
           0           0           0           0           0           0
           0           0           0           0           1           1
           1           1           1           1           1           1
           1          -2          -2          -2          -2          -2
           0           0           0           0           0           0
           0           0           0           0           1           1
           1           1           1           1           1           1
           1          -2          -2          -2          -2          -2
           0          -1          -1          -1          -2
Number of primitives per shell             I   N=         101
           5           2           1           1           1           1
           1           1           1           1           4           1
           1           1           1           1           1           1
           1           3           1           1           1           1
           5           2           1           1           1           1
           1           1           1           1           4           1
           1           1           1           1           1           1
           1           3           1           1           1           1
           5           2           1           1           1           1
           1           1           1           1           4           1
           1           1           1           1           1           1
           1           3           1           1           1           1
           5           2           1           1           1           1
           1           1           1           1           4           1
           1           1           1           1           1           1
           1           3           1           1           1           1
           6           3           1           1           1
Shell to atom map                          I   N=         101
           1           1           1           1           1           1
           1           1           1           1           1           1
           1           1           1           1           1           1
           1           1           1           1           1           1
           2           2           2           2           2           2
           2           2           2           2           2           2
           2           2           2           2           2           2
           2           2           2           2           2           2
           3           3           3           3           3           3
           3           3           3           3           3           3
           3           3           3           3           3           3
           3           3           3           3           3           3
           4           4           4           4           4           4
           4           4           4           4           4           4
           4           4           4           4           4           4
           4           4           4           4           4           4
           5           5           5           5           5
Primitive exponents                        R   N=         148
  4.44750000E+05  6.61270000E+04  1.48150000E+04  4.14490000E+03  1.36120000E+03
  5.08440000E+02  2.09590000E+02  8.19590000E+01  3.68050000E+01  1.34950000E+01
  6.88590000E+00  2.55200000E+00  1.20880000E+00  2.73400000E-01  1.00900000E-01
  2.95360000E+03  7.12610000E+02  2.36710000E+02  9.26310000E+01  3.97320000E+01
  1.72730000E+01  7.95700000E+00  3.15290000E+00  1.33280000E+00  4.94700000E-01
  2.16000000E-01  8.29300000E-02  2.61950000E+02  7.67340000E+01  2.75510000E+01
  1.06060000E+01  3.42170000E+00  1.13700000E+00  3.02000000E-01  4.44750000E+05
  6.61270000E+04  1.48150000E+04  4.14490000E+03  1.36120000E+03  5.08440000E+02
  2.09590000E+02  8.19590000E+01  3.68050000E+01  1.34950000E+01  6.88590000E+00
  2.55200000E+00  1.20880000E+00  2.73400000E-01  1.00900000E-01  2.95360000E+03
  7.12610000E+02  2.36710000E+02  9.26310000E+01  3.97320000E+01  1.72730000E+01
  7.95700000E+00  3.15290000E+00  1.33280000E+00  4.94700000E-01  2.16000000E-01
  8.29300000E-02  2.61950000E+02  7.67340000E+01  2.75510000E+01  1.06060000E+01
  3.42170000E+00  1.13700000E+00  3.02000000E-01  4.44750000E+05  6.61270000E+04
  1.48150000E+04  4.14490000E+03  1.36120000E+03  5.08440000E+02  2.09590000E+02
  8.19590000E+01  3.68050000E+01  1.34950000E+01  6.88590000E+00  2.55200000E+00
  1.20880000E+00  2.73400000E-01  1.00900000E-01  2.95360000E+03  7.12610000E+02
  2.36710000E+02  9.26310000E+01  3.97320000E+01  1.72730000E+01  7.95700000E+00
  3.15290000E+00  1.33280000E+00  4.94700000E-01  2.16000000E-01  8.29300000E-02
  2.61950000E+02  7.67340000E+01  2.75510000E+01  1.06060000E+01  3.42170000E+00
  1.13700000E+00  3.02000000E-01  4.44750000E+05  6.61270000E+04  1.48150000E+04
  4.14490000E+03  1.36120000E+03  5.08440000E+02  2.09590000E+02  8.19590000E+01
  3.68050000E+01  1.34950000E+01  6.88590000E+00  2.55200000E+00  1.20880000E+00
  2.73400000E-01  1.00900000E-01  2.95360000E+03  7.12610000E+02  2.36710000E+02
  9.26310000E+01  3.97320000E+01  1.72730000E+01  7.95700000E+00  3.15290000E+00
  1.33280000E+00  4.94700000E-01  2.16000000E-01  8.29300000E-02  2.61950000E+02
  7.67340000E+01  2.75510000E+01  1.06060000E+01  3.42170000E+00  1.13700000E+00
  3.02000000E-01  4.56324000E+03  6.82024000E+02  1.54973000E+02  4.44553000E+01
  1.30290000E+01  1.82773000E+00  2.09642000E+01  4.80331000E+00  1.45933000E+00
  4.83456000E-01  1.45585000E-01  6.26000000E-01
Contraction coefficients                   R   N=         148
  1.86636799E-03  1.45534763E-02  7.56822706E-02  2.84526752E-01  7.10436122E-01
  7.24149751E-01  3.04776831E-01  1.00000000E+00  1.00000000E+00  1.00000000E+00
  1.00000000E+00  1.00000000E+00  1.00000000E+00  1.00000000E+00  1.00000000E+00
  1.56939495E-02  1.10371781E-01  3.79084072E-01  6.15020301E-01  1.00000000E+00
  1.00000000E+00  1.00000000E+00  1.00000000E+00  1.00000000E+00  1.00000000E+00
  1.00000000E+00  1.00000000E+00  5.05248223E-02  3.05784452E-01  7.59270445E-01
  1.00000000E+00  1.00000000E+00  1.00000000E+00  1.00000000E+00  1.86636799E-03
  1.45534763E-02  7.56822706E-02  2.84526752E-01  7.10436122E-01  7.24149751E-01
  3.04776831E-01  1.00000000E+00  1.00000000E+00  1.00000000E+00  1.00000000E+00
  1.00000000E+00  1.00000000E+00  1.00000000E+00  1.00000000E+00  1.56939495E-02
  1.10371781E-01  3.79084072E-01  6.15020301E-01  1.00000000E+00  1.00000000E+00
  1.00000000E+00  1.00000000E+00  1.00000000E+00  1.00000000E+00  1.00000000E+00
  1.00000000E+00  5.05248223E-02  3.05784452E-01  7.59270445E-01  1.00000000E+00
  1.00000000E+00  1.00000000E+00  1.00000000E+00  1.86636799E-03  1.45534763E-02
  7.56822706E-02  2.84526752E-01  7.10436122E-01  7.24149751E-01  3.04776831E-01
  1.00000000E+00  1.00000000E+00  1.00000000E+00  1.00000000E+00  1.00000000E+00
  1.00000000E+00  1.00000000E+00  1.00000000E+00  1.56939495E-02  1.10371781E-01
  3.79084072E-01  6.15020301E-01  1.00000000E+00  1.00000000E+00  1.00000000E+00
  1.00000000E+00  1.00000000E+00  1.00000000E+00  1.00000000E+00  1.00000000E+00
  5.05248223E-02  3.05784452E-01  7.59270445E-01  1.00000000E+00  1.00000000E+00
  1.00000000E+00  1.00000000E+00  1.86636799E-03  1.45534763E-02  7.56822706E-02
  2.84526752E-01  7.10436122E-01  7.24149751E-01  3.04776831E-01  1.00000000E+00
  1.00000000E+00  1.00000000E+00  1.00000000E+00  1.00000000E+00  1.00000000E+00
  1.00000000E+00  1.00000000E+00  1.56939495E-02  1.10371781E-01  3.79084072E-01
  6.15020301E-01  1.00000000E+00  1.00000000E+00  1.00000000E+00  1.00000000E+00
  1.00000000E+00  1.00000000E+00  1.00000000E+00  1.00000000E+00  5.05248223E-02
  3.05784452E-01  7.59270445E-01  1.00000000E+00  1.00000000E+00  1.00000000E+00
  1.00000000E+00  1.96665025E-03  1.52306019E-02  7.61269097E-02  2.60801033E-01
  6.16462078E-01  2.21006028E-01  1.14660081E-01  9.19999648E-01 -3.03068213E-03
  1.00000000E+00  1.00000000E+00  1.00000000E+00
P(S=P) Contraction coefficients            R   N=         148
  0.00000000E+00  0.00000000E+00  0.00000000E+00  0.00000000E+00  0.00000000E+00
  0.00000000E+00  0.00000000E+00  0.00000000E+00  0.00000000E+00  0.00000000E+00
  0.00000000E+00  0.00000000E+00  0.00000000E+00  0.00000000E+00  0.00000000E+00
  0.00000000E+00  0.00000000E+00  0.00000000E+00  0.00000000E+00  0.00000000E+00
  0.00000000E+00  0.00000000E+00  0.00000000E+00  0.00000000E+00  0.00000000E+00
  0.00000000E+00  0.00000000E+00  0.00000000E+00  0.00000000E+00  0.00000000E+00
  0.00000000E+00  0.00000000E+00  0.00000000E+00  0.00000000E+00  0.00000000E+00
  0.00000000E+00  0.00000000E+00  0.00000000E+00  0.00000000E+00  0.00000000E+00
  0.00000000E+00  0.00000000E+00  0.00000000E+00  0.00000000E+00  0.00000000E+00
  0.00000000E+00  0.00000000E+00  0.00000000E+00  0.00000000E+00  0.00000000E+00
  0.00000000E+00  0.00000000E+00  0.00000000E+00  0.00000000E+00  0.00000000E+00
  0.00000000E+00  0.00000000E+00  0.00000000E+00  0.00000000E+00  0.00000000E+00
  0.00000000E+00  0.00000000E+00  0.00000000E+00  0.00000000E+00  0.00000000E+00
  0.00000000E+00  0.00000000E+00  0.00000000E+00  0.00000000E+00  0.00000000E+00
  0.00000000E+00  0.00000000E+00  0.00000000E+00  0.00000000E+00  0.00000000E+00
  0.00000000E+00  0.00000000E+00  0.00000000E+00  0.00000000E+00  0.00000000E+00
  0.00000000E+00  0.00000000E+00  0.00000000E+00  0.00000000E+00  0.00000000E+00
  0.00000000E+00  0.00000000E+00  0.00000000E+00  0.00000000E+00  0.00000000E+00
  0.00000000E+00  0.00000000E+00  0.00000000E+00  0.00000000E+00  0.00000000E+00
  0.00000000E+00  0.00000000E+00  0.00000000E+00  0.00000000E+00  0.00000000E+00
  0.00000000E+00  0.00000000E+00  0.00000000E+00  0.00000000E+00  0.00000000E+00
  0.00000000E+00  0.00000000E+00  0.00000000E+00  0.00000000E+00  0.00000000E+00
  0.00000000E+00  0.00000000E+00  0.00000000E+00  0.00000000E+00  0.00000000E+00
  0.00000000E+00  0.00000000E+00  0.00000000E+00  0.00000000E+00  0.00000000E+00
  0.00000000E+00  0.00000000E+00  0.00000000E+00  0.00000000E+00  0.00000000E+00
  0.00000000E+00  0.00000000E+00  0.00000000E+00  0.00000000E+00  0.00000000E+00
  0.00000000E+00  0.00000000E+00  0.00000000E+00  0.00000000E+00  0.00000000E+00
  0.00000000E+00  0.00000000E+00  0.00000000E+00  0.00000000E+00  0.00000000E+00
  0.00000000E+00  0.00000000E+00  4.02486927E-02  2.37593957E-01  8.15853851E-01
  1.00000000E+00  1.00000000E+00  0.00000000E+00
Coordinates of each shell                  R   N=         303
  1.43350834E+00 -1.88337215E+00  3.38795883E+00  1.43350834E+00 -1.88337215E+00
  3.38795883E+00  1.43350834E+00 -1.88337215E+00  3.38795883E+00  1.43350834E+00
 -1.88337215E+00  3.38795883E+00  1.43350834E+00 -1.88337215E+00  3.38795883E+00
  1.43350834E+00 -1.88337215E+00  3.38795883E+00  1.43350834E+00 -1.88337215E+00
  3.38795883E+00  1.43350834E+00 -1.88337215E+00  3.38795883E+00  1.43350834E+00
 -1.88337215E+00  3.38795883E+00  1.43350834E+00 -1.88337215E+00  3.38795883E+00
  1.43350834E+00 -1.88337215E+00  3.38795883E+00  1.43350834E+00 -1.88337215E+00
  3.38795883E+00  1.43350834E+00 -1.88337215E+00  3.38795883E+00  1.43350834E+00
 -1.88337215E+00  3.38795883E+00  1.43350834E+00 -1.88337215E+00  3.38795883E+00
  1.43350834E+00 -1.88337215E+00  3.38795883E+00  1.43350834E+00 -1.88337215E+00
  3.38795883E+00  1.43350834E+00 -1.88337215E+00  3.38795883E+00  1.43350834E+00
 -1.88337215E+00  3.38795883E+00  1.43350834E+00 -1.88337215E+00  3.38795883E+00
  1.43350834E+00 -1.88337215E+00  3.38795883E+00  1.43350834E+00 -1.88337215E+00
  3.38795883E+00  1.43350834E+00 -1.88337215E+00  3.38795883E+00  1.43350834E+00
 -1.88337215E+00  3.38795883E+00 -3.72384432E+00 -1.52020619E+00 -9.49960882E-01
 -3.72384432E+00 -1.52020619E+00 -9.49960882E-01 -3.72384432E+00 -1.52020619E+00
 -9.49960882E-01 -3.72384432E+00 -1.52020619E+00 -9.49960882E-01 -3.72384432E+00
 -1.52020619E+00 -9.49960882E-01 -3.72384432E+00 -1.52020619E+00 -9.49960882E-01
 -3.72384432E+00 -1.52020619E+00 -9.49960882E-01 -3.72384432E+00 -1.52020619E+00
 -9.49960882E-01 -3.72384432E+00 -1.52020619E+00 -9.49960882E-01 -3.72384432E+00
 -1.52020619E+00 -9.49960882E-01 -3.72384432E+00 -1.52020619E+00 -9.49960882E-01
 -3.72384432E+00 -1.52020619E+00 -9.49960882E-01 -3.72384432E+00 -1.52020619E+00
 -9.49960882E-01 -3.72384432E+00 -1.52020619E+00 -9.49960882E-01 -3.72384432E+00
 -1.52020619E+00 -9.49960882E-01 -3.72384432E+00 -1.52020619E+00 -9.49960882E-01
 -3.72384432E+00 -1.52020619E+00 -9.49960882E-01 -3.72384432E+00 -1.52020619E+00
 -9.49960882E-01 -3.72384432E+00 -1.52020619E+00 -9.49960882E-01 -3.72384432E+00
 -1.52020619E+00 -9.49960882E-01 -3.72384432E+00 -1.52020619E+00 -9.49960882E-01
 -3.72384432E+00 -1.52020619E+00 -9.49960882E-01 -3.72384432E+00 -1.52020619E+00
 -9.49960882E-01 -3.72384432E+00 -1.52020619E+00 -9.49960882E-01  2.59934041E+00
 -6.56550999E-01 -3.14526951E+00  2.59934041E+00 -6.56550999E-01 -3.14526951E+00
  2.59934041E+00 -6.56550999E-01 -3.14526951E+00  2.59934041E+00 -6.56550999E-01
 -3.14526951E+00  2.59934041E+00 -6.56550999E-01 -3.14526951E+00  2.59934041E+00
 -6.56550999E-01 -3.14526951E+00  2.59934041E+00 -6.56550999E-01 -3.14526951E+00
  2.59934041E+00 -6.56550999E-01 -3.14526951E+00  2.59934041E+00 -6.56550999E-01
 -3.14526951E+00  2.59934041E+00 -6.56550999E-01 -3.14526951E+00  2.59934041E+00
 -6.56550999E-01 -3.14526951E+00  2.59934041E+00 -6.56550999E-01 -3.14526951E+00
  2.59934041E+00 -6.56550999E-01 -3.14526951E+00  2.59934041E+00 -6.56550999E-01
 -3.14526951E+00  2.59934041E+00 -6.56550999E-01 -3.14526951E+00  2.59934041E+00
 -6.56550999E-01 -3.14526951E+00  2.59934041E+00 -6.56550999E-01 -3.14526951E+00
  2.59934041E+00 -6.56550999E-01 -3.14526951E+00  2.59934041E+00 -6.56550999E-01
 -3.14526951E+00  2.59934041E+00 -6.56550999E-01 -3.14526951E+00  2.59934041E+00
 -6.56550999E-01 -3.14526951E+00  2.59934041E+00 -6.56550999E-01 -3.14526951E+00
  2.59934041E+00 -6.56550999E-01 -3.14526951E+00  2.59934041E+00 -6.56550999E-01
 -3.14526951E+00 -3.09000311E-01  4.06013170E+00  7.07272887E-01 -3.09000311E-01
  4.06013170E+00  7.07272887E-01 -3.09000311E-01  4.06013170E+00  7.07272887E-01
 -3.09000311E-01  4.06013170E+00  7.07272887E-01 -3.09000311E-01  4.06013170E+00
  7.07272887E-01 -3.09000311E-01  4.06013170E+00  7.07272887E-01 -3.09000311E-01
  4.06013170E+00  7.07272887E-01 -3.09000311E-01  4.06013170E+00  7.07272887E-01
 -3.09000311E-01  4.06013170E+00  7.07272887E-01 -3.09000311E-01  4.06013170E+00
  7.07272887E-01 -3.09000311E-01  4.06013170E+00  7.07272887E-01 -3.09000311E-01
  4.06013170E+00  7.07272887E-01 -3.09000311E-01  4.06013170E+00  7.07272887E-01
 -3.09000311E-01  4.06013170E+00  7.07272887E-01 -3.09000311E-01  4.06013170E+00
  7.07272887E-01 -3.09000311E-01  4.06013170E+00  7.07272887E-01 -3.09000311E-01
  4.06013170E+00  7.07272887E-01 -3.09000311E-01  4.06013170E+00  7.07272887E-01
 -3.09000311E-01  4.06013170E+00  7.07272887E-01 -3.09000311E-01  4.06013170E+00
  7.07272887E-01 -3.09000311E-01  4.06013170E+00  7.07272887E-01 -3.09000311E-01
  4.06013170E+00  7.07272887E-01 -3.09000311E-01  4.06013170E+00  7.07272887E-01
 -3.09000311E-01  4.06013170E+00  7.07272887E-01 -3.63798942E-05 -2.08372486E-05
 -1.17533661E-05 -3.63798942E-05 -2.08372486E-05 -1.17533661E-05 -3.63798942E-05
 -2.08372486E-05 -1.17533661E-05 -3.63798942E-05 -2.08372486E-05 -1.17533661E-05
 -3.63798942E-05 -2.08372486E-05 -1.17533661E-05
Constraint Structure                       R   N=          15
  1.43350834E+00 -1.88337215E+00  3.38795883E+00 -3.72384432E+00 -1.52020619E+00
 -9.49960882E-01  2.59934041E+00 -6.56550999E-01 -3.14526951E+00 -3.09000311E-01
  4.06013170E+00  7.07272887E-01 -3.63798942E-05 -2.08372486E-05 -1.17533661E-05
Num ILSW                                   I              100
ILSW                                       I   N=         100
           0           0           0           0           2           0
           0           0           0           0           0          -1
           0           0           0           0           0           0
           0           0           0           0           1           0
           1           0           0           0           0           0
           0           0      100000           0          -1           0
           0           0           0           0           0           0
           0           0           0           1           1           0
           0           0           1           0           0           0
           0           0           4          40           0           0
           0           0           0           0           0           0
           0           0           0           0           0           0
           0           0           0           0           0           0
           0           0           0           0           0           0
           0           0           0           0           0           0
           0           0           0           0           0           0
           0           0           0           0
Num RLSW                                   I               40
RLSW                                       R   N=          40
  1.00000000E+00  1.00000000E+00  1.00000000E+00  1.00000000E+00  1.00000000E+00
  0.00000000E+00  0.00000000E+00  1.00000000E+00  0.00000000E+00  0.00000000E+00
  0.00000000E+00  0.00000000E+00  1.00000000E+00  0.00000000E+00  0.00000000E+00
  0.00000000E+00  0.00000000E+00  1.00000000E+00  0.00000000E+00  0.00000000E+00
  0.00000000E+00  0.00000000E+00  1.00000000E+00  0.00000000E+00  0.00000000E+00
  0.00000000E+00  0.00000000E+00  1.00000000E+00  0.00000000E+00  0.00000000E+00
  0.00000000E+00  0.00000000E+00  0.00000000E+00  0.00000000E+00  0.00000000E+00
  0.00000000E+00  0.00000000E+00  0.00000000E+00  1.00000000E+00  1.00000000E+00
MxBond                                     I                4
NBond                                      I   N=           5
           1           1           1           1           4
IBond                                      I   N=          20
           5           0           0           0           5           0
           0           0           5           0           0           0
           5           0           0           0           1           2
           3           4
RBond                                      R   N=          20
  1.00000000E+00  0.00000000E+00  0.00000000E+00  0.00000000E+00  1.00000000E+00
  0.00000000E+00  0.00000000E+00  0.00000000E+00  1.00000000E+00  0.00000000E+00
  0.00000000E+00  0.00000000E+00  1.00000000E+00  0.00000000E+00  0.00000000E+00
  0.00000000E+00  1.00000000E+00  1.00000000E+00  1.00000000E+00  1.00000000E+00
Virial Ratio                               R      1.999524117139157E+00
SCF Energy                                 R     -2.770506547012627E+04
MP2 Energy                                 R     -2.770605446186736E+04
Total Energy                               R     -2.770605446186736E+04
Post-SCF wavefunction norm                 R      1.637415026711558E+00
RMS Force                                  R      1.668117515168417E-06
RMS Density                                R      1.503000083784369E-09
External E-field                           R   N=          35
  0.00000000E+00  0.00000000E+00  0.00000000E+00  0.00000000E+00  0.00000000E+00
  0.00000000E+00  0.00000000E+00  0.00000000E+00  0.00000000E+00  0.00000000E+00
  0.00000000E+00  0.00000000E+00  0.00000000E+00  0.00000000E+00  0.00000000E+00
  0.00000000E+00  0.00000000E+00  0.00000000E+00  0.00000000E+00  0.00000000E+00
  0.00000000E+00  0.00000000E+00  0.00000000E+00  0.00000000E+00  0.00000000E+00
  0.00000000E+00  0.00000000E+00  0.00000000E+00  0.00000000E+00  0.00000000E+00
  0.00000000E+00  0.00000000E+00  0.00000000E+00  0.00000000E+00  0.00000000E+00
IOpCl                                      I                0
IROHF                                      I                0
Alpha Orbital Energies                     R   N=         266
 -1.17718250E+03 -1.17718250E+03 -1.17718250E+03 -1.17718250E+03 -1.80889726E+02
 -1.80889725E+02 -1.80889725E+02 -1.80889724E+02 -1.69696436E+02 -1.69696434E+02
 -1.69696434E+02 -1.69696434E+02 -1.69695256E+02 -1.69695256E+02 -1.69695255E+02
 -1.69695255E+02 -1.69695255E+02 -1.69695255E+02 -1.69695255E+02 -1.69695255E+02
 -3.79436029E+01 -3.79436016E+01 -3.79436015E+01 -3.79436005E+01 -3.31323754E+01
 -3.31323741E+01 -3.31323740E+01 -3.31323733E+01 -3.31269945E+01 -3.31269945E+01
 -3.31269936E+01 -3.31269927E+01 -3.31269927E+01 -3.31269923E+01 -3.31269910E+01
 -3.31269910E+01 -2.43164708E+01 -2.43164671E+01 -2.43164661E+01 -2.43164660E+01
 -2.43146552E+01 -2.43146551E+01 -2.43146546E+01 -2.43146406E+01 -2.43146406E+01
 -2.43146400E+01 -2.43146291E+01 -2.43146291E+01 -2.43096258E+01 -2.43096258E+01
 -2.43096248E+01 -2.43096242E+01 -2.43096242E+01 -2.43096239E+01 -2.43096233E+01
 -2.43096233E+01 -1.14323187E+01 -7.26053218E+00 -7.26053099E+00 -7.26053084E+00
 -7.26052135E+00 -5.49511048E+00 -5.49510924E+00 -5.49510908E+00 -5.49510252E+00
 -5.48188700E+00 -5.48188694E+00 -5.48188625E+00 -5.48188178E+00 -5.48188173E+00
 -5.48187905E+00 -5.48187894E+00 -5.48187851E+00 -2.41892472E+00 -2.41878595E+00
 -2.41878471E+00 -2.41878452E+00 -2.41278565E+00 -2.41278563E+00 -2.41278148E+00
 -2.41278138E+00 -2.41278087E+00 -2.41274719E+00 -2.41274710E+00 -2.41274653E+00
 -2.39765245E+00 -2.39765242E+00 -2.39765118E+00 -2.39765105E+00 -2.39765073E+00
 -2.39764782E+00 -2.39764772E+00 -2.39764730E+00 -1.04471562E+00 -8.60408250E-01
 -8.60405022E-01 -8.60404628E-01 -7.11165920E-01 -5.28926402E-01 -5.28924491E-01
 -5.28924340E-01 -4.22239228E-01 -4.22238531E-01 -3.87844679E-01 -3.87841735E-01
 -3.87841433E-01 -3.64181677E-01 -3.64181516E-01 -3.64180657E-01 -1.91888194E-02
  7.28290713E-02  7.28302175E-02  7.28342227E-02  2.57169745E-01  2.57169828E-01
  2.57169872E-01  2.93467849E-01  3.20229257E-01  3.20229371E-01  3.23023465E-01
  3.23023858E-01  3.23025767E-01  3.36735911E-01  3.36735961E-01  3.36736467E-01
  3.82801380E-01  4.05844995E-01  4.05848230E-01  4.05848574E-01  4.53205992E-01
  4.53207155E-01  4.91784183E-01  4.91784536E-01  4.91784917E-01  5.77650418E-01
  5.77650817E-01  5.77651496E-01  6.01927260E-01  6.01927949E-01  6.46197256E-01
  6.46198142E-01  6.46199023E-01  7.05892666E-01  7.05893521E-01  7.05895913E-01
  7.79677216E-01  8.54134436E-01  8.54135709E-01  8.54139911E-01  1.01165767E+00
  1.01165895E+00  1.01166140E+00  1.23786518E+00  1.43148643E+00  1.43148687E+00
  1.55735134E+00  1.55735310E+00  1.55735667E+00  1.57232757E+00  1.57232798E+00
  1.57232938E+00  1.59918107E+00  1.59918229E+00  1.59918348E+00  1.61709390E+00
  1.67028711E+00  1.67028748E+00  1.92176851E+00  1.92177015E+00  1.92177166E+00
  3.05478843E+00  3.05478891E+00  3.05479388E+00  4.44165105E+00  4.44165180E+00
  4.45274262E+00  4.45274307E+00  4.45274348E+00  4.47547193E+00  4.47547222E+00
  4.47547281E+00  4.49439401E+00  4.49439453E+00  4.54517944E+00  4.54518164E+00
  4.54518221E+00  4.55510830E+00  4.55510912E+00  4.55511149E+00  4.56266642E+00
  4.74171765E+00  4.74171812E+00  4.74171968E+00  4.80800657E+00  4.81663095E+00
  4.81663173E+00  4.81663473E+00  6.48803306E+00  6.48803372E+00  6.52167077E+00
  6.52167169E+00  6.52167369E+00  6.54827331E+00  6.55947865E+00  6.55947895E+00
  6.55948016E+00  6.58815044E+00  6.58815150E+00  6.58815268E+00  2.43960569E+01
  2.87531245E+01  2.88348888E+01  2.88348896E+01  2.88348910E+01  2.94937280E+01
  2.94937286E+01  2.95121820E+01  2.95121825E+01  2.95121839E+01  2.95437612E+01
  2.95437614E+01  2.95437624E+01  2.95489224E+01  2.95613430E+01  2.95613442E+01
  2.95613449E+01  2.98491916E+01  2.98491919E+01  2.98631986E+01  2.98631987E+01
  2.98631988E+01  2.98650375E+01  2.98650376E+01  2.98650382E+01  2.98721627E+01
  2.98721629E+01  2.98974856E+01  2.98974860E+01  2.98974873E+01  2.99396627E+01
  2.99396633E+01  2.99396637E+01  3.00004683E+01  3.00004689E+01  3.00004704E+01
  3.00095288E+01  1.30559825E+02  1.30559826E+02  1.30577984E+02  1.30577984E+02
  1.30577985E+02  1.30596136E+02  1.30596136E+02  1.30596137E+02  1.30606010E+02
  1.30619904E+02  1.30619905E+02  1.30619905E+02  1.54176943E+02  1.54240517E+02
  1.54240518E+02  1.54240519E+02  1.91208921E+03  1.91215688E+03  1.91215688E+03
  1.91215688E+03
Alpha MO coefficients                      R   N=       70756
 -1.08913291E-04 -1.37707258E-04 -2.08373012E-06  1.90629410E-08  5.50173423E-08
 -5.04596152E-08  6.13107827E-08 -6.72573740E-08  1.46571702E-07 -2.67580461E-07
 -3.12481138E-10 -3.49999504E-11 -1.93021128E-10  2.67605726E-09 -7.51814314E-10
  2.94048166E-09 -7.69057570E-09  2.41764185E-09 -8.76520213E-09  1.28106046E-08
 -4.26226372E-09  1.48884594E-08 -2.06721315E-08  6.98149926E-09 -2.41519473E-08
  3.32887010E-08 -1.10066996E-08  3.86037250E-08 -5.88393853E-08  2.18924266E-08
 -7.12182614E-08  5.62351253E-08 -4.02271253E-08  9.16993973E-08  1.26063944E-07
  1.15547569E-08  8.10157029E-08 -4.11859339E-10 -2.87868436E-09  1.90944904E-10
 -1.69786914E-09  2.60237233E-10  1.25210608E-09  8.90709135E-09 -5.74538088E-10
  5.27145604E-09 -7.82647227E-10 -2.97129344E-09 -2.08981091E-08  1.38788899E-09
 -1.23402825E-08  1.85913255E-09  6.05840296E-09  4.08785379E-08 -2.90327888E-09
  2.39391951E-08 -3.88040468E-09 -1.91184643E-08 -9.11781559E-08  1.28028717E-08
 -4.87699329E-08  1.27172667E-08  4.76852241E-01  6.02917147E-01  9.14077102E-03
 -1.29637706E-04 -1.23778670E-04  4.46987731E-05 -1.78242369E-05  1.13708581E-05
 -3.07302970E-06  1.24493237E-06  1.86137734E-06  7.59872982E-07  4.74836120E-07
 -1.80112007E-06 -7.35274373E-07 -4.59464823E-07  1.73253570E-06  7.07276144E-07