69946944                                                                
Freq      RMP2-FC                                                     6-31G(d)            
Number of atoms                            I               15
Info1-9                                    I   N=           9
          27          25        1002           0           0         100
           6           2           1
Charge                                     I                0
Multiplicity                               I                1
Number of electrons                        I               66
Number of alpha electrons                  I               33
Number of beta electrons                   I               33
Number of basis functions                  I              147
Number of independent functions            I              147
Number of point charges in /Mol/           I                0
Number of translation vectors              I                0
Atomic numbers                             I   N=          15
           8           8           7           7           6           6
           6           6           6           1           1           1
           1           1           1
Nuclear charges                            R   N=          15
  8.00000000E+00  8.00000000E+00  7.00000000E+00  7.00000000E+00  6.00000000E+00
  6.00000000E+00  6.00000000E+00  6.00000000E+00  6.00000000E+00  1.00000000E+00
  1.00000000E+00  1.00000000E+00  1.00000000E+00  1.00000000E+00  1.00000000E+00
Current cartesian coordinates              R   N=          45
  2.74008872E+00  1.92884056E+00 -7.53172457E-06 -2.40540887E+00  3.02920514E+00
  1.00498530E-05 -3.27319217E+00 -1.25041613E+00 -1.93982192E-05  1.93756689E+00
 -2.23486635E+00  5.86570178E-06  9.84874210E-01  6.05877196E-02 -1.77731646E-06
 -1.73054410E+00  7.99215024E-01 -1.49416098E-06 -6.00135023E+00 -1.01289292E+00
  5.11050975E-06  5.00222074E+00  6.81817287E-01 -2.53381774E-06  4.52133580E+00
 -1.85319814E+00  7.52716846E-06 -2.43716080E+00 -2.97460271E+00 -6.27182545E-06
 -6.81731646E+00 -1.88921337E+00  1.68429308E+00 -6.81734471E+00 -1.88926110E+00
 -1.68424336E+00 -6.43953721E+00  9.99394117E-01 -1.82277757E-05  6.67896192E+00
  1.84124722E+00 -5.86764075E-06  5.84511692E+00 -3.40812627E+00  1.42386040E-05
Force Field                                I                0
Int Atom Types                             I   N=          15
           0           0           0           0           0           0
           0           0           0           0           0           0
           0           0           0
MM charges                                 R   N=          15
  0.00000000E+00  0.00000000E+00  0.00000000E+00  0.00000000E+00  0.00000000E+00
  0.00000000E+00  0.00000000E+00  0.00000000E+00  0.00000000E+00  0.00000000E+00
  0.00000000E+00  0.00000000E+00  0.00000000E+00  0.00000000E+00  0.00000000E+00
Integer atomic weights                     I   N=          15
          16          16          14          14          12          12
          12          12          12           1           1           1
           1           1           1
Real atomic weights                        R   N=          15
  1.59949146E+01  1.59949146E+01  1.40030740E+01  1.40030740E+01  1.20000000E+01
  1.20000000E+01  1.20000000E+01  1.20000000E+01  1.20000000E+01  1.00782504E+00
  1.00782504E+00  1.00782504E+00  1.00782504E+00  1.00782504E+00  1.00782504E+00
Atom fragment info                         I   N=          15
           0           0           0           0           0           0
           0           0           0           0           0           0
           0           0           0
Atom residue num                           I   N=          15
           0           0           0           0           0           0
           0           0           0           0           0           0
           0           0           0
Nuclear spins                              I   N=          15
           0           0           2           2           0           0
           0           0           0           1           1           1
           1           1           1
Nuclear ZEff                               R   N=          15
 -5.60000000E+00 -5.60000000E+00 -4.55000000E+00 -4.55000000E+00 -3.60000000E+00
 -3.60000000E+00 -3.60000000E+00 -3.60000000E+00 -3.60000000E+00 -1.00000000E+00
 -1.00000000E+00 -1.00000000E+00 -1.00000000E+00 -1.00000000E+00 -1.00000000E+00
Nuclear QMom                               R   N=          15
  0.00000000E+00  0.00000000E+00  2.04400000E+00  2.04400000E+00  0.00000000E+00
  0.00000000E+00  0.00000000E+00  0.00000000E+00  0.00000000E+00  0.00000000E+00
  0.00000000E+00  0.00000000E+00  0.00000000E+00  0.00000000E+00  0.00000000E+00
Nuclear GFac                               R   N=          15
  0.00000000E+00  0.00000000E+00  4.03761000E-01  4.03761000E-01  0.00000000E+00
  0.00000000E+00  0.00000000E+00  0.00000000E+00  0.00000000E+00  2.79284600E+00
  2.79284600E+00  2.79284600E+00  2.79284600E+00  2.79284600E+00  2.79284600E+00
MicOpt                                     I   N=          15
          -1          -1          -1          -1          -1          -1
          -1          -1          -1          -1          -1          -1
          -1          -1          -1
Number of contracted shells                I               48
Number of primitive shells                 I              123
Pure/Cartesian d shells                    I                1
Pure/Cartesian f shells                    I                0
Highest angular momentum                   I                2
Largest degree of contraction              I                6
Shell types                                I   N=          48
           0          -1          -1           2           0          -1
          -1           2           0          -1          -1           2
           0          -1          -1           2           0          -1
          -1           2           0          -1          -1           2
           0          -1          -1           2           0          -1
          -1           2           0          -1          -1           2
           0           0           0           0           0           0
           0           0           0           0           0           0
Number of primitives per shell             I   N=          48
           6           3           1           1           6           3
           1           1           6           3           1           1
           6           3           1           1           6           3
           1           1           6           3           1           1
           6           3           1           1           6           3
           1           1           6           3           1           1
           3           1           3           1           3           1
           3           1           3           1           3           1
Shell to atom map                          I   N=          48
           1           1           1           1           2           2
           2           2           3           3           3           3
           4           4           4           4           5           5
           5           5           6           6           6           6
           7           7           7           7           8           8
           8           8           9           9           9           9
          10          10          11          11          12          12
          13          13          14          14          15          15
Primitive exponents                        R   N=         123
  5.48467166E+03  8.25234946E+02  1.88046958E+02  5.29645000E+01  1.68975704E+01
  5.79963534E+00  1.55396162E+01  3.59993359E+00  1.01376175E+00  2.70005823E-01
  8.00000000E-01  5.48467166E+03  8.25234946E+02  1.88046958E+02  5.29645000E+01
  1.68975704E+01  5.79963534E+00  1.55396162E+01  3.59993359E+00  1.01376175E+00
  2.70005823E-01  8.00000000E-01  4.17351146E+03  6.27457911E+02  1.42902093E+02
  4.02343293E+01  1.28202129E+01  4.39043701E+00  1.16263619E+01  2.71627981E+00
  7.72218397E-01  2.12031498E-01  8.00000000E-01  4.17351146E+03  6.27457911E+02
  1.42902093E+02  4.02343293E+01  1.28202129E+01  4.39043701E+00  1.16263619E+01
  2.71627981E+00  7.72218397E-01  2.12031498E-01  8.00000000E-01  3.04752488E+03
  4.57369518E+02  1.03948685E+02  2.92101553E+01  9.28666296E+00  3.16392696E+00
  7.86827235E+00  1.88128854E+00  5.44249258E-01  1.68714478E-01  8.00000000E-01
  3.04752488E+03  4.57369518E+02  1.03948685E+02  2.92101553E+01  9.28666296E+00
  3.16392696E+00  7.86827235E+00  1.88128854E+00  5.44249258E-01  1.68714478E-01
  8.00000000E-01  3.04752488E+03  4.57369518E+02  1.03948685E+02  2.92101553E+01
  9.28666296E+00  3.16392696E+00  7.86827235E+00  1.88128854E+00  5.44249258E-01
  1.68714478E-01  8.00000000E-01  3.04752488E+03  4.57369518E+02  1.03948685E+02
  2.92101553E+01  9.28666296E+00  3.16392696E+00  7.86827235E+00  1.88128854E+00
  5.44249258E-01  1.68714478E-01  8.00000000E-01  3.04752488E+03  4.57369518E+02
  1.03948685E+02  2.92101553E+01  9.28666296E+00  3.16392696E+00  7.86827235E+00
  1.88128854E+00  5.44249258E-01  1.68714478E-01  8.00000000E-01  1.87311370E+01
  2.82539436E+00  6.40121692E-01  1.61277759E-01  1.87311370E+01  2.82539436E+00
  6.40121692E-01  1.61277759E-01  1.87311370E+01  2.82539436E+00  6.40121692E-01
  1.61277759E-01  1.87311370E+01  2.82539436E+00  6.40121692E-01  1.61277759E-01
  1.87311370E+01  2.82539436E+00  6.40121692E-01  1.61277759E-01  1.87311370E+01
  2.82539436E+00  6.40121692E-01  1.61277759E-01
Contraction coefficients                   R   N=         123
  1.83107443E-03  1.39501722E-02  6.84450781E-02  2.32714336E-01  4.70192898E-01
  3.58520853E-01 -1.10777550E-01 -1.48026263E-01  1.13076702E+00  1.00000000E+00
  1.00000000E+00  1.83107443E-03  1.39501722E-02  6.84450781E-02  2.32714336E-01
  4.70192898E-01  3.58520853E-01 -1.10777550E-01 -1.48026263E-01  1.13076702E+00
  1.00000000E+00  1.00000000E+00  1.83477216E-03  1.39946270E-02  6.85865518E-02
  2.32240873E-01  4.69069948E-01  3.60455199E-01 -1.14961182E-01 -1.69117479E-01
  1.14585195E+00  1.00000000E+00  1.00000000E+00  1.83477216E-03  1.39946270E-02
  6.85865518E-02  2.32240873E-01  4.69069948E-01  3.60455199E-01 -1.14961182E-01
 -1.69117479E-01  1.14585195E+00  1.00000000E+00  1.00000000E+00  1.83473713E-03
  1.40373228E-02  6.88426223E-02  2.32184443E-01  4.67941348E-01  3.62311985E-01
 -1.19332420E-01 -1.60854152E-01  1.14345644E+00  1.00000000E+00  1.00000000E+00
  1.83473713E-03  1.40373228E-02  6.88426223E-02  2.32184443E-01  4.67941348E-01
  3.62311985E-01 -1.19332420E-01 -1.60854152E-01  1.14345644E+00  1.00000000E+00
  1.00000000E+00  1.83473713E-03  1.40373228E-02  6.88426223E-02  2.32184443E-01
  4.67941348E-01  3.62311985E-01 -1.19332420E-01 -1.60854152E-01  1.14345644E+00
  1.00000000E+00  1.00000000E+00  1.83473713E-03  1.40373228E-02  6.88426223E-02
  2.32184443E-01  4.67941348E-01  3.62311985E-01 -1.19332420E-01 -1.60854152E-01
  1.14345644E+00  1.00000000E+00  1.00000000E+00  1.83473713E-03  1.40373228E-02
  6.88426223E-02  2.32184443E-01  4.67941348E-01  3.62311985E-01 -1.19332420E-01
 -1.60854152E-01  1.14345644E+00  1.00000000E+00  1.00000000E+00  3.34946043E-02
  2.34726953E-01  8.13757326E-01  1.00000000E+00  3.34946043E-02  2.34726953E-01
  8.13757326E-01  1.00000000E+00  3.34946043E-02  2.34726953E-01  8.13757326E-01
  1.00000000E+00  3.34946043E-02  2.34726953E-01  8.13757326E-01  1.00000000E+00
  3.34946043E-02  2.34726953E-01  8.13757326E-01  1.00000000E+00  3.34946043E-02
  2.34726953E-01  8.13757326E-01  1.00000000E+00
P(S=P) Contraction coefficients            R   N=         123
  0.00000000E+00  0.00000000E+00  0.00000000E+00  0.00000000E+00  0.00000000E+00
  0.00000000E+00  7.08742682E-02  3.39752839E-01  7.27158577E-01  1.00000000E+00
  0.00000000E+00  0.00000000E+00  0.00000000E+00  0.00000000E+00  0.00000000E+00
  0.00000000E+00  0.00000000E+00  7.08742682E-02  3.39752839E-01  7.27158577E-01
  1.00000000E+00  0.00000000E+00  0.00000000E+00  0.00000000E+00  0.00000000E+00
  0.00000000E+00  0.00000000E+00  0.00000000E+00  6.75797439E-02  3.23907296E-01
  7.40895140E-01  1.00000000E+00  0.00000000E+00  0.00000000E+00  0.00000000E+00
  0.00000000E+00  0.00000000E+00  0.00000000E+00  0.00000000E+00  6.75797439E-02
  3.23907296E-01  7.40895140E-01  1.00000000E+00  0.00000000E+00  0.00000000E+00
  0.00000000E+00  0.00000000E+00  0.00000000E+00  0.00000000E+00  0.00000000E+00
  6.89990666E-02  3.16423961E-01  7.44308291E-01  1.00000000E+00  0.00000000E+00
  0.00000000E+00  0.00000000E+00  0.00000000E+00  0.00000000E+00  0.00000000E+00
  0.00000000E+00  6.89990666E-02  3.16423961E-01  7.44308291E-01  1.00000000E+00
  0.00000000E+00  0.00000000E+00  0.00000000E+00  0.00000000E+00  0.00000000E+00
  0.00000000E+00  0.00000000E+00  6.89990666E-02  3.16423961E-01  7.44308291E-01
  1.00000000E+00  0.00000000E+00  0.00000000E+00  0.00000000E+00  0.00000000E+00
  0.00000000E+00  0.00000000E+00  0.00000000E+00  6.89990666E-02  3.16423961E-01
  7.44308291E-01  1.00000000E+00  0.00000000E+00  0.00000000E+00  0.00000000E+00
  0.00000000E+00  0.00000000E+00  0.00000000E+00  0.00000000E+00  6.89990666E-02
  3.16423961E-01  7.44308291E-01  1.00000000E+00  0.00000000E+00  0.00000000E+00
  0.00000000E+00  0.00000000E+00  0.00000000E+00  0.00000000E+00  0.00000000E+00
  0.00000000E+00  0.00000000E+00  0.00000000E+00  0.00000000E+00  0.00000000E+00
  0.00000000E+00  0.00000000E+00  0.00000000E+00  0.00000000E+00  0.00000000E+00
  0.00000000E+00  0.00000000E+00  0.00000000E+00  0.00000000E+00  0.00000000E+00
  0.00000000E+00  0.00000000E+00  0.00000000E+00
Coordinates of each shell                  R   N=         144
  2.74008872E+00  1.92884056E+00 -7.53172457E-06  2.74008872E+00  1.92884056E+00
 -7.53172457E-06  2.74008872E+00  1.92884056E+00 -7.53172457E-06  2.74008872E+00
  1.92884056E+00 -7.53172457E-06 -2.40540887E+00  3.02920514E+00  1.00498530E-05
 -2.40540887E+00  3.02920514E+00  1.00498530E-05 -2.40540887E+00  3.02920514E+00
  1.00498530E-05 -2.40540887E+00  3.02920514E+00  1.00498530E-05 -3.27319217E+00
 -1.25041613E+00 -1.93982192E-05 -3.27319217E+00 -1.25041613E+00 -1.93982192E-05
 -3.27319217E+00 -1.25041613E+00 -1.93982192E-05 -3.27319217E+00 -1.25041613E+00
 -1.93982192E-05  1.93756689E+00 -2.23486635E+00  5.86570178E-06  1.93756689E+00
 -2.23486635E+00  5.86570178E-06  1.93756689E+00 -2.23486635E+00  5.86570178E-06
  1.93756689E+00 -2.23486635E+00  5.86570178E-06  9.84874210E-01  6.05877196E-02
 -1.77731646E-06  9.84874210E-01  6.05877196E-02 -1.77731646E-06  9.84874210E-01
  6.05877196E-02 -1.77731646E-06  9.84874210E-01  6.05877196E-02 -1.77731646E-06
 -1.73054410E+00  7.99215024E-01 -1.49416098E-06 -1.73054410E+00  7.99215024E-01
 -1.49416098E-06 -1.73054410E+00  7.99215024E-01 -1.49416098E-06 -1.73054410E+00
  7.99215024E-01 -1.49416098E-06 -6.00135023E+00 -1.01289292E+00  5.11050975E-06
 -6.00135023E+00 -1.01289292E+00  5.11050975E-06 -6.00135023E+00 -1.01289292E+00
  5.11050975E-06 -6.00135023E+00 -1.01289292E+00  5.11050975E-06  5.00222074E+00
  6.81817287E-01 -2.53381774E-06  5.00222074E+00  6.81817287E-01 -2.53381774E-06
  5.00222074E+00  6.81817287E-01 -2.53381774E-06  5.00222074E+00  6.81817287E-01
 -2.53381774E-06  4.52133580E+00 -1.85319814E+00  7.52716846E-06  4.52133580E+00
 -1.85319814E+00  7.52716846E-06  4.52133580E+00 -1.85319814E+00  7.52716846E-06
  4.52133580E+00 -1.85319814E+00  7.52716846E-06 -2.43716080E+00 -2.97460271E+00
 -6.27182545E-06 -2.43716080E+00 -2.97460271E+00 -6.27182545E-06 -6.81731646E+00
 -1.88921337E+00  1.68429308E+00 -6.81731646E+00 -1.88921337E+00  1.68429308E+00
 -6.81734471E+00 -1.88926110E+00 -1.68424336E+00 -6.81734471E+00 -1.88926110E+00
 -1.68424336E+00 -6.43953721E+00  9.99394117E-01 -1.82277757E-05 -6.43953721E+00
  9.99394117E-01 -1.82277757E-05  6.67896192E+00  1.84124722E+00 -5.86764075E-06
  6.67896192E+00  1.84124722E+00 -5.86764075E-06  5.84511692E+00 -3.40812627E+00
  1.42386040E-05  5.84511692E+00 -3.40812627E+00  1.42386040E-05
Constraint Structure                       R   N=          45
  2.74008872E+00  1.92884056E+00 -7.53172457E-06 -2.40540887E+00  3.02920514E+00
  1.00498530E-05 -3.27319217E+00 -1.25041613E+00 -1.93982192E-05  1.93756689E+00
 -2.23486635E+00  5.86570178E-06  9.84874210E-01  6.05877196E-02 -1.77731646E-06
 -1.73054410E+00  7.99215024E-01 -1.49416098E-06 -6.00135023E+00 -1.01289292E+00
  5.11050975E-06  5.00222074E+00  6.81817287E-01 -2.53381774E-06  4.52133580E+00
 -1.85319814E+00  7.52716846E-06 -2.43716080E+00 -2.97460271E+00 -6.27182545E-06
 -6.81731646E+00 -1.88921337E+00  1.68429308E+00 -6.81734471E+00 -1.88926110E+00
 -1.68424336E+00 -6.43953721E+00  9.99394117E-01 -1.82277757E-05  6.67896192E+00
  1.84124722E+00 -5.86764075E-06  5.84511692E+00 -3.40812627E+00  1.42386040E-05
Num ILSW                                   I              100
ILSW                                       I   N=         100
           0           1           0           0           2           0
           0           0           0           0           0          -1
           0           0           0           0           0           0
           0           0           0           0           1           0
           1           0           0           0           0           0
           0           0      100000           0          -1           0
           0           0           0           0           0           0
           0           0           0           1           1           0
           0           0           1           0           0           0
           0           0           4          40           0           0
           0           0           0           0           0           0
           0           0           0           0           0           0
           0           0           0           0           0           0
           0           0           0           0           0           0
           0           0           0           0           0           0
           0           0           0           0           0           0
           0           0           0           0
Num RLSW                                   I               40
RLSW                                       R   N=          40
  1.00000000E+00  1.00000000E+00  1.00000000E+00  1.00000000E+00  1.00000000E+00
  0.00000000E+00  0.00000000E+00  1.00000000E+00  0.00000000E+00  0.00000000E+00
  0.00000000E+00  0.00000000E+00  1.00000000E+00  0.00000000E+00  0.00000000E+00
  0.00000000E+00  0.00000000E+00  1.00000000E+00  0.00000000E+00  0.00000000E+00
  0.00000000E+00  0.00000000E+00  1.00000000E+00  0.00000000E+00  0.00000000E+00
  0.00000000E+00  0.00000000E+00  1.00000000E+00  0.00000000E+00  0.00000000E+00
  0.00000000E+00  0.00000000E+00  0.00000000E+00  0.00000000E+00  0.00000000E+00
  0.00000000E+00  0.00000000E+00  0.00000000E+00  1.00000000E+00  1.00000000E+00
MxBond                                     I                4
NBond                                      I   N=          15
           2           1           3           2           3           3
           4           3           3           1           1           1
           1           1           1
IBond                                      I   N=          60
           5           8           0           0           6           0
           0           0           6           7          10           0
           5           9           0           0           1           4
           6           0           2           3           5           0
           3          11          12          13           1           9
          14           0           4           8          15           0
           3           0           0           0           7           0
           0           0           7           0           0           0
           7           0           0           0           8           0
           0           0           9           0           0           0
RBond                                      R   N=          60
  1.50000000E+00  1.50000000E+00  0.00000000E+00  0.00000000E+00  2.00000000E+00
  0.00000000E+00  0.00000000E+00  0.00000000E+00  1.00000000E+00  1.00000000E+00
  1.00000000E+00  0.00000000E+00  1.50000000E+00  1.00000000E+00  0.00000000E+00
  0.00000000E+00  1.50000000E+00  1.50000000E+00  1.00000000E+00  0.00000000E+00
  2.00000000E+00  1.00000000E+00  1.00000000E+00  0.00000000E+00  1.00000000E+00
  1.00000000E+00  1.00000000E+00  1.00000000E+00  1.50000000E+00  1.50000000E+00
  1.00000000E+00  0.00000000E+00  1.00000000E+00  1.50000000E+00  1.00000000E+00
  0.00000000E+00  1.00000000E+00  0.00000000E+00  0.00000000E+00  0.00000000E+00
  1.00000000E+00  0.00000000E+00  0.00000000E+00  0.00000000E+00  1.00000000E+00
  0.00000000E+00  0.00000000E+00  0.00000000E+00  1.00000000E+00  0.00000000E+00
  0.00000000E+00  0.00000000E+00  1.00000000E+00  0.00000000E+00  0.00000000E+00
  0.00000000E+00  1.00000000E+00  0.00000000E+00  0.00000000E+00  0.00000000E+00
Virial Ratio                               R      2.003087512617925E+00
SCF Energy                                 R     -4.514421831137630E+02
MP2 Energy                                 R     -4.527601147031397E+02
Total Energy                               R     -4.527601147031397E+02
Post-SCF wavefunction norm                 R      1.689944190490087E+00
RMS Force                                  R      3.752406801581139E-07
RMS Density                                R      1.492897070834696E-09
External E-field                           R   N=          35
  0.00000000E+00  0.00000000E+00  0.00000000E+00  0.00000000E+00  0.00000000E+00
  0.00000000E+00  0.00000000E+00  0.00000000E+00  0.00000000E+00  0.00000000E+00
  0.00000000E+00  0.00000000E+00  0.00000000E+00  0.00000000E+00  0.00000000E+00
  0.00000000E+00  0.00000000E+00  0.00000000E+00  0.00000000E+00  0.00000000E+00
  0.00000000E+00  0.00000000E+00  0.00000000E+00  0.00000000E+00  0.00000000E+00
  0.00000000E+00  0.00000000E+00  0.00000000E+00  0.00000000E+00  0.00000000E+00
  0.00000000E+00  0.00000000E+00  0.00000000E+00  0.00000000E+00  0.00000000E+00
IOpCl                                      I                0
IROHF                                      I                0
Alpha Orbital Energies                     R   N=         147
 -2.06650390E+01 -2.05365596E+01 -1.55982885E+01 -1.55981065E+01 -1.13744563E+01
 -1.13556192E+01 -1.13170378E+01 -1.12816651E+01 -1.12644597E+01 -1.50253572E+00
 -1.38025317E+00 -1.25817112E+00 -1.23087472E+00 -1.05957891E+00 -9.68456768E-01
 -8.70676353E-01 -8.46860506E-01 -7.89679467E-01 -7.70305195E-01 -6.78047229E-01
 -6.74995824E-01 -6.51087009E-01 -6.23600789E-01 -6.18172973E-01 -5.93208861E-01
 -5.86749285E-01 -5.51931835E-01 -5.41059795E-01 -4.86283524E-01 -4.65484001E-01
 -4.38748345E-01 -3.92210656E-01 -3.51520391E-01  9.40809680E-02  1.92400791E-01
  2.43768942E-01  2.64897244E-01  2.79205720E-01  2.82659938E-01  2.94040911E-01
  3.13599986E-01  3.21283240E-01  3.24976878E-01  3.57041113E-01  3.99269949E-01
  4.48733243E-01  4.85572962E-01  5.22685037E-01  5.63513184E-01  5.99460062E-01
  6.67617816E-01  7.10344822E-01  7.18438205E-01  7.33792081E-01  7.68334611E-01
  7.76805879E-01  7.84543015E-01  7.91575748E-01  8.23301209E-01  8.41577965E-01
  8.51991744E-01  8.94727070E-01  9.13502661E-01  9.32088839E-01  9.34492450E-01
  9.58093394E-01  1.00149467E+00  1.03163238E+00  1.04242535E+00  1.06802855E+00
  1.07569129E+00  1.08870348E+00  1.12411095E+00  1.14746932E+00  1.14887755E+00
  1.19696514E+00  1.20126071E+00  1.21482356E+00  1.25171955E+00  1.25849796E+00
  1.28201481E+00  1.30110452E+00  1.34946055E+00  1.38822014E+00  1.40319724E+00
  1.50512413E+00  1.50583661E+00  1.56065731E+00  1.58943081E+00  1.60327165E+00
  1.62634726E+00  1.64329736E+00  1.68393688E+00  1.71796073E+00  1.72349835E+00
  1.76690061E+00  1.80594684E+00  1.82716637E+00  1.83291062E+00  2.05689059E+00
  2.06733902E+00  2.06977231E+00  2.11115485E+00  2.15221527E+00  2.16201381E+00
  2.21979124E+00  2.24636918E+00  2.27776769E+00  2.31328342E+00  2.34692862E+00
  2.36561027E+00  2.39240041E+00  2.39750387E+00  2.47110335E+00  2.50506895E+00
  2.54387605E+00  2.54421692E+00  2.59163597E+00  2.59733422E+00  2.64251428E+00
  2.66714447E+00  2.68695593E+00  2.73101425E+00  2.82115271E+00  2.85138945E+00
  2.92182704E+00  2.93387297E+00  3.00861684E+00  3.02572211E+00  3.04050730E+00
  3.06617305E+00  3.18591331E+00  3.20150552E+00  3.27789025E+00  3.30005366E+00
  3.36047720E+00  3.60564971E+00  3.61713238E+00  4.33638218E+00  4.40731032E+00
  4.46652888E+00  4.56952017E+00  4.60838231E+00  4.71009959E+00  4.76109341E+00
  4.85234184E+00  5.27880429E+00
Alpha MO coefficients                      R   N=       21609
  9.94683450E-01  2.12219975E-02  1.94192554E-04 -1.35387483E-03  4.27949756E-09
  3.47506516E-03 -9.07747827E-05  8.30051354E-04 -2.92572127E-09 -4.05154039E-03
 -3.96591949E-03 -3.89760498E-03 -1.25242640E-06 -4.80236380E-11  2.70573371E-10
 -2.43824171E-05 -4.87732606E-05  2.07234196E-05  1.17499819E-05 -6.30396119E-11
  3.99992707E-04  2.55739003E-05 -8.62045221E-05 -3.67648959E-11 -1.85654727E-05
 -2.11140910E-05  1.64405452E-06 -4.05474672E-06  1.25396257E-10 -1.80819510E-10
  1.34794569E-05  5.97028789E-05 -8.30789258E-07  6.50596556E-06  1.64579550E-10
 -6.27243843E-04 -2.07047173E-04 -1.87362533E-04 -2.36909604E-09  8.46454397E-06
  3.07229854E-05  2.83487540E-05 -1.49908137E-05 -2.16979682E-10 -2.14239013E-11
 -1.61196160E-05 -5.52221815E-05 -9.57508335E-06 -6.71449629E-05  4.06421727E-10
  3.83815552E-04  1.84099908E-05  1.32926133E-04 -1.33038848E-09 -2.98008246E-06
 -8.17716231E-05 -5.56782168E-05 -7.30789121E-06  8.62142621E-11  1.06097560E-11
  3.31170495E-06  4.00003757E-04  2.44703046E-04  2.65630131E-04 -9.30888320E-10
 -2.83271007E-04  2.24318903E-04  1.31354740E-04  1.67596696E-09 -5.47994553E-05
 -2.72862446E-05 -4.25037497E-05 -4.95658615E-05  1.42324724E-11  1.04785836E-10
 -1.57979969E-06  1.06485584E-05  3.47732841E-07  1.35782523E-05 -1.46376065E-11
  3.58291883E-04 -1.31591593E-04 -7.29998663E-04 -4.19380362E-09 -4.35485592E-05
  1.54318964E-05 -7.30379397E-06 -8.88565255E-06  3.84912794E-10  1.92630726E-10
  5.39701762E-07 -1.61539422E-06  7.72596277E-06  5.02852637E-07  1.30156015E-10
 -1.24279371E-05 -1.10091954E-05  3.63690726E-05  5.91673609E-13  6.63596079E-06
  1.17470598E-06  1.73037384E-06  4.79762176E-06  7.18569910E-11 -2.15127278E-10
 -5.51627927E-06  3.42296240E-04 -3.25215028E-04  1.90115169E-04 -6.98496436E-10
  5.00687886E-04 -2.46770593E-04 -7.38331568E-04  2.41853606E-09 -5.81227688E-05
  2.64284351E-07 -5.79462940E-05  1.09969442E-05 -1.51312245E-11 -2.60809247E-10
  7.37268251E-06  3.35612921E-05  1.97203014E-05 -6.27068662E-05  2.83273553E-10
 -8.92815074E-04  7.80827780E-05 -4.55961637E-04  2.20079756E-09  5.70286078E-06
 -5.51793757E-05 -2.03087849E-06 -4.69389070E-06 -4.20753709E-11  2.39445855E-10
  1.31326893E-05  7.50095494E-08  8.93169874E-07  3.34900279E-06  8.93302862E-07
  3.34865482E-06 -2.05850712E-07 -2.41681859E-05  3.68005212E-05  1.99986453E-04
  7.62710617E-06 -8.24148111E-05  2.30617801E-05  1.89566166E-05 -8.91295524E-06
  1.22258468E-05  4.86934684E-11 -1.09115401E-04  9.47895574E-05  6.78364545E-06
 -4.87272150E-10  1.62884504E-05  1.38535320E-06  2.25976892E-05 -2.02288012E-05
  1.92120439E-10  1.64540522E-10  9.94697305E-01  2.09563606E-02  4.28292418E-04
 -1.51496311E-03 -8.00614883E-09  4.48570168E-03 -2.82422091E-05  6.63911481E-05
  4.76291160E-10 -3.87267483E-03 -3.66399695E-03 -4.10003202E-03 -8.66895408E-05
 -3.12456896E-10  2.66199030E-09 -6.59889101E-07 -1.42778155E-05  1.57143226E-05
 -1.87146704E-05 -1.21369026E-10 -9.69240051E-05 -4.21072151E-05  2.85380432E-06
  8.77564108E-10  1.14321098E-04 -6.61956517E-05 -3.32152734E-05  4.97443397E-05
  3.80273686E-10 -1.45577339E-12  4.02800596E-07  5.65244847E-06 -1.36992006E-05
  1.98916432E-05 -6.94396797E-11  9.08674562E-05  1.49051894E-05  3.35531286E-05
 -4.78559558E-10 -1.00591103E-05  2.86223477E-05  3.44878320E-06  1.32294301E-06
 -4.99571115E-12 -2.25277935E-10  1.66884722E-06  1.22786006E-05  1.89721131E-05
 -9.70574723E-06 -2.24096321E-10 -1.28399039E-04  7.79917784E-05  1.63012300E-04
  4.85180145E-10  1.75509146E-05 -3.21957377E-05 -1.35237620E-05  8.27668482E-05
  2.95163586E-10  5.48068275E-13 -3.93546469E-06  5.24015690E-04  9.83272388E-06
 -1.03786833E-05  8.99759866E-12 -2.88641757E-04  1.72507909E-04 -5.61734669E-04
 -3.34266012E-09 -9.81158582E-05 -7.41693353E-04 -4.72358800E-05  2.23569488E-04
  1.30481138E-09 -4.19095541E-09 -6.57767448E-06 -1.00358082E-05 -1.87329980E-05
  3.91259361E-06  8.71219530E-10  1.51028589E-04 -4.24624598E-05  5.33882663E-05
 -2.53490232E-09 -5.17400164E-05 -1.16872445E-05 -8.02783090E-06  1.30678598E-05
  8.11321387E-10 -7.83567622E-11 -5.32867495E-07  3.45582981E-06  9.90434832E-06
 -6.86806040E-06  4.96470019E-11 -5.10632157E-05  2.88855236E-05 -8.13073525E-06
  7.59921521E-11 -9.57348534E-06 -6.68234392E-06  5.11391938E-07  7.45999543E-06
 -4.83849982E-11  5.16388724E-11 -8.10455206E-07 -2.39630430E-06  5.72781271E-06
 -1.03002362E-06  3.27392635E-11 -6.66124799E-06 -3.62767744E-06  1.36464102E-05
 -2.84707821E-11 -2.55985611E-06 -7.09200291E-07 -2.26045538E-06  4.03026673E-06
 -3.27975751E-11 -2.00608464E-11  1.96804922E-05 -8.27599359E-06 -9.08284449E-06
 -1.32268002E-05 -9.08335037E-06 -1.32289722E-05  1.31468784E-05 -1.55811825E-04
  1.15624430E-06 -2.86486335E-06  3.08372288E-06  7.17411443E-06 -6.94044930E-05
 -4.03728639E-04  5.24894451E-05  8.64772182E-05 -3.19516144E-10  2.07109433E-03
 -3.34869626E-04 -3.44635892E-04  1.92550324E-09 -1.27187095E-04 -2.02676834E-04