13601408                                                                
Freq      RMP2-FC                                                     6-31G(d)            
Number of atoms                            I               20
Info1-9                                    I   N=           9
          33          30        1002           0           0         100
           6           2           1
Charge                                     I                0
Multiplicity                               I                1
Number of electrons                        I               84
Number of alpha electrons                  I               42
Number of beta electrons                   I               42
Number of basis functions                  I              196
Number of independent functions            I              196
Number of point charges in /Mol/           I                0
Number of translation vectors              I                0
Atomic numbers                             I   N=          20
           7           7           7           7           6           6
           6           6           6           6           6           1
           1           1           1           1           6           1
           1           1
Nuclear charges                            R   N=          20
  7.00000000E+00  7.00000000E+00  7.00000000E+00  7.00000000E+00  6.00000000E+00
  6.00000000E+00  6.00000000E+00  6.00000000E+00  6.00000000E+00  6.00000000E+00
  6.00000000E+00  1.00000000E+00  1.00000000E+00  1.00000000E+00  1.00000000E+00
  1.00000000E+00  6.00000000E+00  1.00000000E+00  1.00000000E+00  1.00000000E+00
Current cartesian coordinates              R   N=          60
 -3.27187302E+00  1.21830853E+00  1.59048052E-01 -2.71093257E+00 -2.95711827E+00
 -3.48935850E-01  2.10008698E+00  1.92947770E+00 -5.53612759E-01  2.57962356E+00
 -2.46657793E+00  5.23737247E-01 -1.55179557E+00 -7.25790385E-01 -5.00539040E-02
  1.19101057E+00 -3.94166448E-01 -1.47062003E-02 -5.62651959E+00  1.46534028E-01
 -1.40698193E-02 -5.22884380E+00 -2.41553306E+00 -3.28938243E-01  4.62567398E+00
  2.17657052E+00 -5.47365401E-01  5.09028746E+00 -2.15761596E+00  4.74399514E-01
  6.23487287E+00  1.57551741E-01 -5.69993823E-02 -7.32448737E+00  1.27562855E+00
  1.18922490E-01 -6.63607604E+00 -3.88412910E+00 -5.45652410E-01  5.35362283E+00
  4.05405706E+00 -9.71799423E-01  6.21213949E+00 -3.83084763E+00  8.95371222E-01
  8.27429233E+00  3.74066452E-01 -7.74152355E-02 -2.82875182E+00  3.91263612E+00
  5.57277230E-01 -1.51149751E+00  4.19007241E+00  2.11481599E+00 -2.03943017E+00
  4.77524275E+00 -1.13631361E+00 -4.64250283E+00  4.77615996E+00  1.02315138E+00
Force Field                                I                0
Int Atom Types                             I   N=          20
           0           0           0           0           0           0
           0           0           0           0           0           0
           0           0           0           0           0           0
           0           0
MM charges                                 R   N=          20
  0.00000000E+00  0.00000000E+00  0.00000000E+00  0.00000000E+00  0.00000000E+00
  0.00000000E+00  0.00000000E+00  0.00000000E+00  0.00000000E+00  0.00000000E+00
  0.00000000E+00  0.00000000E+00  0.00000000E+00  0.00000000E+00  0.00000000E+00
  0.00000000E+00  0.00000000E+00  0.00000000E+00  0.00000000E+00  0.00000000E+00
Integer atomic weights                     I   N=          20
          14          14          14          14          12          12
          12          12          12          12          12           1
           1           1           1           1          12           1
           1           1
Real atomic weights                        R   N=          20
  1.40030740E+01  1.40030740E+01  1.40030740E+01  1.40030740E+01  1.20000000E+01
  1.20000000E+01  1.20000000E+01  1.20000000E+01  1.20000000E+01  1.20000000E+01
  1.20000000E+01  1.00782504E+00  1.00782504E+00  1.00782504E+00  1.00782504E+00
  1.00782504E+00  1.20000000E+01  1.00782504E+00  1.00782504E+00  1.00782504E+00
Atom fragment info                         I   N=          20
           0           0           0           0           0           0
           0           0           0           0           0           0
           0           0           0           0           0           0
           0           0
Atom residue num                           I   N=          20
           0           0           0           0           0           0
           0           0           0           0           0           0
           0           0           0           0           0           0
           0           0
Nuclear spins                              I   N=          20
           2           2           2           2           0           0
           0           0           0           0           0           1
           1           1           1           1           0           1
           1           1
Nuclear ZEff                               R   N=          20
 -4.55000000E+00 -4.55000000E+00 -4.55000000E+00 -4.55000000E+00 -3.60000000E+00
 -3.60000000E+00 -3.60000000E+00 -3.60000000E+00 -3.60000000E+00 -3.60000000E+00
 -3.60000000E+00 -1.00000000E+00 -1.00000000E+00 -1.00000000E+00 -1.00000000E+00
 -1.00000000E+00 -3.60000000E+00 -1.00000000E+00 -1.00000000E+00 -1.00000000E+00
Nuclear QMom                               R   N=          20
  2.04400000E+00  2.04400000E+00  2.04400000E+00  2.04400000E+00  0.00000000E+00
  0.00000000E+00  0.00000000E+00  0.00000000E+00  0.00000000E+00  0.00000000E+00
  0.00000000E+00  0.00000000E+00  0.00000000E+00  0.00000000E+00  0.00000000E+00
  0.00000000E+00  0.00000000E+00  0.00000000E+00  0.00000000E+00  0.00000000E+00
Nuclear GFac                               R   N=          20
  4.03761000E-01  4.03761000E-01  4.03761000E-01  4.03761000E-01  0.00000000E+00
  0.00000000E+00  0.00000000E+00  0.00000000E+00  0.00000000E+00  0.00000000E+00
  0.00000000E+00  2.79284600E+00  2.79284600E+00  2.79284600E+00  2.79284600E+00
  2.79284600E+00  0.00000000E+00  2.79284600E+00  2.79284600E+00  2.79284600E+00
MicOpt                                     I   N=          20
          -1          -1          -1          -1          -1          -1
          -1          -1          -1          -1          -1          -1
          -1          -1          -1          -1          -1          -1
          -1          -1
Number of contracted shells                I               64
Number of primitive shells                 I              164
Pure/Cartesian d shells                    I                1
Pure/Cartesian f shells                    I                0
Highest angular momentum                   I                2
Largest degree of contraction              I                6
Shell types                                I   N=          64
           0          -1          -1           2           0          -1
          -1           2           0          -1          -1           2
           0          -1          -1           2           0          -1
          -1           2           0          -1          -1           2
           0          -1          -1           2           0          -1
          -1           2           0          -1          -1           2
           0          -1          -1           2           0          -1
          -1           2           0           0           0           0
           0           0           0           0           0           0
           0          -1          -1           2           0           0
           0           0           0           0
Number of primitives per shell             I   N=          64
           6           3           1           1           6           3
           1           1           6           3           1           1
           6           3           1           1           6           3
           1           1           6           3           1           1
           6           3           1           1           6           3
           1           1           6           3           1           1
           6           3           1           1           6           3
           1           1           3           1           3           1
           3           1           3           1           3           1
           6           3           1           1           3           1
           3           1           3           1
Shell to atom map                          I   N=          64
           1           1           1           1           2           2
           2           2           3           3           3           3
           4           4           4           4           5           5
           5           5           6           6           6           6
           7           7           7           7           8           8
           8           8           9           9           9           9
          10          10          10          10          11          11
          11          11          12          12          13          13
          14          14          15          15          16          16
          17          17          17          17          18          18
          19          19          20          20
Primitive exponents                        R   N=         164
  4.17351146E+03  6.27457911E+02  1.42902093E+02  4.02343293E+01  1.28202129E+01
  4.39043701E+00  1.16263619E+01  2.71627981E+00  7.72218397E-01  2.12031498E-01
  8.00000000E-01  4.17351146E+03  6.27457911E+02  1.42902093E+02  4.02343293E+01
  1.28202129E+01  4.39043701E+00  1.16263619E+01  2.71627981E+00  7.72218397E-01
  2.12031498E-01  8.00000000E-01  4.17351146E+03  6.27457911E+02  1.42902093E+02
  4.02343293E+01  1.28202129E+01  4.39043701E+00  1.16263619E+01  2.71627981E+00
  7.72218397E-01  2.12031498E-01  8.00000000E-01  4.17351146E+03  6.27457911E+02
  1.42902093E+02  4.02343293E+01  1.28202129E+01  4.39043701E+00  1.16263619E+01
  2.71627981E+00  7.72218397E-01  2.12031498E-01  8.00000000E-01  3.04752488E+03
  4.57369518E+02  1.03948685E+02  2.92101553E+01  9.28666296E+00  3.16392696E+00
  7.86827235E+00  1.88128854E+00  5.44249258E-01  1.68714478E-01  8.00000000E-01
  3.04752488E+03  4.57369518E+02  1.03948685E+02  2.92101553E+01  9.28666296E+00
  3.16392696E+00  7.86827235E+00  1.88128854E+00  5.44249258E-01  1.68714478E-01
  8.00000000E-01  3.04752488E+03  4.57369518E+02  1.03948685E+02  2.92101553E+01
  9.28666296E+00  3.16392696E+00  7.86827235E+00  1.88128854E+00  5.44249258E-01
  1.68714478E-01  8.00000000E-01  3.04752488E+03  4.57369518E+02  1.03948685E+02
  2.92101553E+01  9.28666296E+00  3.16392696E+00  7.86827235E+00  1.88128854E+00
  5.44249258E-01  1.68714478E-01  8.00000000E-01  3.04752488E+03  4.57369518E+02
  1.03948685E+02  2.92101553E+01  9.28666296E+00  3.16392696E+00  7.86827235E+00
  1.88128854E+00  5.44249258E-01  1.68714478E-01  8.00000000E-01  3.04752488E+03
  4.57369518E+02  1.03948685E+02  2.92101553E+01  9.28666296E+00  3.16392696E+00
  7.86827235E+00  1.88128854E+00  5.44249258E-01  1.68714478E-01  8.00000000E-01
  3.04752488E+03  4.57369518E+02  1.03948685E+02  2.92101553E+01  9.28666296E+00
  3.16392696E+00  7.86827235E+00  1.88128854E+00  5.44249258E-01  1.68714478E-01
  8.00000000E-01  1.87311370E+01  2.82539436E+00  6.40121692E-01  1.61277759E-01
  1.87311370E+01  2.82539436E+00  6.40121692E-01  1.61277759E-01  1.87311370E+01
  2.82539436E+00  6.40121692E-01  1.61277759E-01  1.87311370E+01  2.82539436E+00
  6.40121692E-01  1.61277759E-01  1.87311370E+01  2.82539436E+00  6.40121692E-01
  1.61277759E-01  3.04752488E+03  4.57369518E+02  1.03948685E+02  2.92101553E+01
  9.28666296E+00  3.16392696E+00  7.86827235E+00  1.88128854E+00  5.44249258E-01
  1.68714478E-01  8.00000000E-01  1.87311370E+01  2.82539436E+00  6.40121692E-01
  1.61277759E-01  1.87311370E+01  2.82539436E+00  6.40121692E-01  1.61277759E-01
  1.87311370E+01  2.82539436E+00  6.40121692E-01  1.61277759E-01
Contraction coefficients                   R   N=         164
  1.83477216E-03  1.39946270E-02  6.85865518E-02  2.32240873E-01  4.69069948E-01
  3.60455199E-01 -1.14961182E-01 -1.69117479E-01  1.14585195E+00  1.00000000E+00
  1.00000000E+00  1.83477216E-03  1.39946270E-02  6.85865518E-02  2.32240873E-01
  4.69069948E-01  3.60455199E-01 -1.14961182E-01 -1.69117479E-01  1.14585195E+00
  1.00000000E+00  1.00000000E+00  1.83477216E-03  1.39946270E-02  6.85865518E-02
  2.32240873E-01  4.69069948E-01  3.60455199E-01 -1.14961182E-01 -1.69117479E-01
  1.14585195E+00  1.00000000E+00  1.00000000E+00  1.83477216E-03  1.39946270E-02
  6.85865518E-02  2.32240873E-01  4.69069948E-01  3.60455199E-01 -1.14961182E-01
 -1.69117479E-01  1.14585195E+00  1.00000000E+00  1.00000000E+00  1.83473713E-03
  1.40373228E-02  6.88426223E-02  2.32184443E-01  4.67941348E-01  3.62311985E-01
 -1.19332420E-01 -1.60854152E-01  1.14345644E+00  1.00000000E+00  1.00000000E+00
  1.83473713E-03  1.40373228E-02  6.88426223E-02  2.32184443E-01  4.67941348E-01
  3.62311985E-01 -1.19332420E-01 -1.60854152E-01  1.14345644E+00  1.00000000E+00
  1.00000000E+00  1.83473713E-03  1.40373228E-02  6.88426223E-02  2.32184443E-01
  4.67941348E-01  3.62311985E-01 -1.19332420E-01 -1.60854152E-01  1.14345644E+00
  1.00000000E+00  1.00000000E+00  1.83473713E-03  1.40373228E-02  6.88426223E-02
  2.32184443E-01  4.67941348E-01  3.62311985E-01 -1.19332420E-01 -1.60854152E-01
  1.14345644E+00  1.00000000E+00  1.00000000E+00  1.83473713E-03  1.40373228E-02
  6.88426223E-02  2.32184443E-01  4.67941348E-01  3.62311985E-01 -1.19332420E-01
 -1.60854152E-01  1.14345644E+00  1.00000000E+00  1.00000000E+00  1.83473713E-03
  1.40373228E-02  6.88426223E-02  2.32184443E-01  4.67941348E-01  3.62311985E-01
 -1.19332420E-01 -1.60854152E-01  1.14345644E+00  1.00000000E+00  1.00000000E+00
  1.83473713E-03  1.40373228E-02  6.88426223E-02  2.32184443E-01  4.67941348E-01
  3.62311985E-01 -1.19332420E-01 -1.60854152E-01  1.14345644E+00  1.00000000E+00
  1.00000000E+00  3.34946043E-02  2.34726953E-01  8.13757326E-01  1.00000000E+00
  3.34946043E-02  2.34726953E-01  8.13757326E-01  1.00000000E+00  3.34946043E-02
  2.34726953E-01  8.13757326E-01  1.00000000E+00  3.34946043E-02  2.34726953E-01
  8.13757326E-01  1.00000000E+00  3.34946043E-02  2.34726953E-01  8.13757326E-01
  1.00000000E+00  1.83473713E-03  1.40373228E-02  6.88426223E-02  2.32184443E-01
  4.67941348E-01  3.62311985E-01 -1.19332420E-01 -1.60854152E-01  1.14345644E+00
  1.00000000E+00  1.00000000E+00  3.34946043E-02  2.34726953E-01  8.13757326E-01
  1.00000000E+00  3.34946043E-02  2.34726953E-01  8.13757326E-01  1.00000000E+00
  3.34946043E-02  2.34726953E-01  8.13757326E-01  1.00000000E+00
P(S=P) Contraction coefficients            R   N=         164
  0.00000000E+00  0.00000000E+00  0.00000000E+00  0.00000000E+00  0.00000000E+00
  0.00000000E+00  6.75797439E-02  3.23907296E-01  7.40895140E-01  1.00000000E+00
  0.00000000E+00  0.00000000E+00  0.00000000E+00  0.00000000E+00  0.00000000E+00
  0.00000000E+00  0.00000000E+00  6.75797439E-02  3.23907296E-01  7.40895140E-01
  1.00000000E+00  0.00000000E+00  0.00000000E+00  0.00000000E+00  0.00000000E+00
  0.00000000E+00  0.00000000E+00  0.00000000E+00  6.75797439E-02  3.23907296E-01
  7.40895140E-01  1.00000000E+00  0.00000000E+00  0.00000000E+00  0.00000000E+00
  0.00000000E+00  0.00000000E+00  0.00000000E+00  0.00000000E+00  6.75797439E-02
  3.23907296E-01  7.40895140E-01  1.00000000E+00  0.00000000E+00  0.00000000E+00
  0.00000000E+00  0.00000000E+00  0.00000000E+00  0.00000000E+00  0.00000000E+00
  6.89990666E-02  3.16423961E-01  7.44308291E-01  1.00000000E+00  0.00000000E+00
  0.00000000E+00  0.00000000E+00  0.00000000E+00  0.00000000E+00  0.00000000E+00
  0.00000000E+00  6.89990666E-02  3.16423961E-01  7.44308291E-01  1.00000000E+00
  0.00000000E+00  0.00000000E+00  0.00000000E+00  0.00000000E+00  0.00000000E+00
  0.00000000E+00  0.00000000E+00  6.89990666E-02  3.16423961E-01  7.44308291E-01
  1.00000000E+00  0.00000000E+00  0.00000000E+00  0.00000000E+00  0.00000000E+00
  0.00000000E+00  0.00000000E+00  0.00000000E+00  6.89990666E-02  3.16423961E-01
  7.44308291E-01  1.00000000E+00  0.00000000E+00  0.00000000E+00  0.00000000E+00
  0.00000000E+00  0.00000000E+00  0.00000000E+00  0.00000000E+00  6.89990666E-02
  3.16423961E-01  7.44308291E-01  1.00000000E+00  0.00000000E+00  0.00000000E+00
  0.00000000E+00  0.00000000E+00  0.00000000E+00  0.00000000E+00  0.00000000E+00
  6.89990666E-02  3.16423961E-01  7.44308291E-01  1.00000000E+00  0.00000000E+00
  0.00000000E+00  0.00000000E+00  0.00000000E+00  0.00000000E+00  0.00000000E+00
  0.00000000E+00  6.89990666E-02  3.16423961E-01  7.44308291E-01  1.00000000E+00
  0.00000000E+00  0.00000000E+00  0.00000000E+00  0.00000000E+00  0.00000000E+00
  0.00000000E+00  0.00000000E+00  0.00000000E+00  0.00000000E+00  0.00000000E+00
  0.00000000E+00  0.00000000E+00  0.00000000E+00  0.00000000E+00  0.00000000E+00
  0.00000000E+00  0.00000000E+00  0.00000000E+00  0.00000000E+00  0.00000000E+00
  0.00000000E+00  0.00000000E+00  0.00000000E+00  0.00000000E+00  0.00000000E+00
  0.00000000E+00  0.00000000E+00  6.89990666E-02  3.16423961E-01  7.44308291E-01
  1.00000000E+00  0.00000000E+00  0.00000000E+00  0.00000000E+00  0.00000000E+00
  0.00000000E+00  0.00000000E+00  0.00000000E+00  0.00000000E+00  0.00000000E+00
  0.00000000E+00  0.00000000E+00  0.00000000E+00  0.00000000E+00
Coordinates of each shell                  R   N=         192
 -3.27187302E+00  1.21830853E+00  1.59048052E-01 -3.27187302E+00  1.21830853E+00
  1.59048052E-01 -3.27187302E+00  1.21830853E+00  1.59048052E-01 -3.27187302E+00
  1.21830853E+00  1.59048052E-01 -2.71093257E+00 -2.95711827E+00 -3.48935850E-01
 -2.71093257E+00 -2.95711827E+00 -3.48935850E-01 -2.71093257E+00 -2.95711827E+00
 -3.48935850E-01 -2.71093257E+00 -2.95711827E+00 -3.48935850E-01  2.10008698E+00
  1.92947770E+00 -5.53612759E-01  2.10008698E+00  1.92947770E+00 -5.53612759E-01
  2.10008698E+00  1.92947770E+00 -5.53612759E-01  2.10008698E+00  1.92947770E+00
 -5.53612759E-01  2.57962356E+00 -2.46657793E+00  5.23737247E-01  2.57962356E+00
 -2.46657793E+00  5.23737247E-01  2.57962356E+00 -2.46657793E+00  5.23737247E-01
  2.57962356E+00 -2.46657793E+00  5.23737247E-01 -1.55179557E+00 -7.25790385E-01
 -5.00539040E-02 -1.55179557E+00 -7.25790385E-01 -5.00539040E-02 -1.55179557E+00
 -7.25790385E-01 -5.00539040E-02 -1.55179557E+00 -7.25790385E-01 -5.00539040E-02
  1.19101057E+00 -3.94166448E-01 -1.47062003E-02  1.19101057E+00 -3.94166448E-01
 -1.47062003E-02  1.19101057E+00 -3.94166448E-01 -1.47062003E-02  1.19101057E+00
 -3.94166448E-01 -1.47062003E-02 -5.62651959E+00  1.46534028E-01 -1.40698193E-02
 -5.62651959E+00  1.46534028E-01 -1.40698193E-02 -5.62651959E+00  1.46534028E-01
 -1.40698193E-02 -5.62651959E+00  1.46534028E-01 -1.40698193E-02 -5.22884380E+00
 -2.41553306E+00 -3.28938243E-01 -5.22884380E+00 -2.41553306E+00 -3.28938243E-01
 -5.22884380E+00 -2.41553306E+00 -3.28938243E-01 -5.22884380E+00 -2.41553306E+00
 -3.28938243E-01  4.62567398E+00  2.17657052E+00 -5.47365401E-01  4.62567398E+00
  2.17657052E+00 -5.47365401E-01  4.62567398E+00  2.17657052E+00 -5.47365401E-01
  4.62567398E+00  2.17657052E+00 -5.47365401E-01  5.09028746E+00 -2.15761596E+00
  4.74399514E-01  5.09028746E+00 -2.15761596E+00  4.74399514E-01  5.09028746E+00
 -2.15761596E+00  4.74399514E-01  5.09028746E+00 -2.15761596E+00  4.74399514E-01
  6.23487287E+00  1.57551741E-01 -5.69993823E-02  6.23487287E+00  1.57551741E-01
 -5.69993823E-02  6.23487287E+00  1.57551741E-01 -5.69993823E-02  6.23487287E+00
  1.57551741E-01 -5.69993823E-02 -7.32448737E+00  1.27562855E+00  1.18922490E-01
 -7.32448737E+00  1.27562855E+00  1.18922490E-01 -6.63607604E+00 -3.88412910E+00
 -5.45652410E-01 -6.63607604E+00 -3.88412910E+00 -5.45652410E-01  5.35362283E+00
  4.05405706E+00 -9.71799423E-01  5.35362283E+00  4.05405706E+00 -9.71799423E-01
  6.21213949E+00 -3.83084763E+00  8.95371222E-01  6.21213949E+00 -3.83084763E+00
  8.95371222E-01  8.27429233E+00  3.74066452E-01 -7.74152355E-02  8.27429233E+00
  3.74066452E-01 -7.74152355E-02 -2.82875182E+00  3.91263612E+00  5.57277230E-01
 -2.82875182E+00  3.91263612E+00  5.57277230E-01 -2.82875182E+00  3.91263612E+00
  5.57277230E-01 -2.82875182E+00  3.91263612E+00  5.57277230E-01 -1.51149751E+00
  4.19007241E+00  2.11481599E+00 -1.51149751E+00  4.19007241E+00  2.11481599E+00
 -2.03943017E+00  4.77524275E+00 -1.13631361E+00 -2.03943017E+00  4.77524275E+00
 -1.13631361E+00 -4.64250283E+00  4.77615996E+00  1.02315138E+00 -4.64250283E+00
  4.77615996E+00  1.02315138E+00
Constraint Structure                       R   N=          60
 -3.27187302E+00  1.21830853E+00  1.59048052E-01 -2.71093257E+00 -2.95711827E+00
 -3.48935850E-01  2.10008698E+00  1.92947770E+00 -5.53612759E-01  2.57962356E+00
 -2.46657793E+00  5.23737247E-01 -1.55179557E+00 -7.25790385E-01 -5.00539040E-02
  1.19101057E+00 -3.94166448E-01 -1.47062003E-02 -5.62651959E+00  1.46534028E-01
 -1.40698193E-02 -5.22884380E+00 -2.41553306E+00 -3.28938243E-01  4.62567398E+00
  2.17657052E+00 -5.47365401E-01  5.09028746E+00 -2.15761596E+00  4.74399514E-01
  6.23487287E+00  1.57551741E-01 -5.69993823E-02 -7.32448737E+00  1.27562855E+00
  1.18922490E-01 -6.63607604E+00 -3.88412910E+00 -5.45652410E-01  5.35362283E+00
  4.05405706E+00 -9.71799423E-01  6.21213949E+00 -3.83084763E+00  8.95371222E-01
  8.27429233E+00  3.74066452E-01 -7.74152355E-02 -2.82875182E+00  3.91263612E+00
  5.57277230E-01 -1.51149751E+00  4.19007241E+00  2.11481599E+00 -2.03943017E+00
  4.77524275E+00 -1.13631361E+00 -4.64250283E+00  4.77615996E+00  1.02315138E+00
Num ILSW                                   I              100
ILSW                                       I   N=         100
           0           1           0           1           2           0
           0           0           0           0           0          -1
           0           0           0           0           0           0
           0           0           0           0           1           0
           1           0           0           0           0           0
           0           0      100000           0          -1           0
           0           0           0           0           0           0
           0           0           0           1           1           0
           0           0           1           0           0           0
           0           0           4          40           0           0
           0           0           0           0           0           0
           0           0           0           0           0           0
           0           0           0           0           0           0
           0           0           0           0           0           0
           0           0           0           0           0           0
           0           0           0           0           0           0
           0           0           0           0
Num RLSW                                   I               40
RLSW                                       R   N=          40
  1.00000000E+00  1.00000000E+00  1.00000000E+00  1.00000000E+00  1.00000000E+00
  0.00000000E+00  0.00000000E+00  1.00000000E+00  0.00000000E+00  0.00000000E+00
  0.00000000E+00  0.00000000E+00  1.00000000E+00  0.00000000E+00  0.00000000E+00
  0.00000000E+00  0.00000000E+00  1.00000000E+00  0.00000000E+00  0.00000000E+00
  0.00000000E+00  0.00000000E+00  1.00000000E+00  0.00000000E+00  0.00000000E+00
  0.00000000E+00  0.00000000E+00  1.00000000E+00  0.00000000E+00  0.00000000E+00
  0.00000000E+00  0.00000000E+00  0.00000000E+00  0.00000000E+00  0.00000000E+00
  0.00000000E+00  0.00000000E+00  0.00000000E+00  1.00000000E+00  1.00000000E+00
MxBond                                     I                4
NBond                                      I   N=          20
           3           2           2           2           3           3
           3           3           3           3           3           1
           1           1           1           1           4           1
           1           1
IBond                                      I   N=          80
           5           7          17           0           5           8
           0           0           6           9           0           0
           6          10           0           0           1           2
           6           0           3           4           5           0
           1           8          12           0           2           7
          13           0           3          11          14           0
           4          11          15           0           9          10
          16           0           7           0           0           0
           8           0           0           0           9           0
           0           0          10           0           0           0
          11           0           0           0           1          18
          19          20          17           0           0           0
          17           0           0           0          17           0
           0           0
RBond                                      R   N=          80
  1.50000000E+00  1.50000000E+00  1.00000000E+00  0.00000000E+00  1.50000000E+00
  1.00000000E+00  0.00000000E+00  0.00000000E+00  1.50000000E+00  1.50000000E+00
  0.00000000E+00  0.00000000E+00  1.50000000E+00  1.50000000E+00  0.00000000E+00
  0.00000000E+00  1.50000000E+00  1.50000000E+00  1.00000000E+00  0.00000000E+00
  1.50000000E+00  1.50000000E+00  1.00000000E+00  0.00000000E+00  1.50000000E+00
  1.50000000E+00  1.00000000E+00  0.00000000E+00  1.00000000E+00  1.50000000E+00
  1.00000000E+00  0.00000000E+00  1.50000000E+00  1.50000000E+00  1.00000000E+00
  0.00000000E+00  1.50000000E+00  1.50000000E+00  1.00000000E+00  0.00000000E+00
  1.50000000E+00  1.50000000E+00  1.00000000E+00  0.00000000E+00  1.00000000E+00
  0.00000000E+00  0.00000000E+00  0.00000000E+00  1.00000000E+00  0.00000000E+00
  0.00000000E+00  0.00000000E+00  1.00000000E+00  0.00000000E+00  0.00000000E+00
  0.00000000E+00  1.00000000E+00  0.00000000E+00  0.00000000E+00  0.00000000E+00
  1.00000000E+00  0.00000000E+00  0.00000000E+00  0.00000000E+00  1.00000000E+00
  1.00000000E+00  1.00000000E+00  1.00000000E+00  1.00000000E+00  0.00000000E+00
  0.00000000E+00  0.00000000E+00  1.00000000E+00  0.00000000E+00  0.00000000E+00
  0.00000000E+00  1.00000000E+00  0.00000000E+00  0.00000000E+00  0.00000000E+00
Virial Ratio                               R      2.002721208556275E+00
SCF Energy                                 R     -5.253816484461304E+02
MP2 Energy                                 R     -5.270464741897285E+02
Total Energy                               R     -5.270464741897285E+02
Post-SCF wavefunction norm                 R      1.779058987756264E+00
RMS Force                                  R      8.758450081839284E-08
RMS Density                                R      3.982881328390759E-09
External E-field                           R   N=          35
  0.00000000E+00  0.00000000E+00  0.00000000E+00  0.00000000E+00  0.00000000E+00
  0.00000000E+00  0.00000000E+00  0.00000000E+00  0.00000000E+00  0.00000000E+00
  0.00000000E+00  0.00000000E+00  0.00000000E+00  0.00000000E+00  0.00000000E+00
  0.00000000E+00  0.00000000E+00  0.00000000E+00  0.00000000E+00  0.00000000E+00
  0.00000000E+00  0.00000000E+00  0.00000000E+00  0.00000000E+00  0.00000000E+00
  0.00000000E+00  0.00000000E+00  0.00000000E+00  0.00000000E+00  0.00000000E+00
  0.00000000E+00  0.00000000E+00  0.00000000E+00  0.00000000E+00  0.00000000E+00
IOpCl                                      I                0
IROHF                                      I                0
Alpha Orbital Energies                     R   N=         196
 -1.56277943E+01 -1.55823065E+01 -1.55763831E+01 -1.55450162E+01 -1.13315423E+01
 -1.13051581E+01 -1.13019535E+01 -1.12913873E+01 -1.12727273E+01 -1.12586176E+01
 -1.12519484E+01 -1.12369115E+01 -1.34108509E+00 -1.30555090E+00 -1.19489399E+00
 -1.17373373E+00 -1.08589102E+00 -1.00423070E+00 -9.66057786E-01 -8.95744945E-01
 -8.90165177E-01 -7.97986380E-01 -7.80407096E-01 -7.23318147E-01 -6.98143011E-01
 -6.82728423E-01 -6.41687099E-01 -6.36844471E-01 -6.04262976E-01 -5.89916898E-01
 -5.82809683E-01 -5.74943185E-01 -5.66118812E-01 -5.52487629E-01 -5.38169460E-01
 -4.75618656E-01 -4.28754215E-01 -4.18577786E-01 -4.06335018E-01 -3.92005521E-01
 -3.70812364E-01 -2.92690724E-01  9.03503409E-02  1.04565607E-01  2.12446683E-01
  2.39285330E-01  2.49221413E-01  2.50759702E-01  2.73604399E-01  2.89679241E-01
  3.07380512E-01  3.09855886E-01  3.16191981E-01  3.24244390E-01  3.38351786E-01
  3.64267971E-01  4.00944597E-01  4.07477213E-01  4.32408150E-01  4.58261269E-01
  4.89770670E-01  5.28994939E-01  5.41276245E-01  5.48551453E-01  5.78386052E-01
  5.92351436E-01  6.71557447E-01  6.97098356E-01  7.11163540E-01  7.27123608E-01
  7.33764550E-01  7.48409012E-01  7.74577333E-01  7.93444744E-01  8.06031705E-01
  8.09266340E-01  8.14078187E-01  8.25091407E-01  8.37516722E-01  8.55034079E-01
  8.64120373E-01  8.80984709E-01  8.88045297E-01  9.07616855E-01  9.18137772E-01
  9.28851591E-01  9.44911156E-01  9.59838639E-01  9.95505289E-01  1.01132207E+00
  1.01977566E+00  1.04284699E+00  1.07163359E+00  1.07361704E+00  1.08948260E+00
  1.10755109E+00  1.11891387E+00  1.12980088E+00  1.13606622E+00  1.14165768E+00
  1.15543227E+00  1.17060868E+00  1.18938120E+00  1.19384194E+00  1.20240035E+00
  1.21875237E+00  1.23495053E+00  1.24946541E+00  1.28415388E+00  1.32146183E+00
  1.36191472E+00  1.36916433E+00  1.41610860E+00  1.43729947E+00  1.46138206E+00
  1.50152280E+00  1.51238009E+00  1.55886681E+00  1.59786887E+00  1.61297779E+00
  1.63361243E+00  1.65283665E+00  1.69468742E+00  1.69829340E+00  1.73137355E+00