
    -----------------------------------------------------------------------
          Psi4: An Open-Source Ab Initio Electronic Structure Package
                               Psi4 1.3.2 release

                         Git: Rev {HEAD} ecbda83 


    R. M. Parrish, L. A. Burns, D. G. A. Smith, A. C. Simmonett,
    A. E. DePrince III, E. G. Hohenstein, U. Bozkaya, A. Yu. Sokolov,
    R. Di Remigio, R. M. Richard, J. F. Gonthier, A. M. James,
    H. R. McAlexander, A. Kumar, M. Saitow, X. Wang, B. P. Pritchard,
    P. Verma, H. F. Schaefer III, K. Patkowski, R. A. King, E. F. Valeev,
    F. A. Evangelista, J. M. Turney, T. D. Crawford, and C. D. Sherrill,
    J. Chem. Theory Comput. 13(7) pp 3185--3197 (2017).
    (doi: 10.1021/acs.jctc.7b00174)


                         Additional Contributions by
    P. Kraus, H. Kruse, M. H. Lechner, M. C. Schieber, R. A. Shaw,
    A. Alenaizan, R. Galvelis, Z. L. Glick, S. Lehtola, and J. P. Misiewicz

    -----------------------------------------------------------------------


    Psi4 started on: Friday, 06 November 2020 06:44AM

    Process ID: 30057
    Host:       node142.bme.utexas.edu
    PSIDATADIR: /home/xy3866/psi4conda/share/psi4
    Memory:     500.0 MiB
    Threads:    8
    
  ==> Input File <==

--------------------------------------------------------------------------
#psi4
#
memory 32 gb

molecule  {
0 1
  O       -0.2992330     0.0680890    -1.4276520
  O        1.1877390     1.7321380     1.3773370
  O        0.9070540     2.3739560    -0.7854760
  O        2.2997900    -2.4217320    -0.0198770
  O       -3.4576290     0.0760600    -0.5562400
  O        2.6367540    -0.2338110    -0.4932570
  O       -2.4353810    -1.6060190     0.5619510
  C       -0.1069590     0.3116290    -0.0442930
  C        0.5596730    -0.9208470     0.5522810
  C       -1.4701600     0.6204770     0.6141540
  C        0.7459700     1.5647750     0.1124900
  C        1.9820483    -1.0482151    -0.0877140
  C       -2.4761190    -0.4337210     0.2256320
  H       -0.0681530    -1.7945710     0.3697710
  H        0.6733550    -0.8157800     1.6370670
  H       -1.8203350     1.5970450     0.2687060
  H       -1.3720190     0.6392280     1.7041070
  H       -0.0402350     0.8946720    -1.8856460
  H        1.6977260     2.5694770     1.3788080
  H        3.2012140    -2.4469230    -0.4041650
  H       -4.0405490    -0.6812350    -0.7753220
units angstrom
no_reorient  #important for SAPT in psi4, default
symmetry c1  #important for SAPT in psi4, default
}

set PROPERTIES_ORIGIN ["COM"]
properties('MP2/aug-cc-pvtz', properties = ['dipole'])
--------------------------------------------------------------------------

  Memory set to  29.802 GiB by Python driver.
    SCF Algorithm Type (re)set to DF.

*** tstart() called on node142.bme.utexas.edu
*** at Fri Nov  6 06:44:07 2020

   => Loading Basis Set <=

    Name: AUG-CC-PVTZ
    Role: ORBITAL
    Keyword: BASIS
    atoms 1-7   entry O          line   327 file /home/xy3866/psi4conda/share/psi4/basis/aug-cc-pvtz.gbs 
    atoms 8-13  entry C          line   235 file /home/xy3866/psi4conda/share/psi4/basis/aug-cc-pvtz.gbs 
    atoms 14-21 entry H          line    36 file /home/xy3866/psi4conda/share/psi4/basis/aug-cc-pvtz.gbs 


         ---------------------------------------------------------
                                   SCF
               by Justin Turney, Rob Parrish, Andy Simmonett
                          and Daniel G. A. Smith
                              RHF Reference
                        8 Threads,  30517 MiB Core
         ---------------------------------------------------------

  ==> Geometry <==

    Molecular point group: c1
    Full point group: C1

    Geometry (in Angstrom), charge = 0, multiplicity = 1:

       Center              X                  Y                   Z               Mass       
    ------------   -----------------  -----------------  -----------------  -----------------
         O           -0.312001194077     0.063351419779    -1.413577302903    15.994914619570
         O            1.174970805923     1.727400419779     1.391411697097    15.994914619570
         O            0.894285805923     2.369218419779    -0.771401302903    15.994914619570
         O            2.287021805923    -2.426469580221    -0.005802302903    15.994914619570
         O           -3.470397194077     0.071322419779    -0.542165302903    15.994914619570
         O            2.623985805923    -0.238548580221    -0.479182302903    15.994914619570
         O           -2.448149194077    -1.610756580221     0.576025697097    15.994914619570
         C           -0.119727194077     0.306891419779    -0.030218302903    12.000000000000
         C            0.546904805923    -0.925584580221     0.566355697097    12.000000000000
         C           -1.482928194077     0.615739419779     0.628228697097    12.000000000000
         C            0.733201805923     1.560037419779     0.126564697097    12.000000000000
         C            1.969280105923    -1.052952680221    -0.073639302903    12.000000000000
         C           -2.488887194077    -0.438458580221     0.239706697097    12.000000000000
         H           -0.080921194077    -1.799308580221     0.383845697097     1.007825032230
         H            0.660586805923    -0.820517580221     1.651141697097     1.007825032230
         H           -1.833103194077     1.592307419779     0.282780697097     1.007825032230
         H           -1.384787194077     0.634490419779     1.718181697097     1.007825032230
         H           -0.053003194077     0.889934419779    -1.871571302903     1.007825032230
         H            1.684957805923     2.564739419779     1.392882697097     1.007825032230
         H            3.188445805923    -2.451660580221    -0.390090302903     1.007825032230
         H           -4.053317194077    -0.685972580221    -0.761247302903     1.007825032230

  Running in c1 symmetry.

  Rotational constants: A =      0.03636  B =      0.02057  C =      0.01579 [cm^-1]
  Rotational constants: A =   1090.10073  B =    616.65595  C =    473.40129 [MHz]
  Nuclear repulsion =  875.224099856084763

  Charge       = 0
  Multiplicity = 1
  Electrons    = 100
  Nalpha       = 50
  Nbeta        = 50

  ==> Algorithm <==

  SCF Algorithm Type is DF.
  DIIS enabled.
  MOM disabled.
  Fractional occupation disabled.
  Guess Type is SAD.
  Energy threshold   = 1.00e-10
  Density threshold  = 1.00e-10
  Integral threshold = 0.00e+00

  ==> Primary Basis <==

  Basis Set: AUG-CC-PVTZ
    Blend: AUG-CC-PVTZ
    Number of shells: 254
    Number of basis function: 782
    Number of Cartesian functions: 915
    Spherical Harmonics?: true
    Max angular momentum: 3

   => Loading Basis Set <=

    Name: (AUG-CC-PVTZ AUX)
    Role: JKFIT
    Keyword: DF_BASIS_SCF
    atoms 1-7   entry O          line   286 file /home/xy3866/psi4conda/share/psi4/basis/aug-cc-pvtz-jkfit.gbs 
    atoms 8-13  entry C          line   162 file /home/xy3866/psi4conda/share/psi4/basis/aug-cc-pvtz-jkfit.gbs 
    atoms 14-21 entry H          line    70 file /home/xy3866/psi4conda/share/psi4/basis/aug-cc-pvtz-jkfit.gbs 

  ==> Pre-Iterations <==

   -------------------------------------------------------
    Irrep   Nso     Nmo     Nalpha   Nbeta   Ndocc  Nsocc
   -------------------------------------------------------
     A        782     782       0       0       0       0
   -------------------------------------------------------
    Total     782     782      50      50      50       0
   -------------------------------------------------------

  ==> Integral Setup <==

  DFHelper Memory: AOs need 7.388 GiB; user supplied 22.352 GiB. Using in-core AOs.

  ==> MemDFJK: Density-Fitted J/K Matrices <==

    J tasked:                   Yes
    K tasked:                   Yes
    wK tasked:                   No
    OpenMP threads:               8
    Memory [MiB]:             22888
    Algorithm:                 Disk
    Schwarz Cutoff:           1E-12
    Mask sparsity (%):       8.0478
    Fitting Condition:        1E-10

   => Auxiliary Basis Set <=

  Basis Set: (AUG-CC-PVTZ AUX)
    Blend: AUG-CC-PVTZ-JKFIT
    Number of shells: 502
    Number of basis function: 1720
    Number of Cartesian functions: 2143
    Spherical Harmonics?: true
    Max angular momentum: 4

  Minimum eigenvalue in the overlap matrix is 1.2158879501E-06.
  Using Symmetric Orthogonalization.

  SCF Guess: Superposition of Atomic Densities via on-the-fly atomic UHF.

  ==> Iterations <==

                           Total Energy        Delta E     RMS |[F,P]|

   @DF-RHF iter SAD:  -754.81090556880315   -7.54811e+02   0.00000e+00 
   @DF-RHF iter   1:  -755.81176436044916   -1.00086e+00   1.28431e-03 DIIS
   @DF-RHF iter   2:  -756.12172780289700   -3.09963e-01   7.81466e-04 DIIS
   @DF-RHF iter   3:  -756.23842981108237   -1.16702e-01   1.23168e-04 DIIS
   @DF-RHF iter   4:  -756.24422941226351   -5.79960e-03   5.86697e-05 DIIS
   @DF-RHF iter   5:  -756.24541373389604   -1.18432e-03   1.44072e-05 DIIS
   @DF-RHF iter   6:  -756.24553877087669   -1.25037e-04   6.73007e-06 DIIS
   @DF-RHF iter   7:  -756.24556792292572   -2.91520e-05   2.33231e-06 DIIS
   @DF-RHF iter   8:  -756.24557274486517   -4.82194e-06   9.28700e-07 DIIS
   @DF-RHF iter   9:  -756.24557339043713   -6.45572e-07   2.97376e-07 DIIS
   @DF-RHF iter  10:  -756.24557345899905   -6.85619e-08   1.00244e-07 DIIS
   @DF-RHF iter  11:  -756.24557346425183   -5.25279e-09   4.23737e-08 DIIS
   @DF-RHF iter  12:  -756.24557346511358   -8.61746e-10   1.38239e-08 DIIS
   @DF-RHF iter  13:  -756.24557346523773   -1.24146e-10   4.19085e-09 DIIS
   @DF-RHF iter  14:  -756.24557346525262   -1.48930e-11   1.87616e-09 DIIS
   @DF-RHF iter  15:  -756.24557346525637   -3.75167e-12   9.20301e-10 DIIS
   @DF-RHF iter  16:  -756.24557346525773   -1.36424e-12   3.32039e-10 DIIS
   @DF-RHF iter  17:  -756.24557346525444    3.29692e-12   1.45035e-10 DIIS
   @DF-RHF iter  18:  -756.24557346525512   -6.82121e-13   5.90810e-11 DIIS
  Energy and wave function converged.


  ==> Post-Iterations <==

    Orbital Energies [Eh]
    ---------------------

    Doubly Occupied:                                                      

       1A    -20.641385     2A    -20.625921     3A    -20.606747  
       4A    -20.579526     5A    -20.578805     6A    -20.574842  
       7A    -20.561325     8A    -11.413463     9A    -11.405067  
      10A    -11.393065    11A    -11.338255    12A    -11.272026  
      13A    -11.258642    14A     -1.505950    15A     -1.487390  
      16A     -1.471351    17A     -1.400227    18A     -1.383784  
      19A     -1.373776    20A     -1.367414    21A     -1.113126  
      22A     -1.028417    23A     -0.946209    24A     -0.847062  
      25A     -0.820176    26A     -0.790549    27A     -0.760182  
      28A     -0.733326    29A     -0.724096    30A     -0.717833  
      31A     -0.711303    32A     -0.691046    33A     -0.671993  
      34A     -0.658138    35A     -0.645911    36A     -0.638796  
      37A     -0.621165    38A     -0.611970    39A     -0.594612  
      40A     -0.587473    41A     -0.559846    42A     -0.558302  
      43A     -0.545287    44A     -0.516361    45A     -0.506880  
      46A     -0.494597    47A     -0.487122    48A     -0.474198  
      49A     -0.460732    50A     -0.448862  

    Virtual:                                                              

      51A      0.023407    52A      0.031917    53A      0.034066  
      54A      0.041451    55A      0.046245    56A      0.054675  
      57A      0.058824    58A      0.064072    59A      0.081108  
      60A      0.087605    61A      0.092749    62A      0.101936  
      63A      0.105771    64A      0.109242    65A      0.113163  
      66A      0.115805    67A      0.120191    68A      0.123447  
      69A      0.127963    70A      0.133813    71A      0.134430  
      72A      0.138994    73A      0.143308    74A      0.147427  
      75A      0.156081    76A      0.159224    77A      0.160877  
      78A      0.167984    79A      0.170815    80A      0.178266  
      81A      0.184226    82A      0.189475    83A      0.192425  
      84A      0.197257    85A      0.206372    86A      0.214051  
      87A      0.221335    88A      0.224577    89A      0.231331  
      90A      0.232600    91A      0.236645    92A      0.240912  
      93A      0.246193    94A      0.251898    95A      0.254773  
      96A      0.258013    97A      0.259874    98A      0.267494  
      99A      0.271084   100A      0.277820   101A      0.281304  
     102A      0.284931   103A      0.286929   104A      0.288973  
     105A      0.293349   106A      0.300124   107A      0.306082  
     108A      0.309772   109A      0.314620   110A      0.320549  
     111A      0.327887   112A      0.332851   113A      0.336748  
     114A      0.342395   115A      0.352457   116A      0.357726  
     117A      0.362209   118A      0.366851   119A      0.368780  
     120A      0.370924   121A      0.376157   122A      0.385114  
     123A      0.389605   124A      0.393898   125A      0.399451  
     126A      0.405134   127A      0.407942   128A      0.413548  
     129A      0.418422   130A      0.419260   131A      0.429353  
     132A      0.433411   133A      0.435999   134A      0.439943  
     135A      0.446806   136A      0.450996   137A      0.460895  
     138A      0.461880   139A      0.468041   140A      0.472913  
     141A      0.475923   142A      0.484137   143A      0.486742  
     144A      0.489091   145A      0.491729   146A      0.496806  
     147A      0.502358   148A      0.511410   149A      0.512755  
     150A      0.518358   151A      0.522844   152A      0.527190  
     153A      0.532535   154A      0.541645   155A      0.546836  
     156A      0.555105   157A      0.557020   158A      0.562357  
     159A      0.575781   160A      0.576707   161A      0.581186  
     162A      0.586902   163A      0.591861   164A      0.596493  
     165A      0.601947   166A      0.613297   167A      0.614569  
     168A      0.622176   169A      0.632242   170A      0.638904  
     171A      0.641742   172A      0.645728   173A      0.651062  
     174A      0.655957   175A      0.660929   176A      0.667022  
     177A      0.680688   178A      0.685769   179A      0.692478  
     180A      0.695770   181A      0.700284   182A      0.706937  
     183A      0.712201   184A      0.734812   185A      0.740741  
     186A      0.743126   187A      0.753126   188A      0.759713  
     189A      0.771286   190A      0.772904   191A      0.783785  
     192A      0.788432   193A      0.794390   194A      0.797994  
     195A      0.804457   196A      0.810813   197A      0.818671  
     198A      0.821642   199A      0.832216   200A      0.837676  
     201A      0.848255   202A      0.849864   203A      0.862972  
     204A      0.866844   205A      0.876011   206A      0.877694  
     207A      0.880554   208A      0.882180   209A      0.891491  
     210A      0.892306   211A      0.899495   212A      0.903260  
     213A      0.908744   214A      0.910690   215A      0.921906  
     216A      0.929446   217A      0.937989   218A      0.938491  
     219A      0.941597   220A      0.945874   221A      0.947368  
     222A      0.956841   223A      0.962944   224A      0.963301  
     225A      0.976443   226A      0.977051   227A      0.983885  
     228A      0.990565   229A      0.991798   230A      1.001437  
     231A      1.008758   232A      1.013827   233A      1.018861  
     234A      1.025479   235A      1.027314   236A      1.037286  
     237A      1.040898   238A      1.045445   239A      1.055578  
     240A      1.059010   241A      1.061275   242A      1.073722  
     243A      1.082915   244A      1.083344   245A      1.086957  
     246A      1.093016   247A      1.102139   248A      1.107429  
     249A      1.109138   250A      1.117297   251A      1.122735  
     252A      1.128382   253A      1.134830   254A      1.142374  
     255A      1.148692   256A      1.155207   257A      1.162941  
     258A      1.164977   259A      1.166192   260A      1.185362  
     261A      1.189873   262A      1.208269   263A      1.214758  
     264A      1.216636   265A      1.218110   266A      1.223896  
     267A      1.227875   268A      1.238626   269A      1.254133  
     270A      1.255603   271A      1.261080   272A      1.264169  
     273A      1.271165   274A      1.277198   275A      1.287543  
     276A      1.303839   277A      1.309502   278A      1.314720  
     279A      1.325747   280A      1.328905   281A      1.340248  
     282A      1.346518   283A      1.353208   284A      1.362030  
     285A      1.370358   286A      1.377740   287A      1.384917  
     288A      1.389499   289A      1.393787   290A      1.409059  
     291A      1.415106   292A      1.422155   293A      1.431465  
     294A      1.434340   295A      1.446230   296A      1.453217  
     297A      1.458704   298A      1.463162   299A      1.464209  
     300A      1.477617   301A      1.481079   302A      1.483367  
     303A      1.487807   304A      1.505135   305A      1.512765  
     306A      1.528256   307A      1.530575   308A      1.534893  
     309A      1.540223   310A      1.548666   311A      1.568957  
     312A      1.573051   313A      1.577040   314A      1.590413  
     315A      1.594166   316A      1.599241   317A      1.601926  
     318A      1.607973   319A      1.618669   320A      1.634866  
     321A      1.639613   322A      1.639780   323A      1.648919  
     324A      1.662219   325A      1.671840   326A      1.677323  
     327A      1.679487   328A      1.686323   329A      1.689718  
     330A      1.692240   331A      1.705092   332A      1.708181  
     333A      1.718109   334A      1.729520   335A      1.737204  
     336A      1.751412   337A      1.756747   338A      1.768622  
     339A      1.775955   340A      1.785223   341A      1.789303  
     342A      1.799496   343A      1.803717   344A      1.808347  
     345A      1.817928   346A      1.834134   347A      1.841804  
     348A      1.845699   349A      1.854141   350A      1.861386  
     351A      1.870330   352A      1.874709   353A      1.888423  
     354A      1.892524   355A      1.896465   356A      1.902943  
     357A      1.917444   358A      1.921244   359A      1.930065  
     360A      1.934785   361A      1.944086   362A      1.949205  
     363A      1.956577   364A      1.965519   365A      1.974948  
     366A      1.983658   367A      1.992646   368A      1.999530  
     369A      2.006204   370A      2.015315   371A      2.032430  
     372A      2.051246   373A      2.055241   374A      2.063630  
     375A      2.072848   376A      2.084941   377A      2.094995  
     378A      2.099581   379A      2.104198   380A      2.118304  
     381A      2.146650   382A      2.155071   383A      2.159360  
     384A      2.169421   385A      2.186341   386A      2.206259  
     387A      2.211687   388A      2.230822   389A      2.237901  
     390A      2.259007   391A      2.271831   392A      2.279250  
     393A      2.292455   394A      2.301900   395A      2.327114  
     396A      2.335009   397A      2.341637   398A      2.353904  
     399A      2.354250   400A      2.373012   401A      2.378626  
     402A      2.389605   403A      2.401434   404A      2.406779  
     405A      2.418696   406A      2.430005   407A      2.440910  
     408A      2.460633   409A      2.472144   410A      2.482156  
     411A      2.484964   412A      2.495085   413A      2.509426  
     414A      2.512824   415A      2.515280   416A      2.527993  
     417A      2.530896   418A      2.545429   419A      2.558935  
     420A      2.560446   421A      2.569211   422A      2.577766  
     423A      2.584341   424A      2.593233   425A      2.615965  
     426A      2.620858   427A      2.625539   428A      2.633901  
     429A      2.644028   430A      2.659329   431A      2.664770  
     432A      2.678401   433A      2.692379   434A      2.695636  
     435A      2.702605   436A      2.708065   437A      2.715339  
     438A      2.735859   439A      2.741282   440A      2.746974  
     441A      2.761033   442A      2.775956   443A      2.783057  
     444A      2.790693   445A      2.803183   446A      2.827537  
     447A      2.833433   448A      2.838995   449A      2.854743  
     450A      2.858915   451A      2.872889   452A      2.889014  
     453A      2.892769   454A      2.900402   455A      2.910587  
     456A      2.928826   457A      2.948145   458A      2.951684  
     459A      2.955585   460A      2.958180   461A      2.969641  
     462A      2.989380   463A      3.001010   464A      3.009968  
     465A      3.021120   466A      3.023274   467A      3.034480  
     468A      3.043505   469A      3.056249   470A      3.066480  
     471A      3.079672   472A      3.089002   473A      3.096622  
     474A      3.107130   475A      3.117791   476A      3.128521  
     477A      3.145806   478A      3.147861   479A      3.157442  
     480A      3.182640   481A      3.200376   482A      3.213922  
     483A      3.222144   484A      3.225259   485A      3.242144  
     486A      3.256314   487A      3.270177   488A      3.278632  
     489A      3.296469   490A      3.302165   491A      3.320166  
     492A      3.340676   493A      3.361063   494A      3.391696  
     495A      3.406635   496A      3.407420   497A      3.416129  
     498A      3.436226   499A      3.458087   500A      3.477713  
     501A      3.505169   502A      3.508749   503A      3.529807  
     504A      3.555304   505A      3.570218   506A      3.578828  
     507A      3.593770   508A      3.611042   509A      3.632578  
     510A      3.644066   511A      3.653768   512A      3.668551  
     513A      3.684847   514A      3.705570   515A      3.711985  
     516A      3.723672   517A      3.738658   518A      3.754422  
     519A      3.761352   520A      3.789663   521A      3.792393  
     522A      3.800952   523A      3.810734   524A      3.816960  
     525A      3.829861   526A      3.833869   527A      3.860255  
     528A      3.871568   529A      3.878662   530A      3.906086  
     531A      3.920885   532A      3.929570   533A      3.947625  
     534A      3.956760   535A      3.964429   536A      3.971607  
     537A      3.996431   538A      4.006337   539A      4.019672  
     540A      4.030347   541A      4.042917   542A      4.058366  
     543A      4.059958   544A      4.065420   545A      4.086981  
     546A      4.102096   547A      4.107128   548A      4.128008  
     549A      4.143987   550A      4.148049   551A      4.168837  
     552A      4.182193   553A      4.192200   554A      4.213481  
     555A      4.222578   556A      4.240506   557A      4.258939  
     558A      4.270491   559A      4.280528   560A      4.291496  
     561A      4.306121   562A      4.316751   563A      4.323104  
     564A      4.326233   565A      4.339896   566A      4.358177  
     567A      4.365078   568A      4.373204   569A      4.378283  
     570A      4.396321   571A      4.408198   572A      4.415686  
     573A      4.431706   574A      4.435682   575A      4.444223  
     576A      4.456981   577A      4.468941   578A      4.474156  
     579A      4.485534   580A      4.510044   581A      4.519368  
     582A      4.527414   583A      4.547617   584A      4.552834  
     585A      4.578394   586A      4.584428   587A      4.598305  
     588A      4.606124   589A      4.611493   590A      4.636677  
     591A      4.648811   592A      4.683411   593A      4.685436  
     594A      4.694869   595A      4.699635   596A      4.732375  
     597A      4.744573   598A      4.756137   599A      4.768978  
     600A      4.787324   601A      4.803992   602A      4.816262  
     603A      4.828001   604A      4.836633   605A      4.856497  
     606A      4.883344   607A      4.895427   608A      4.905045  
     609A      4.927570   610A      4.927631   611A      4.956273  
     612A      4.960356   613A      4.980570   614A      4.996825  
     615A      5.015967   616A      5.025114   617A      5.044450  
     618A      5.067460   619A      5.075224   620A      5.085691  
     621A      5.093915   622A      5.104904   623A      5.122936  
     624A      5.157457   625A      5.162907   626A      5.214808  
     627A      5.232543   628A      5.263547   629A      5.272740  
     630A      5.289534   631A      5.304286   632A      5.316554  
     633A      5.331484   634A      5.340249   635A      5.350465  
     636A      5.372957   637A      5.386327   638A      5.406462  
     639A      5.428066   640A      5.435355   641A      5.458634  
     642A      5.471397   643A      5.472955   644A      5.482655  
     645A      5.495751   646A      5.513009   647A      5.517409  
     648A      5.542392   649A      5.573915   650A      5.587691  
     651A      5.606781   652A      5.619224   653A      5.640977  
     654A      5.659431   655A      5.685072   656A      5.697784  
     657A      5.733024   658A      5.775237   659A      5.779235  
     660A      5.803858   661A      5.863598   662A      5.874666  
     663A      5.889477   664A      5.907859   665A      5.971624  
     666A      6.029622   667A      6.068217   668A      6.091349  
     669A      6.106254   670A      6.169446   671A      6.180472  
     672A      6.244888   673A      6.275570   674A      6.365042  
     675A      6.408958   676A      6.429242   677A      6.468745  
     678A      6.582798   679A      6.593491   680A      6.638809  
     681A      6.654683   682A      6.664229   683A      6.726591  
     684A      6.771463   685A      6.781083   686A      6.817468  
     687A      6.838099   688A      6.854721   689A      6.859557  
     690A      6.871876   691A      6.878746   692A      6.898624  
     693A      6.908060   694A      6.911649   695A      6.922447  
     696A      6.929839   697A      6.934032   698A      6.944485  
     699A      6.961893   700A      6.963182   701A      7.024785  
     702A      7.036197   703A      7.047834   704A      7.077819  
     705A      7.106317   706A      7.112180   707A      7.126185  
     708A      7.162194   709A      7.202140   710A      7.210706  
     711A      7.244405   712A      7.256379   713A      7.260129  
     714A      7.280934   715A      7.293431   716A      7.299611  
     717A      7.330419   718A      7.351940   719A      7.363759  
     720A      7.385184   721A      7.397527   722A      7.404657  
     723A      7.419481   724A      7.421385   725A      7.428074  
     726A      7.443716   727A      7.455095   728A      7.469716  
     729A      7.474748   730A      7.489860   731A      7.497790  
     732A      7.538557   733A      7.558801   734A      7.588708  
     735A      7.604097   736A      7.615905   737A      7.631460  
     738A      7.641614   739A      7.654282   740A      7.669251  
     741A      7.676225   742A      7.688317   743A      7.706288  
     744A      7.721259   745A      7.740676   746A      7.751249  
     747A      7.772505   748A      7.803069   749A      7.825552  
     750A      7.910462   751A      7.921221   752A      7.941053  
     753A      7.964702   754A      7.975849   755A      8.006967  
     756A      8.047500   757A      8.100141   758A      8.104948  
     759A      8.115463   760A      8.172948   761A      8.212021  
     762A      8.288911   763A      8.299455   764A      8.335634  
     765A      8.426015   766A      8.556967   767A      8.569813  
     768A      8.592218   769A      8.770658   770A     15.478040  
     771A     15.664291   772A     15.971650   773A     16.280179  
     774A     16.618759   775A     17.067090   776A     17.585837  
     777A     17.826682   778A     18.234627   779A     18.501369  
     780A     20.057015   781A     20.425760   782A     20.611254  

    Final Occupation by Irrep:
              A 
    DOCC [    50 ]

  @DF-RHF Final Energy:  -756.24557346525512

   => Energetics <=

    Nuclear Repulsion Energy =            875.2240998560847629
    One-Electron Energy =               -2778.5302857202618725
    Two-Electron Energy =                1147.0606123989221032
    Total Energy =                       -756.2455734652551200

Computation Completed

*** tstop() called on node142.bme.utexas.edu at Fri Nov  6 06:48:14 2020
Module time:
	user time   =    1122.10 seconds =      18.70 minutes
	system time =     102.20 seconds =       1.70 minutes
	total time  =        247 seconds =       4.12 minutes
Total time:
	user time   =    1122.10 seconds =      18.70 minutes
	system time =     102.20 seconds =       1.70 minutes
	total time  =        247 seconds =       4.12 minutes
   => Loading Basis Set <=

    Name: (AUG-CC-PVTZ AUX)
    Role: RIFIT
    Keyword: DF_BASIS_MP2
    atoms 1-7   entry O          line   264 file /home/xy3866/psi4conda/share/psi4/basis/aug-cc-pvtz-ri.gbs 
    atoms 8-13  entry C          line   148 file /home/xy3866/psi4conda/share/psi4/basis/aug-cc-pvtz-ri.gbs 
    atoms 14-21 entry H          line    30 file /home/xy3866/psi4conda/share/psi4/basis/aug-cc-pvtz-ri.gbs 


*** tstart() called on node142.bme.utexas.edu
*** at Fri Nov  6 06:48:14 2020


  //>>>>>>>>>>>>>>>>>>>>>>>>>>>>>>>>>>>//
  //               DFMP2               //
  //<<<<<<<<<<<<<<<<<<<<<<<<<<<<<<<<<<<//

	 --------------------------------------------------------
	                          DF-MP2                         
	      2nd-Order Density-Fitted Moller-Plesset Theory     
	              RMP2 Wavefunction,   8 Threads             
	                                                         
	        Rob Parrish, Justin Turney, Andy Simmonett,      
	           Ed Hohenstein, and C. David Sherrill          
	 --------------------------------------------------------

   => Auxiliary Basis Set <=

  Basis Set: (AUG-CC-PVTZ AUX)
    Blend: AUG-CC-PVTZ-RI
    Number of shells: 476
    Number of basis function: 1746
    Number of Cartesian functions: 2208
    Spherical Harmonics?: true
    Max angular momentum: 4

	 --------------------------------------------------------
	                 NBF =   782, NAUX =  1746
	 --------------------------------------------------------
	   CLASS    FOCC     OCC    AOCC    AVIR     VIR    FVIR
	   PAIRS       0      50      50     732     732       0
	 --------------------------------------------------------

  DFHelper Memory: AOs need 7.388 GiB; user supplied 22.352 GiB. Using in-core AOs.


Traceback (most recent call last):
  File "/home/xy3866/psi4conda/bin/psi4", line 287, in <module>
    exec(content)
  File "<string>", line 50, in <module>
  File "/home/xy3866/psi4conda/lib//python3.7/site-packages/psi4/driver/driver.py", line 816, in properties
    return driver_cbs._cbs_gufunc(properties, lowername, ptype='properties', **kwargs)
  File "/home/xy3866/psi4conda/lib//python3.7/site-packages/psi4/driver/driver_cbs.py", line 1949, in _cbs_gufunc
    ptype_value, wfn = func(method_name, return_wfn=True, molecule=molecule, **kwargs)
  File "/home/xy3866/psi4conda/lib//python3.7/site-packages/psi4/driver/driver.py", line 826, in properties
    wfn = procedures['properties'][lowername](lowername, **kwargs)
  File "/home/xy3866/psi4conda/lib//python3.7/site-packages/psi4/driver/procrouting/proc.py", line 194, in select_mp2_property
    return func(name, **kwargs)
  File "/home/xy3866/psi4conda/lib//python3.7/site-packages/psi4/driver/procrouting/proc.py", line 2701, in run_dfmp2_property
    grad = dfmp2_wfn.compute_gradient()

RuntimeError: 
Fatal Error: DFHelper:put_tensor_AO: write error
Error occurred in file: /scratch/psilocaluser/conda-builds/psi4-multiout_1557940846948/work/psi4/src/psi4/lib3index/dfhelper.cc on line: 820
The most recent 5 function calls were:

psi::DFHelper::put_tensor_AO(std::__cxx11::basic_string<char, std::char_traits<char>, std::allocator<char> >, double*, unsigned long, unsigned long, std::__cxx11::basic_string<char, std::char_traits<char>, std::allocator<char> >)
psi::DFHelper::prepare_AO()
psi::DFHelper::initialize()
psi::MemDFJK::preiterations()



Printing out the relevant lines from the Psithon --> Python processed input file:
    no_reorient 
    symmetry c1 
    """)
    core.IO.set_default_namespace("")
    core.set_global_option("PROPERTIES_ORIGIN", ["COM"])
--> properties('MP2/aug-cc-pvtz', properties = ['dipole'])

    Psi4 stopped on: Friday, 06 November 2020 06:57AM
    Psi4 wall time for execution: 0:13:13.94

*** Psi4 encountered an error. Buy a developer more coffee!
*** Resources and help at github.com/psi4/psi4.
