12847744                                                                
Freq      RMP2-FC                                                     6-31G(d)            
Number of atoms                            I               10
Info1-9                                    I   N=           9
          22          20        1002           0           0         100
           6           2           1
Charge                                     I                0
Multiplicity                               I                1
Number of electrons                        I               52
Number of alpha electrons                  I               26
Number of beta electrons                   I               26
Number of basis functions                  I              102
Number of independent functions            I              102
Number of point charges in /Mol/           I                0
Number of translation vectors              I                0
Atomic numbers                             I   N=          10
          17           7           6           6           6           6
           1           1           1           1
Nuclear charges                            R   N=          10
  1.70000000E+01  7.00000000E+00  6.00000000E+00  6.00000000E+00  6.00000000E+00
  6.00000000E+00  1.00000000E+00  1.00000000E+00  1.00000000E+00  1.00000000E+00
Current cartesian coordinates              R   N=          30
  3.80418607E+00 -9.31158785E-03 -9.71511854E-06 -3.42766110E+00 -1.24248390E+00
 -3.41531385E-05 -9.80282441E-01 -2.10225209E+00  2.75617716E-05  5.41850046E-01
  2.14094162E-02  8.61134232E-06 -1.00854208E+00  2.19790935E+00  3.04362544E-05
 -3.48039436E+00  1.34871815E+00 -1.34430836E-05 -5.12362224E-01 -4.08903949E+00
  2.17852763E-05 -4.97172159E+00 -2.36837410E+00  7.75176559E-05 -3.83140209E-01
  4.14290223E+00  3.47802380E-05 -5.24609837E+00  2.37548669E+00 -4.88518943E-05
Force Field                                I                0
Int Atom Types                             I   N=          10
           0           0           0           0           0           0
           0           0           0           0
MM charges                                 R   N=          10
  0.00000000E+00  0.00000000E+00  0.00000000E+00  0.00000000E+00  0.00000000E+00
  0.00000000E+00  0.00000000E+00  0.00000000E+00  0.00000000E+00  0.00000000E+00
Integer atomic weights                     I   N=          10
          35          14          12          12          12          12
           1           1           1           1
Real atomic weights                        R   N=          10
  3.49688527E+01  1.40030740E+01  1.20000000E+01  1.20000000E+01  1.20000000E+01
  1.20000000E+01  1.00782504E+00  1.00782504E+00  1.00782504E+00  1.00782504E+00
Atom fragment info                         I   N=          10
           0           0           0           0           0           0
           0           0           0           0
Atom residue num                           I   N=          10
           0           0           0           0           0           0
           0           0           0           0
Nuclear spins                              I   N=          10
           3           2           0           0           0           0
           1           1           1           1
Nuclear ZEff                               R   N=          10
 -1.42400000E+01 -4.55000000E+00 -3.60000000E+00 -3.60000000E+00 -3.60000000E+00
 -3.60000000E+00 -1.00000000E+00 -1.00000000E+00 -1.00000000E+00 -1.00000000E+00
Nuclear QMom                               R   N=          10
 -8.16500000E+00  2.04400000E+00  0.00000000E+00  0.00000000E+00  0.00000000E+00
  0.00000000E+00  0.00000000E+00  0.00000000E+00  0.00000000E+00  0.00000000E+00
Nuclear GFac                               R   N=          10
  8.21874000E-01  4.03761000E-01  0.00000000E+00  0.00000000E+00  0.00000000E+00
  0.00000000E+00  2.79284600E+00  2.79284600E+00  2.79284600E+00  2.79284600E+00
MicOpt                                     I   N=          10
          -1          -1          -1          -1          -1          -1
          -1          -1          -1          -1
Number of contracted shells                I               33
Number of primitive shells                 I               88
Pure/Cartesian d shells                    I                1
Pure/Cartesian f shells                    I                0
Highest angular momentum                   I                2
Largest degree of contraction              I                6
Shell types                                I   N=          33
           0          -1          -1          -1           2           0
          -1          -1           2           0          -1          -1
           2           0          -1          -1           2           0
          -1          -1           2           0          -1          -1
           2           0           0           0           0           0
           0           0           0
Number of primitives per shell             I   N=          33
           6           6           3           1           1           6
           3           1           1           6           3           1
           1           6           3           1           1           6
           3           1           1           6           3           1
           1           3           1           3           1           3
           1           3           1
Shell to atom map                          I   N=          33
           1           1           1           1           1           2
           2           2           2           3           3           3
           3           4           4           4           4           5
           5           5           5           6           6           6
           6           7           7           8           8           9
           9          10          10
Primitive exponents                        R   N=          88
  2.51801000E+04  3.78035000E+03  8.60474000E+02  2.42145000E+02  7.73349000E+01
  2.62470000E+01  4.91765000E+02  1.16984000E+02  3.74153000E+01  1.37834000E+01
  5.45215000E+00  2.22588000E+00  3.18649000E+00  1.14427000E+00  4.20377000E-01
  1.42657000E-01  7.50000000E-01  4.17351146E+03  6.27457911E+02  1.42902093E+02
  4.02343293E+01  1.28202129E+01  4.39043701E+00  1.16263619E+01  2.71627981E+00
  7.72218397E-01  2.12031498E-01  8.00000000E-01  3.04752488E+03  4.57369518E+02
  1.03948685E+02  2.92101553E+01  9.28666296E+00  3.16392696E+00  7.86827235E+00
  1.88128854E+00  5.44249258E-01  1.68714478E-01  8.00000000E-01  3.04752488E+03
  4.57369518E+02  1.03948685E+02  2.92101553E+01  9.28666296E+00  3.16392696E+00
  7.86827235E+00  1.88128854E+00  5.44249258E-01  1.68714478E-01  8.00000000E-01
  3.04752488E+03  4.57369518E+02  1.03948685E+02  2.92101553E+01  9.28666296E+00
  3.16392696E+00  7.86827235E+00  1.88128854E+00  5.44249258E-01  1.68714478E-01
  8.00000000E-01  3.04752488E+03  4.57369518E+02  1.03948685E+02  2.92101553E+01
  9.28666296E+00  3.16392696E+00  7.86827235E+00  1.88128854E+00  5.44249258E-01
  1.68714478E-01  8.00000000E-01  1.87311370E+01  2.82539436E+00  6.40121692E-01
  1.61277759E-01  1.87311370E+01  2.82539436E+00  6.40121692E-01  1.61277759E-01
  1.87311370E+01  2.82539436E+00  6.40121692E-01  1.61277759E-01  1.87311370E+01
  2.82539436E+00  6.40121692E-01  1.61277759E-01
Contraction coefficients                   R   N=          88
  1.83295985E-03  1.40341988E-02  6.90973943E-02  2.37451980E-01  4.83033960E-01
  3.39855972E-01 -2.29739142E-03 -3.07137189E-02 -1.12528069E-01  4.50163278E-02
  5.89353363E-01  4.65206287E-01 -2.51828028E-01  6.15892514E-02  1.06018433E+00
  1.00000000E+00  1.00000000E+00  1.83477216E-03  1.39946270E-02  6.85865518E-02
  2.32240873E-01  4.69069948E-01  3.60455199E-01 -1.14961182E-01 -1.69117479E-01
  1.14585195E+00  1.00000000E+00  1.00000000E+00  1.83473713E-03  1.40373228E-02
  6.88426223E-02  2.32184443E-01  4.67941348E-01  3.62311985E-01 -1.19332420E-01
 -1.60854152E-01  1.14345644E+00  1.00000000E+00  1.00000000E+00  1.83473713E-03
  1.40373228E-02  6.88426223E-02  2.32184443E-01  4.67941348E-01  3.62311985E-01
 -1.19332420E-01 -1.60854152E-01  1.14345644E+00  1.00000000E+00  1.00000000E+00
  1.83473713E-03  1.40373228E-02  6.88426223E-02  2.32184443E-01  4.67941348E-01
  3.62311985E-01 -1.19332420E-01 -1.60854152E-01  1.14345644E+00  1.00000000E+00
  1.00000000E+00  1.83473713E-03  1.40373228E-02  6.88426223E-02  2.32184443E-01
  4.67941348E-01  3.62311985E-01 -1.19332420E-01 -1.60854152E-01  1.14345644E+00
  1.00000000E+00  1.00000000E+00  3.34946043E-02  2.34726953E-01  8.13757326E-01
  1.00000000E+00  3.34946043E-02  2.34726953E-01  8.13757326E-01  1.00000000E+00
  3.34946043E-02  2.34726953E-01  8.13757326E-01  1.00000000E+00  3.34946043E-02
  2.34726953E-01  8.13757326E-01  1.00000000E+00
P(S=P) Contraction coefficients            R   N=          88
  0.00000000E+00  0.00000000E+00  0.00000000E+00  0.00000000E+00  0.00000000E+00
  0.00000000E+00  3.98940088E-03  3.03177067E-02  1.29880029E-01  3.27951072E-01
  4.53527100E-01  2.52154056E-01 -1.42993147E-02  3.23572333E-01  7.43507765E-01
  1.00000000E+00  0.00000000E+00  0.00000000E+00  0.00000000E+00  0.00000000E+00
  0.00000000E+00  0.00000000E+00  0.00000000E+00  6.75797439E-02  3.23907296E-01
  7.40895140E-01  1.00000000E+00  0.00000000E+00  0.00000000E+00  0.00000000E+00
  0.00000000E+00  0.00000000E+00  0.00000000E+00  0.00000000E+00  6.89990666E-02
  3.16423961E-01  7.44308291E-01  1.00000000E+00  0.00000000E+00  0.00000000E+00
  0.00000000E+00  0.00000000E+00  0.00000000E+00  0.00000000E+00  0.00000000E+00
  6.89990666E-02  3.16423961E-01  7.44308291E-01  1.00000000E+00  0.00000000E+00
  0.00000000E+00  0.00000000E+00  0.00000000E+00  0.00000000E+00  0.00000000E+00
  0.00000000E+00  6.89990666E-02  3.16423961E-01  7.44308291E-01  1.00000000E+00
  0.00000000E+00  0.00000000E+00  0.00000000E+00  0.00000000E+00  0.00000000E+00
  0.00000000E+00  0.00000000E+00  6.89990666E-02  3.16423961E-01  7.44308291E-01
  1.00000000E+00  0.00000000E+00  0.00000000E+00  0.00000000E+00  0.00000000E+00
  0.00000000E+00  0.00000000E+00  0.00000000E+00  0.00000000E+00  0.00000000E+00
  0.00000000E+00  0.00000000E+00  0.00000000E+00  0.00000000E+00  0.00000000E+00
  0.00000000E+00  0.00000000E+00  0.00000000E+00
Coordinates of each shell                  R   N=          99
  3.80418607E+00 -9.31158785E-03 -9.71511854E-06  3.80418607E+00 -9.31158785E-03
 -9.71511854E-06  3.80418607E+00 -9.31158785E-03 -9.71511854E-06  3.80418607E+00
 -9.31158785E-03 -9.71511854E-06  3.80418607E+00 -9.31158785E-03 -9.71511854E-06
 -3.42766110E+00 -1.24248390E+00 -3.41531385E-05 -3.42766110E+00 -1.24248390E+00
 -3.41531385E-05 -3.42766110E+00 -1.24248390E+00 -3.41531385E-05 -3.42766110E+00
 -1.24248390E+00 -3.41531385E-05 -9.80282441E-01 -2.10225209E+00  2.75617716E-05
 -9.80282441E-01 -2.10225209E+00  2.75617716E-05 -9.80282441E-01 -2.10225209E+00
  2.75617716E-05 -9.80282441E-01 -2.10225209E+00  2.75617716E-05  5.41850046E-01
  2.14094162E-02  8.61134232E-06  5.41850046E-01  2.14094162E-02  8.61134232E-06
  5.41850046E-01  2.14094162E-02  8.61134232E-06  5.41850046E-01  2.14094162E-02
  8.61134232E-06 -1.00854208E+00  2.19790935E+00  3.04362544E-05 -1.00854208E+00
  2.19790935E+00  3.04362544E-05 -1.00854208E+00  2.19790935E+00  3.04362544E-05
 -1.00854208E+00  2.19790935E+00  3.04362544E-05 -3.48039436E+00  1.34871815E+00
 -1.34430836E-05 -3.48039436E+00  1.34871815E+00 -1.34430836E-05 -3.48039436E+00
  1.34871815E+00 -1.34430836E-05 -3.48039436E+00  1.34871815E+00 -1.34430836E-05
 -5.12362224E-01 -4.08903949E+00  2.17852763E-05 -5.12362224E-01 -4.08903949E+00
  2.17852763E-05 -4.97172159E+00 -2.36837410E+00  7.75176559E-05 -4.97172159E+00
 -2.36837410E+00  7.75176559E-05 -3.83140209E-01  4.14290223E+00  3.47802380E-05
 -3.83140209E-01  4.14290223E+00  3.47802380E-05 -5.24609837E+00  2.37548669E+00
 -4.88518943E-05 -5.24609837E+00  2.37548669E+00 -4.88518943E-05
Constraint Structure                       R   N=          30
  3.80418607E+00 -9.31158785E-03 -9.71511854E-06 -3.42766110E+00 -1.24248390E+00
 -3.41531385E-05 -9.80282441E-01 -2.10225209E+00  2.75617716E-05  5.41850046E-01
  2.14094162E-02  8.61134232E-06 -1.00854208E+00  2.19790935E+00  3.04362544E-05
 -3.48039436E+00  1.34871815E+00 -1.34430836E-05 -5.12362224E-01 -4.08903949E+00
  2.17852763E-05 -4.97172159E+00 -2.36837410E+00  7.75176559E-05 -3.83140209E-01
  4.14290223E+00  3.47802380E-05 -5.24609837E+00  2.37548669E+00 -4.88518943E-05
Num ILSW                                   I              100
ILSW                                       I   N=         100
           0           1           0           1           2           0
           0           0           0           0           0          -1
           0           0           0           0           0           0
           0           0           0           0           1           0
           1           0           0           0           0           0
           0           0      100000           0          -1           0
           0           0           0           0           0           0
           0           0           0           1           1           0
           0           0           1           0           0           0
           0           0           4          40           0           0
           0           0           0           0           0           0
           0           0           0           0           0           0
           0           0           0           0           0           0
           0           0           0           0           0           0
           0           0           0           0           0           0
           0           0           0           0           0           0
           0           0           0           0
Num RLSW                                   I               40
RLSW                                       R   N=          40
  1.00000000E+00  1.00000000E+00  1.00000000E+00  1.00000000E+00  1.00000000E+00
  0.00000000E+00  0.00000000E+00  1.00000000E+00  0.00000000E+00  0.00000000E+00
  0.00000000E+00  0.00000000E+00  1.00000000E+00  0.00000000E+00  0.00000000E+00
  0.00000000E+00  0.00000000E+00  1.00000000E+00  0.00000000E+00  0.00000000E+00
  0.00000000E+00  0.00000000E+00  1.00000000E+00  0.00000000E+00  0.00000000E+00
  0.00000000E+00  0.00000000E+00  1.00000000E+00  0.00000000E+00  0.00000000E+00
  0.00000000E+00  0.00000000E+00  0.00000000E+00  0.00000000E+00  0.00000000E+00
  0.00000000E+00  0.00000000E+00  0.00000000E+00  1.00000000E+00  1.00000000E+00
MxBond                                     I                3
NBond                                      I   N=          10
           1           3           3           3           3           3
           1           1           1           1
IBond                                      I   N=          30
           4           0           0           3           6           8
           2           4           7           1           3           5
           4           6           9           2           5          10
           3           0           0           2           0           0
           5           0           0           6           0           0
RBond                                      R   N=          30
  1.00000000E+00  0.00000000E+00  0.00000000E+00  1.00000000E+00  1.00000000E+00
  1.00000000E+00  1.00000000E+00  1.50000000E+00  1.00000000E+00  1.00000000E+00
  1.50000000E+00  1.50000000E+00  1.50000000E+00  1.50000000E+00  1.00000000E+00
  1.00000000E+00  1.50000000E+00  1.00000000E+00  1.00000000E+00  0.00000000E+00
  0.00000000E+00  1.00000000E+00  0.00000000E+00  0.00000000E+00  1.00000000E+00
  0.00000000E+00  0.00000000E+00  1.00000000E+00  0.00000000E+00  0.00000000E+00
Virial Ratio                               R      2.001099758914489E+00
SCF Energy                                 R     -6.677047340591516E+02
MP2 Energy                                 R     -6.685106924598432E+02
Total Energy                               R     -6.685106924598432E+02
Post-SCF wavefunction norm                 R      1.603614290458302E+00
RMS Force                                  R      1.388725665357494E-06
RMS Density                                R      1.877931387160005E-09
External E-field                           R   N=          35
  0.00000000E+00  0.00000000E+00  0.00000000E+00  0.00000000E+00  0.00000000E+00
  0.00000000E+00  0.00000000E+00  0.00000000E+00  0.00000000E+00  0.00000000E+00
  0.00000000E+00  0.00000000E+00  0.00000000E+00  0.00000000E+00  0.00000000E+00
  0.00000000E+00  0.00000000E+00  0.00000000E+00  0.00000000E+00  0.00000000E+00
  0.00000000E+00  0.00000000E+00  0.00000000E+00  0.00000000E+00  0.00000000E+00
  0.00000000E+00  0.00000000E+00  0.00000000E+00  0.00000000E+00  0.00000000E+00
  0.00000000E+00  0.00000000E+00  0.00000000E+00  0.00000000E+00  0.00000000E+00
IOpCl                                      I                0
IROHF                                      I                0
Alpha Orbital Energies                     R   N=         102
 -1.04816315E+02 -1.56259044E+01 -1.12751371E+01 -1.12682193E+01 -1.12681475E+01
 -1.12246856E+01 -1.05493969E+01 -8.01890197E+00 -8.01556984E+00 -8.01545536E+00
 -1.30351190E+00 -1.13785913E+00 -1.02798253E+00 -9.77675927E-01 -8.03718644E-01
 -7.57730774E-01 -7.39195458E-01 -5.99437540E-01 -5.95963145E-01 -5.83496045E-01
 -5.67634790E-01 -5.46310640E-01 -4.80774552E-01 -4.38555423E-01 -3.43793672E-01
 -3.01524975E-01  1.81816039E-01  1.99208009E-01  2.39435117E-01  2.53187904E-01
  2.86372766E-01  2.98283253E-01  3.14059348E-01  3.78328935E-01  4.00539096E-01
  4.96727123E-01  5.07696530E-01  5.63494274E-01  5.90739194E-01  6.37541451E-01
  6.47894755E-01  7.16476782E-01  7.46077301E-01  7.78489300E-01  8.08267957E-01
  8.18444249E-01  8.33338120E-01  8.57732396E-01  8.59612684E-01  8.61466401E-01
  9.31269399E-01  1.01748621E+00  1.02147689E+00  1.05981352E+00  1.08659221E+00
  1.10897547E+00  1.13262616E+00  1.16234620E+00  1.16619463E+00  1.17062322E+00
  1.18697953E+00  1.18836362E+00  1.21995068E+00  1.33791674E+00  1.38594527E+00
  1.44980691E+00  1.47840204E+00  1.52495425E+00  1.59147116E+00  1.60717460E+00
  1.63127259E+00  1.66061385E+00  1.71770826E+00  1.79589366E+00  1.81296246E+00
  1.88416527E+00  2.10279737E+00  2.17168254E+00  2.29942335E+00  2.31456497E+00
  2.38265977E+00  2.43550170E+00  2.52508901E+00  2.53367440E+00  2.55936888E+00
  2.58359822E+00  2.64584055E+00  2.65095490E+00  2.87843184E+00  2.94005300E+00
  2.96418827E+00  3.03642482E+00  3.04956621E+00  3.30752796E+00  3.33605413E+00
  3.38236791E+00  4.33495176E+00  4.49462412E+00  4.54197752E+00  4.70513907E+00
  4.77953945E+00  4.91536382E+00
Alpha MO coefficients                      R   N=       10404
  9.96116906E-01  1.46457366E-02 -6.23188940E-05  7.10742729E-08  5.21901063E-10
 -1.77345662E-02  6.42671611E-05 -2.46438185E-07 -5.41289196E-10  1.37275587E-03
 -1.26585993E-05  1.44017787E-06  1.43591531E-10  6.26672253E-03  6.26773776E-03
  6.26442821E-03 -5.60304082E-07  2.27052155E-11  6.49237335E-12 -1.26802953E-06
 -4.04697758E-06 -7.10470587E-06 -4.59898443E-06  2.52093945E-10 -4.24939567E-05
  4.32866697E-06  5.98479824E-05 -2.69885190E-09 -4.81035499E-06  3.41687647E-06
 -7.94846248E-06 -2.54464927E-06  1.99337915E-10  1.66893437E-10  7.18446501E-07
  1.31531599E-05  2.96939362E-06  2.58776215E-06  1.78736338E-10  1.20524400E-04
 -1.13818768E-04  1.06900459E-04 -1.16999196E-09 -2.30223530E-05  1.23201703E-05
 -1.46689730E-06 -1.44459391E-05  4.70222586E-10 -2.12547815E-10  7.91330469E-06
  1.05842779E-04  2.83167264E-05 -1.88704246E-06 -3.22500580E-10 -2.32027398E-04
  2.75661939E-04 -1.28320349E-05 -4.31408401E-10 -5.77291750E-05  2.37330568E-05
 -3.23252821E-07  1.38566656E-06  3.95137317E-10  2.33430690E-11 -8.00770723E-07
  5.98579074E-06  4.06898452E-06 -3.88029021E-06  8.01919686E-11  2.16743249E-04
 -1.42303102E-04 -1.49587179E-04 -2.36909417E-09 -2.17840446E-05  1.11018539E-05
 -3.97486143E-06  1.48489622E-05  5.33456751E-10  3.08297675E-10 -5.83563316E-07
  1.16012756E-06 -8.70588264E-06  5.08318143E-06  6.04211090E-11 -1.93096187E-04
 -6.52755463E-05 -1.85811739E-07 -1.38099784E-09 -4.15630930E-06 -2.55982737E-06
 -2.90008694E-06  1.53442608E-06 -3.33985410E-10 -3.60653245E-11  1.39982033E-05
  2.48232503E-05  1.17147956E-05  1.24374198E-05  1.62309844E-05  3.70808184E-05
  4.30894299E-06 -1.03218636E-06 -5.30275703E-08 -6.09559426E-06 -3.52287419E-06
 -5.94601923E-07  1.14858964E-10 -3.81662594E-07  2.41578610E-05  5.72049368E-06
 -6.62192746E-10 -5.26593883E-05  1.43969775E-05 -8.25934625E-05  1.14308472E-09
 -1.95903834E-05 -1.26546435E-05 -1.39219341E-05  2.17309211E-05  2.22773161E-11
 -1.75586880E-10  9.94978032E-01  2.51944064E-02  9.42645149E-05  4.82541094E-05
  1.10293824E-07 -3.48601363E-03 -9.92669845E-04 -7.29949458E-04 -8.75641425E-08
 -3.39563755E-03 -3.41614012E-03 -3.39380205E-03  3.90779714E-05 -8.28109416E-09
 -3.65709016E-09  1.64056556E-05  1.65428820E-04 -2.50641165E-04  4.96578262E-05
 -3.73784420E-09  2.09411430E-03 -5.69386107E-04  1.13032108E-03 -8.59996601E-09
 -9.65600240E-05 -6.58451916E-05 -7.44556905E-05  2.00990133E-05 -3.48319548E-09
  3.59183189E-10  1.01982672E-05 -6.40657052E-06  2.34350643E-06  6.01446474E-05
 -7.84208337E-10 -7.03027808E-04  4.52398485E-04  3.55247868E-04 -3.22957656E-09
  4.23995832E-05  1.70421284E-05  3.83871851E-06 -2.27578332E-05  1.74682842E-09
  1.65569655E-11  1.34760563E-05  1.99032985E-05  7.14360629E-05 -9.43812461E-06
  7.82143231E-10 -9.34387551E-04  2.16699566E-04  5.52322363E-04  1.02286790E-09
  1.03694962E-05  4.35938471E-05  1.22417126E-05 -6.55074396E-07  2.01337678E-09
  2.91481724E-10  1.84183965E-05  1.65160053E-04 -3.38320023E-05 -2.58567104E-04
 -6.12902615E-10  2.01719733E-03  8.88952235E-04 -9.73416210E-04  2.16998312E-08
 -5.80201596E-05 -9.60128887E-05 -6.93822509E-05  1.19847042E-06  9.58494363E-10
 -1.62780117E-09  2.74740548E-06  2.83462689E-04  1.32134026E-04  1.17823014E-04
 -2.98857314E-05 -1.33310489E-04  6.23153781E-06  3.05179307E-04 -4.52605236E-05
  9.05428538E-05 -7.27626469E-06 -1.58878927E-06  7.90991871E-11  3.53799719E-04
 -1.69711324E-04  1.09806767E-05  8.17206276E-10  3.08129035E-03 -1.85307216E-03
 -2.26898161E-05  1.79582961E-08 -4.46637482E-04 -2.51735013E-04 -1.83709942E-04
  1.13559093E-05 -6.78956404E-10 -2.41685067E-10  4.43000505E-05  2.31750134E-04
  1.11347383E-04  6.04680330E-05  2.72701646E-09 -1.73562603E-03 -1.06526235E-03
 -6.70314317E-04 -1.12903563E-08  1.20502654E-04  7.20664159E-05  1.83205908E-04
  1.66614882E-05 -9.73540427E-09 -6.33492284E-09  9.18320533E-02  2.26958850E-03
 -1.77118619E-04 -9.86780670E-05 -5.19902821E-09  3.56546213E-03  6.69181711E-04
  1.54724790E-03 -1.35494878E-08 -3.87605892E-04 -4.30088335E-04 -3.34106799E-04
 -4.71956769E-05  3.45185385E-09 -1.19929755E-09  9.91375118E-01  2.72258990E-02
  8.24546764E-04  3.62330116E-07  1.45448504E-08 -1.28160679E-02 -1.18340938E-03
  1.12346608E-04 -3.00194071E-08 -1.80161110E-03 -1.58123838E-03 -2.12941699E-03
  1.27315150E-05 -1.02690851E-09 -7.17127951E-10  1.00718349E-02  1.91125056E-04
  3.02759282E-06  1.16784985E-04  2.66332490E-09  2.29386801E-03  1.36718288E-03
 -3.78342710E-04  6.04958540E-09 -2.97647755E-04 -3.42155603E-04 -1.12362484E-04
  3.79807117E-05  6.64559579E-10 -2.68118773E-09 -3.65601008E-04 -9.88665597E-05
  3.79333973E-05 -1.07811954E-04  2.15032512E-09  1.05196603E-03  6.47800411E-04
 -2.67109034E-04 -1.65799521E-09  1.41273518E-04  8.18420770E-05  1.08886843E-05
 -2.08571447E-05 -6.73955145E-12  2.19341744E-09 -9.93554874E-05  1.75677004E-04
 -1.23072760E-04 -2.43103465E-04 -1.10847810E-04 -3.82101813E-04 -3.84618316E-06
  2.48919626E-04  4.82779233E-06 -2.44107141E-05 -6.08116989E-06 -1.67374465E-05
 -3.04777102E-10 -9.26019577E-05  7.19352504E-05  9.21843117E-05  1.13299631E-09
  5.44452136E-06  1.98595217E-06 -1.86024986E-05 -2.80461505E-09  4.56688602E-05
  1.52946848E-05 -3.24705447E-05 -1.39878039E-05 -4.05136928E-10 -2.57488005E-10
 -1.65487535E-04  2.85550178E-04  2.95023243E-05 -1.98078349E-05 -2.83213232E-09
 -3.07807083E-04 -1.11749435E-03 -6.15981612E-04 -1.27387017E-08 -5.85494366E-04
 -4.65205930E-05  1.15680936E-04  1.52570722E-04 -2.62760914E-08  2.78978878E-09
  9.48629332E-01  2.60976440E-02 -8.92923630E-04  4.52549721E-04 -5.09461531E-08
 -1.07178161E-02 -8.42460380E-04 -1.78487694E-03  4.72040469E-08 -1.54809832E-03
 -1.45544341E-03 -2.24122679E-03 -1.20317147E-04  1.11733304E-08 -7.63434036E-09
 -8.84477717E-02 -2.60539397E-03  1.10457186E-04  1.37454370E-04 -4.03286080E-09
  6.42385325E-03 -1.80161550E-03 -1.61543059E-03  1.32582362E-08 -2.51228808E-04
 -1.23983639E-04  8.64671861E-05 -2.85340368E-05  7.46082438E-10  1.10108515E-09
 -5.38116099E-03 -6.25753260E-05  2.68809612E-05 -7.83797577E-05 -1.07366635E-09
 -4.46643098E-03  1.52352762E-03  1.72644137E-03  3.57695203E-08  1.16833430E-04
  3.07399193E-04  9.38240786E-05 -4.21078822E-05 -8.02836543E-10 -1.72799898E-09
 -2.89280187E-01 -8.23403335E-03 -6.17236719E-05  2.30057102E-04 -3.44242907E-10
  5.82003741E-03  3.02144257E-03 -9.16012689E-04  5.64756713E-08  5.32608426E-04
  6.24307316E-04  5.97647097E-04 -3.58831689E-05  3.57405181E-10  3.10814681E-10
 -2.92238454E-04  1.47333695E-03 -1.37307288E-04 -4.22830677E-04 -3.93995139E-05
 -3.42721158E-04  2.10025663E-04  5.15716779E-04  8.47510572E-07 -2.33607666E-05
 -7.15904750E-06 -1.38609179E-06  5.47044778E-10 -5.54476108E-05  6.32318529E-05
  5.82649775E-06 -3.35261856E-09 -1.15343920E-04  2.45728648E-05 -8.15033342E-05
  1.32270682E-08 -1.20309368E-05 -2.42359669E-05 -4.21160262E-05  2.39304758E-05
 -2.96596783E-09  1.31608159E-11 -2.98585819E-04  5.90342492E-04  2.95778411E-05
  4.42937067E-05 -6.81827815E-09 -1.11530612E-03 -2.10697685E-03 -1.65121541E-03
 -6.30346646E-09 -3.86277146E-04 -7.41594468E-04  2.57262210E-04  5.80116572E-05
 -3.19337496E-08 -1.68527413E-08  2.88045318E-01  7.51638710E-03 -3.93184756E-04
  1.27644086E-04 -2.33062525E-08  4.07538947E-04 -4.78847956E-04  2.95917201E-03
 -9.58716121E-09 -3.00190667E-04 -2.81601972E-04 -7.96828393E-04 -1.41992546E-04
  1.18108000E-08 -1.13230660E-08 -2.65987709E-02 -7.46645168E-04  6.93398962E-06
  1.32520481E-04  4.26180185E-09 -1.47617085E-03  1.11389448E-03  5.09669535E-04
 -3.80640301E-08  3.79610307E-05 -2.51383759E-06  7.88173873E-05 -1.42412538E-04
  7.99364945E-09  2.00891933E-09  1.33446326E-02  1.92969423E-04  2.16406820E-04
  7.31258901E-05  5.33608535E-09  2.83617986E-03 -1.37042792E-03 -2.43688083E-04
 -1.75741373E-08 -2.99002455E-04 -2.79476414E-04 -9.92258913E-05 -8.14274492E-05
 -1.05710353E-09 -2.63918596E-09  9.52584024E-01  2.58869497E-02  9.21025123E-06
 -1.09401272E-03 -1.82427755E-08 -8.14959255E-03  2.12820370E-04 -1.02459549E-03
 -5.83594957E-09 -1.50060738E-03 -1.36813408E-03 -2.32394639E-03 -1.52497119E-04
  9.75493028E-09  3.08130012E-09  4.97709832E-05  1.70566037E-03 -2.91533378E-04
 -8.34733009E-04 -5.82509287E-05 -3.63643758E-05 -2.20228733E-04  2.25672811E-03
  1.74726870E-06 -1.95117499E-05 -8.85959220E-06  1.36779165E-05 -2.77911724E-10
 -4.78720728E-05  6.97750770E-05 -6.91992412E-05  1.05583257E-09  2.19479083E-04
 -1.33960568E-04 -1.20400392E-04 -6.07700957E-10 -4.29153206E-06 -1.32224918E-05
 -5.25076798E-05  4.82000860E-05 -5.93411128E-10 -3.10688295E-10  7.49697605E-05
  1.74725305E-04  7.49974191E-05  6.16853038E-05 -6.49968781E-10 -2.30082390E-03
 -6.54130291E-04 -9.59782981E-04 -4.03468325E-09  1.44738645E-04  1.96273983E-04
  1.44503491E-04  5.67421888E-05 -4.92339918E-09 -3.29627224E-10  3.72328149E-04
 -1.23624057E-04 -9.71752823E-05  2.93784146E-05 -5.52924779E-09  8.57656084E-05
  6.19368978E-06  2.46033675E-04  6.01572039E-09  6.74458883E-05  1.74099122E-04
 -1.06184869E-05  6.49959149E-06 -1.38694510E-09  7.22934758E-10 -1.06062561E-02
 -3.37369850E-04  1.87822679E-04 -6.48809378E-05 -2.63740614E-09  5.07840499E-03
 -1.73255213E-03  1.83795914E-03  6.33050226E-09 -4.04780997E-04 -4.19664984E-04
 -9.48369000E-05  1.28642016E-04  2.35446175E-09 -4.79677352E-09  9.95498656E-01
  2.78866353E-02 -5.34587247E-05 -4.79094447E-04 -2.89041743E-08 -1.52836746E-02
  8.63415896E-04  3.27798666E-03  8.66606708E-08 -1.72387907E-03 -1.60612604E-03
 -2.32477723E-03  9.52020574E-05  5.84456366E-09  3.15525269E-09 -1.48731314E-02
 -6.14311618E-04 -2.17277533E-04 -7.44023978E-06 -5.89912933E-09  6.63049989E-03
  2.98973187E-03 -7.36162163E-04  2.99935220E-08 -4.48778030E-04 -2.37914114E-04
 -9.47378464E-05 -3.70168232E-05 -8.08611780E-09 -1.77119542E-09 -1.32555351E-05
  1.76610062E-04 -8.33274279E-05 -1.38019548E-04 -3.07986461E-04  1.20937173E-03
  1.05925722E-05  4.64757848E-04 -2.86735600E-01  1.03059814E+00 -4.66067983E-03
 -4.81591583E-06  3.83623583E-08  2.60661031E-02 -1.49719641E-03 -1.94934316E-06
  1.24520269E-08 -5.38298753E-03  5.95218554E-04  7.94125560E-07 -8.22067982E-09
 -1.03687385E-03 -1.72250052E-03 -1.70097094E-03 -4.24251492E-06 -4.45217154E-09
 -7.50797079E-12 -3.47791397E-05 -1.33800395E-04  3.55186631E-05  8.02578510E-08
 -2.85521133E-09  1.72331525E-03  7.68246815E-04 -5.86278660E-04  3.97707950E-08
  1.82310737E-05 -1.08180034E-04 -6.89619838E-05 -4.55319066E-05  5.37092119E-09
 -1.20550402E-09  5.73264857E-06 -2.22417561E-05 -1.79715469E-04  1.48101789E-06
  1.78931892E-09 -2.75850459E-03  1.75173746E-03 -2.15937843E-03  3.03978809E-08
 -8.51252290E-05  1.83994448E-05 -4.76802485E-05  7.87712884E-05 -7.35644394E-09
  4.13874181E-09 -3.59232183E-04  1.60156827E-04  9.89921385E-05 -6.38441327E-06
  7.72048355E-10  4.12530667E-03 -3.52498828E-03  1.53793486E-04  1.42665832E-08
 -7.82053578E-04 -1.58027369E-04 -1.61892092E-04  2.16433414E-06  1.82053734E-09