
    -----------------------------------------------------------------------
          Psi4: An Open-Source Ab Initio Electronic Structure Package
                               Psi4 1.4a3.dev225 

                         Git: Rev {master} 7105e37 


    D. G. A. Smith, L. A. Burns, A. C. Simmonett, R. M. Parrish,
    M. C. Schieber, R. Galvelis, P. Kraus, H. Kruse, R. Di Remigio,
    A. Alenaizan, A. M. James, S. Lehtola, J. P. Misiewicz, M. Scheurer,
    R. A. Shaw, J. B. Schriber, Y. Xie, Z. L. Glick, D. A. Sirianni,
    J. S. O'Brien, J. M. Waldrop, A. Kumar, E. G. Hohenstein,
    B. P. Pritchard, B. R. Brooks, H. F. Schaefer III, A. Yu. Sokolov,
    K. Patkowski, A. E. DePrince III, U. Bozkaya, R. A. King,
    F. A. Evangelista, J. M. Turney, T. D. Crawford, C. D. Sherrill,
    J. Chem. Phys. 152(18) 184108 (2020). https://doi.org/10.1063/5.0006002

                            Additional Code Authors
    E. T. Seidl, C. L. Janssen, E. F. Valeev, M. L. Leininger,
    J. F. Gonthier, R. M. Richard, H. R. McAlexander, M. Saitow, X. Wang,
    P. Verma, and M. H. Lechner

             Previous Authors, Complete List of Code Contributors,
                       and Citations for Specific Modules
    https://github.com/psi4/psi4/blob/master/codemeta.json
    https://github.com/psi4/psi4/graphs/contributors
    http://psicode.org/psi4manual/master/introduction.html#citing-psifour

    -----------------------------------------------------------------------


    Psi4 started on: Sunday, 28 February 2021 08:49AM

    Process ID: 222147
    Host:       c419-034.stampede2.tacc.utexas.edu
    PSIDATADIR: /home1/07844/xy3866/miniconda3/envs/p4env/share/psi4
    Memory:     500.0 MiB
    Threads:    32
    
  ==> Input File <==

--------------------------------------------------------------------------
#psi4
#
memory 32 gb

molecule  {
0 1
  N        1.0430420     0.8835120     0.3262100
  C       -2.6935940    -0.1236090    -0.2650160
  C       -0.4170680    -1.0145740    -0.0079460
  C       -1.3683020    -0.3105490    -1.0112920
  C       -2.2166740     0.1783740     1.1559530
  C       -1.0996000    -0.8433070     1.3811970
  C       -3.6002280     0.9375310    -0.8724950
  C        0.9387398    -0.4140541    -0.0361722
  C        2.0893310    -1.1495780    -0.4236340
  C        3.3396130    -0.5322390    -0.4347340
  C        2.2533150     1.4653640     0.3147880
  C        3.4262710     0.8062240    -0.0568370
  H       -3.2284890    -1.0854330    -0.2500270
  H       -0.3333030    -2.0805640    -0.2540920
  H       -0.9618110     0.6780590    -1.2570810
  H       -1.4754410    -0.8694270    -1.9482280
  H       -3.0167220     0.1138590     1.9027270
  H       -1.8007770     1.1928100     1.1867420
  H       -0.3855780    -0.5294870     2.1482020
  H       -1.5277920    -1.8013410     1.6997400
  H       -3.8772320     0.6843320    -1.9011880
  H       -4.5228040     1.0497910    -0.2936460
  H       -3.0892320     1.9062640    -0.8879070
  H        1.9842510    -2.1936970    -0.7089060
  H        4.2276210    -1.0857940    -0.7310670
  H        2.2780980     2.5111560     0.6184940
  H        4.3773590     1.3311980    -0.0481150
units angstrom
no_reorient  #important for SAPT in psi4, default
symmetry c1  #important for SAPT in psi4, default
}

set PROPERTIES_ORIGIN ["COM"]
properties('MP2/aug-cc-pvtz', properties = ['dipole'])
--------------------------------------------------------------------------

  Memory set to  29.802 GiB by Python driver.
    SCF Algorithm Type (re)set to DF.

*** tstart() called on c419-034.stampede2.tacc.utexas.edu
*** at Sun Feb 28 08:49:42 2021

   => Loading Basis Set <=

    Name: AUG-CC-PVTZ
    Role: ORBITAL
    Keyword: BASIS
    atoms 1     entry N          line   285 file /home1/07844/xy3866/miniconda3/envs/p4env/share/psi4/basis/aug-cc-pvtz.gbs 
    atoms 2-12  entry C          line   239 file /home1/07844/xy3866/miniconda3/envs/p4env/share/psi4/basis/aug-cc-pvtz.gbs 
    atoms 13-27 entry H          line    40 file /home1/07844/xy3866/miniconda3/envs/p4env/share/psi4/basis/aug-cc-pvtz.gbs 


         ---------------------------------------------------------
                                   SCF
               by Justin Turney, Rob Parrish, Andy Simmonett
                          and Daniel G. A. Smith
                              RHF Reference
                       32 Threads,  30517 MiB Core
         ---------------------------------------------------------

  ==> Geometry <==

    Molecular point group: c1
    Full point group: C1

    Geometry (in Angstrom), charge = 0, multiplicity = 1:

       Center              X                  Y                   Z               Mass       
    ------------   -----------------  -----------------  -----------------  -----------------
         N            0.974852273973     0.882350075982     0.321470289456    14.003074004430
         C           -2.761783726027    -0.124770924018    -0.269755710544    12.000000000000
         C           -0.485257726027    -1.015735924018    -0.012685710544    12.000000000000
         C           -1.436491726027    -0.311710924018    -1.016031710544    12.000000000000
         C           -2.284863726027     0.177212075982     1.151213289456    12.000000000000
         C           -1.167789726027    -0.844468924018     1.376457289456    12.000000000000
         C           -3.668417726027     0.936369075982    -0.877234710544    12.000000000000
         C            0.870550073973    -0.415216024018    -0.040911910544    12.000000000000
         C            2.021141273973    -1.150739924018    -0.428373710544    12.000000000000
         C            3.271423273973    -0.533400924018    -0.439473710544    12.000000000000
         C            2.185125273973     1.464202075982     0.310048289456    12.000000000000
         C            3.358081273973     0.805062075982    -0.061576710544    12.000000000000
         H           -3.296678726027    -1.086594924018    -0.254766710544     1.007825032230
         H           -0.401492726027    -2.081725924018    -0.258831710544     1.007825032230
         H           -1.030000726027     0.676897075982    -1.261820710544     1.007825032230
         H           -1.543630726027    -0.870588924018    -1.952967710544     1.007825032230
         H           -3.084911726027     0.112697075982     1.897987289456     1.007825032230
         H           -1.868966726027     1.191648075982     1.182002289456     1.007825032230
         H           -0.453767726027    -0.530648924018     2.143462289456     1.007825032230
         H           -1.595981726027    -1.802502924018     1.695000289456     1.007825032230
         H           -3.945421726027     0.683170075982    -1.905927710544     1.007825032230
         H           -4.590993726027     1.048629075982    -0.298385710544     1.007825032230
         H           -3.157421726027     1.905102075982    -0.892646710544     1.007825032230
         H            1.916061273973    -2.194858924018    -0.713645710544     1.007825032230
         H            4.159431273973    -1.086955924018    -0.735806710544     1.007825032230
         H            2.209908273973     2.509994075982     0.613754289456     1.007825032230
         H            4.309169273973     1.330036075982    -0.052854710544     1.007825032230

  Running in c1 symmetry.

  Rotational constants: A =      0.07573  B =      0.01744  C =      0.01678 [cm^-1]
  Rotational constants: A =   2270.46850  B =    522.73082  C =    503.12402 [MHz]
  Nuclear repulsion =  685.923932476517621

  Charge       = 0
  Multiplicity = 1
  Electrons    = 88
  Nalpha       = 44
  Nbeta        = 44

  ==> Algorithm <==

  SCF Algorithm Type is DF.
  DIIS enabled.
  MOM disabled.
  Fractional occupation disabled.
  Guess Type is SAD.
  Energy threshold   = 1.00e-10
  Density threshold  = 1.00e-10
  Integral threshold = 1.00e-12

  ==> Primary Basis <==

  Basis Set: AUG-CC-PVTZ
    Blend: AUG-CC-PVTZ
    Number of shells: 303
    Number of basis functions: 897
    Number of Cartesian functions: 1035
    Spherical Harmonics?: true
    Max angular momentum: 3

   => Loading Basis Set <=

    Name: (AUG-CC-PVTZ AUX)
    Role: JKFIT
    Keyword: DF_BASIS_SCF
    atoms 1     entry N          line   224 file /home1/07844/xy3866/miniconda3/envs/p4env/share/psi4/basis/aug-cc-pvtz-jkfit.gbs 
    atoms 2-12  entry C          line   162 file /home1/07844/xy3866/miniconda3/envs/p4env/share/psi4/basis/aug-cc-pvtz-jkfit.gbs 
    atoms 13-27 entry H          line    70 file /home1/07844/xy3866/miniconda3/envs/p4env/share/psi4/basis/aug-cc-pvtz-jkfit.gbs 

  ==> Integral Setup <==

  DFHelper Memory: AOs need 10.423 GiB; user supplied 22.352 GiB. Using in-core AOs.

  ==> MemDFJK: Density-Fitted J/K Matrices <==

    J tasked:                   Yes
    K tasked:                   Yes
    wK tasked:                   No
    OpenMP threads:              32
    Memory [MiB]:             22888
    Algorithm:                 Core
    Schwarz Cutoff:           1E-12
    Mask sparsity (%):      13.5733
    Fitting Condition:        1E-10

   => Auxiliary Basis Set <=

  Basis Set: (AUG-CC-PVTZ AUX)
    Blend: AUG-CC-PVTZ-JKFIT
    Number of shells: 570
    Number of basis functions: 1938
    Number of Cartesian functions: 2397
    Spherical Harmonics?: true
    Max angular momentum: 4

  Minimum eigenvalue in the overlap matrix is 6.8806251611E-07.
  Reciprocal condition number of the overlap matrix is 2.7973925673E-08.
    Using symmetric orthogonalization.

  ==> Pre-Iterations <==

  SCF Guess: Superposition of Atomic Densities via on-the-fly atomic UHF (no occupation information).

   -------------------------
    Irrep   Nso     Nmo    
   -------------------------
     A        897     897 
   -------------------------
    Total     897     897
   -------------------------

  ==> Iterations <==

                           Total Energy        Delta E     RMS |[F,P]|

   @DF-RHF iter SAD:  -479.88452371619809   -4.79885e+02   0.00000e+00 
   @DF-RHF iter   1:  -479.47770343940317    4.06820e-01   9.08645e-04 DIIS
   @DF-RHF iter   2:  -479.80109816487834   -3.23395e-01   4.68401e-04 DIIS
   @DF-RHF iter   3:  -479.88883501607944   -8.77369e-02   1.00853e-04 DIIS
   @DF-RHF iter   4:  -479.89447554415278   -5.64053e-03   4.16548e-05 DIIS
   @DF-RHF iter   5:  -479.89527268546999   -7.97141e-04   9.27066e-06 DIIS
   @DF-RHF iter   6:  -479.89532030250598   -4.76170e-05   3.03416e-06 DIIS
   @DF-RHF iter   7:  -479.89532581720175   -5.51470e-06   7.29948e-07 DIIS
   @DF-RHF iter   8:  -479.89532629508676   -4.77885e-07   2.45966e-07 DIIS
   @DF-RHF iter   9:  -479.89532638331946   -8.82327e-08   1.16639e-07 DIIS
   @DF-RHF iter  10:  -479.89532640813491   -2.48154e-08   5.67403e-08 DIIS
   @DF-RHF iter  11:  -479.89532641592643   -7.79153e-09   2.00435e-08 DIIS
   @DF-RHF iter  12:  -479.89532641673662   -8.10189e-10   9.57213e-09 DIIS
   @DF-RHF iter  13:  -479.89532641683752   -1.00897e-10   3.43023e-09 DIIS
   @DF-RHF iter  14:  -479.89532641685366   -1.61435e-11   1.27083e-09 DIIS
   @DF-RHF iter  15:  -479.89532641685491   -1.25056e-12   3.34120e-10 DIIS
   @DF-RHF iter  16:  -479.89532641685497   -5.68434e-14   1.28117e-10 DIIS
   @DF-RHF iter  17:  -479.89532641685548   -5.11591e-13   3.82668e-11 DIIS
  Energy and wave function converged.


  ==> Post-Iterations <==

    Orbital Energies [Eh]
    ---------------------

    Doubly Occupied:                                                      

       1A    -15.557213     2A    -11.277408     3A    -11.273768  
       4A    -11.257071     5A    -11.236715     6A    -11.235352  
       7A    -11.225948     8A    -11.215238     9A    -11.212331  
      10A    -11.210700    11A    -11.205702    12A    -11.204337  
      13A     -1.250465    14A     -1.129281    15A     -1.080314  
      16A     -1.046893    17A     -0.991104    18A     -0.955897  
      19A     -0.895345    20A     -0.853188    21A     -0.837166  
      22A     -0.765306    23A     -0.756461    24A     -0.696513  
      25A     -0.668131    26A     -0.641530    27A     -0.639650  
      28A     -0.607196    29A     -0.585947    30A     -0.578597  
      31A     -0.573667    32A     -0.552060    33A     -0.537172  
      34A     -0.527107    35A     -0.513434    36A     -0.474988  
      37A     -0.470067    38A     -0.461836    39A     -0.454818  
      40A     -0.447826    41A     -0.440219    42A     -0.407064  
      43A     -0.376587    44A     -0.329115  

    Virtual:                                                              

      45A      0.024856    46A      0.029940    47A      0.033611  
      48A      0.037841    49A      0.041739    50A      0.043464  
      51A      0.050550    52A      0.055061    53A      0.057460  
      54A      0.059330    55A      0.064788    56A      0.072289  
      57A      0.076559    58A      0.080984    59A      0.084624  
      60A      0.091086    61A      0.097033    62A      0.102613  
      63A      0.104201    64A      0.106617    65A      0.109184  
      66A      0.116708    67A      0.118659    68A      0.121230  
      69A      0.123088    70A      0.125816    71A      0.129959  
      72A      0.132131    73A      0.134191    74A      0.137079  
      75A      0.144005    76A      0.146932    77A      0.151011  
      78A      0.152293    79A      0.156018    80A      0.157255  
      81A      0.159457    82A      0.163114    83A      0.164267  
      84A      0.167579    85A      0.172452    86A      0.175971  
      87A      0.179645    88A      0.184119    89A      0.187798  
      90A      0.189222    91A      0.192996    92A      0.202450  
      93A      0.211983    94A      0.214301    95A      0.220432  
      96A      0.233308    97A      0.236961    98A      0.238633  
      99A      0.246374   100A      0.250051   101A      0.255289  
     102A      0.257756   103A      0.261942   104A      0.262842  
     105A      0.266236   106A      0.269743   107A      0.277126  
     108A      0.281957   109A      0.286751   110A      0.297473  
     111A      0.299726   112A      0.300648   113A      0.305291  
     114A      0.305786   115A      0.312558   116A      0.314084  
     117A      0.317609   118A      0.323893   119A      0.326019  
     120A      0.327374   121A      0.332874   122A      0.334951  
     123A      0.337930   124A      0.342223   125A      0.346485  
     126A      0.352819   127A      0.356290   128A      0.357704  
     129A      0.361852   130A      0.363514   131A      0.372808  
     132A      0.374148   133A      0.380544   134A      0.385099  
     135A      0.387170   136A      0.389264   137A      0.392779  
     138A      0.396169   139A      0.401379   140A      0.407384  
     141A      0.409373   142A      0.417319   143A      0.420260  
     144A      0.422831   145A      0.425396   146A      0.428814  
     147A      0.430140   148A      0.434965   149A      0.438068  
     150A      0.446172   151A      0.447737   152A      0.451748  
     153A      0.458076   154A      0.461265   155A      0.464043  
     156A      0.467061   157A      0.468588   158A      0.472055  
     159A      0.476492   160A      0.480996   161A      0.482312  
     162A      0.486151   163A      0.488440   164A      0.489912  
     165A      0.492662   166A      0.496994   167A      0.500425  
     168A      0.504574   169A      0.509705   170A      0.510334  
     171A      0.513808   172A      0.517640   173A      0.519412  
     174A      0.523242   175A      0.528840   176A      0.531033  
     177A      0.535315   178A      0.540422   179A      0.543899  
     180A      0.546084   181A      0.548597   182A      0.551099  
     183A      0.556537   184A      0.559913   185A      0.566138  
     186A      0.568164   187A      0.571335   188A      0.573175  
     189A      0.576016   190A      0.584341   191A      0.585062  
     192A      0.591876   193A      0.595414   194A      0.598946  
     195A      0.601201   196A      0.603462   197A      0.613007  
     198A      0.616335   199A      0.621066   200A      0.627524  
     201A      0.633716   202A      0.634437   203A      0.638226  
     204A      0.642410   205A      0.646756   206A      0.652573  
     207A      0.657634   208A      0.663621   209A      0.666608  
     210A      0.669788   211A      0.673945   212A      0.676913  
     213A      0.682442   214A      0.686440   215A      0.693148  
     216A      0.694983   217A      0.702360   218A      0.707082  
     219A      0.713195   220A      0.714416   221A      0.716112  
     222A      0.720630   223A      0.726605   224A      0.732078  
     225A      0.744388   226A      0.748391   227A      0.756425  
     228A      0.764455   229A      0.766162   230A      0.769944  
     231A      0.774497   232A      0.782735   233A      0.792440  
     234A      0.796245   235A      0.805480   236A      0.809967  
     237A      0.815959   238A      0.826677   239A      0.827204  
     240A      0.836902   241A      0.839196   242A      0.846064  
     243A      0.848400   244A      0.855189   245A      0.860430  
     246A      0.864452   247A      0.865953   248A      0.879502  
     249A      0.881012   250A      0.885602   251A      0.888346  
     252A      0.891639   253A      0.899792   254A      0.906797  
     255A      0.907965   256A      0.913173   257A      0.916212  
     258A      0.919672   259A      0.922604   260A      0.929071  
     261A      0.935071   262A      0.940923   263A      0.942979  
     264A      0.949141   265A      0.953108   266A      0.953674  
     267A      0.958076   268A      0.963378   269A      0.966627  
     270A      0.969300   271A      0.972743   272A      0.982839  
     273A      0.988187   274A      0.992475   275A      0.997559  
     276A      0.999167   277A      1.006005   278A      1.008233  
     279A      1.014747   280A      1.018326   281A      1.021926  
     282A      1.026539   283A      1.034114   284A      1.036573  
     285A      1.041097   286A      1.042830   287A      1.049708  
     288A      1.053600   289A      1.057121   290A      1.064815  
     291A      1.072367   292A      1.075019   293A      1.083087  
     294A      1.084589   295A      1.086553   296A      1.088916  
     297A      1.094373   298A      1.097796   299A      1.101027  
     300A      1.105882   301A      1.114817   302A      1.119886  
     303A      1.123586   304A      1.132365   305A      1.135506  
     306A      1.138438   307A      1.141757   308A      1.143461  
     309A      1.147456   310A      1.152560   311A      1.157915  
     312A      1.169187   313A      1.170749   314A      1.176617  
     315A      1.178386   316A      1.184475   317A      1.187456  
     318A      1.188730   319A      1.196047   320A      1.198578  
     321A      1.203902   322A      1.208825   323A      1.213711  
     324A      1.215448   325A      1.222342   326A      1.225096  
     327A      1.230268   328A      1.237013   329A      1.241181  
     330A      1.243160   331A      1.247886   332A      1.252616  
     333A      1.255283   334A      1.256963   335A      1.265078  
     336A      1.270046   337A      1.278316   338A      1.283760  
     339A      1.288124   340A      1.294502   341A      1.300579  
     342A      1.304072   343A      1.306187   344A      1.315847  
     345A      1.321544   346A      1.329361   347A      1.338371  
     348A      1.341601   349A      1.353881   350A      1.357041  
     351A      1.364054   352A      1.372268   353A      1.379875  
     354A      1.381561   355A      1.382692   356A      1.388866  
     357A      1.401196   358A      1.407511   359A      1.409047  
     360A      1.418717   361A      1.427005   362A      1.432569  
     363A      1.438336   364A      1.439512   365A      1.443704  
     366A      1.450746   367A      1.456368   368A      1.464253  
     369A      1.470537   370A      1.474115   371A      1.480865  
     372A      1.490486   373A      1.497071   374A      1.505732  
     375A      1.507123   376A      1.514112   377A      1.525269  
     378A      1.530340   379A      1.534006   380A      1.536207  
     381A      1.542086   382A      1.550015   383A      1.558173  
     384A      1.562052   385A      1.570605   386A      1.580603  
     387A      1.594856   388A      1.601100   389A      1.607500  
     390A      1.610981   391A      1.615248   392A      1.621089  
     393A      1.625246   394A      1.634762   395A      1.640322  
     396A      1.650925   397A      1.663272   398A      1.667415  
     399A      1.675391   400A      1.680054   401A      1.685067  
     402A      1.690671   403A      1.696126   404A      1.698363  
     405A      1.712907   406A      1.713587   407A      1.719021  
     408A      1.727081   409A      1.731441   410A      1.734001  
     411A      1.740802   412A      1.744852   413A      1.751081  
     414A      1.756305   415A      1.761630   416A      1.767373  
     417A      1.772397   418A      1.780051   419A      1.785625  
     420A      1.789388   421A      1.799600   422A      1.800835  
     423A      1.805978   424A      1.810013   425A      1.820015  
     426A      1.824149   427A      1.828246   428A      1.839571  
     429A      1.844519   430A      1.848130   431A      1.851964  
     432A      1.858002   433A      1.864665   434A      1.867077  
     435A      1.878370   436A      1.881576   437A      1.887724  
     438A      1.897118   439A      1.901127   440A      1.913466  
     441A      1.915255   442A      1.924383   443A      1.930025  
     444A      1.936953   445A      1.941333   446A      1.947395  
     447A      1.952056   448A      1.952920   449A      1.972830  
     450A      1.978065   451A      1.978850   452A      1.987823  
     453A      1.990206   454A      2.001820   455A      2.003934  
     456A      2.011409   457A      2.019875   458A      2.025707  
     459A      2.033262   460A      2.037744   461A      2.047168  
     462A      2.048755   463A      2.051018   464A      2.058495  
     465A      2.060451   466A      2.067811   467A      2.069881  
     468A      2.074162   469A      2.076596   470A      2.087752  
     471A      2.096866   472A      2.104131   473A      2.109488  
     474A      2.115818   475A      2.120323   476A      2.131092  
     477A      2.136061   478A      2.140934   479A      2.151137  
     480A      2.161082   481A      2.166880   482A      2.171151  
     483A      2.176244   484A      2.192781   485A      2.196212  
     486A      2.215987   487A      2.218355   488A      2.226982  
     489A      2.240849   490A      2.244288   491A      2.252348  
     492A      2.261917   493A      2.268038   494A      2.278097  
     495A      2.280983   496A      2.282537   497A      2.290670  
     498A      2.303128   499A      2.311352   500A      2.313814  
     501A      2.326599   502A      2.333906   503A      2.341673  
     504A      2.342659   505A      2.354613   506A      2.367822  
     507A      2.371729   508A      2.375066   509A      2.384362  
     510A      2.396330   511A      2.400519   512A      2.411528  
     513A      2.414731   514A      2.432307   515A      2.433082  
     516A      2.443429   517A      2.455099   518A      2.463035  
     519A      2.471517   520A      2.489253   521A      2.497900  
     522A      2.505301   523A      2.519783   524A      2.525862  
     525A      2.535664   526A      2.541726   527A      2.552372  
     528A      2.561662   529A      2.574386   530A      2.586820  
     531A      2.587515   532A      2.594154   533A      2.609161  
     534A      2.622142   535A      2.626292   536A      2.636958  
     537A      2.644558   538A      2.659661   539A      2.668900  
     540A      2.678161   541A      2.686514   542A      2.703955  
     543A      2.710801   544A      2.715788   545A      2.726338  
     546A      2.739658   547A      2.747657   548A      2.769775  
     549A      2.789709   550A      2.811392   551A      2.843230  
     552A      2.856061   553A      2.873706   554A      2.881461  
     555A      2.896826   556A      2.927945   557A      2.945354  
     558A      2.981685   559A      3.002772   560A      3.057055  
     561A      3.071505   562A      3.100211   563A      3.106864  
     564A      3.131014   565A      3.167760   566A      3.190907  
     567A      3.203597   568A      3.221801   569A      3.226579  
     570A      3.259159   571A      3.278139   572A      3.301980  
     573A      3.351193   574A      3.364762   575A      3.368288  
     576A      3.386374   577A      3.392501   578A      3.401207  
     579A      3.425061   580A      3.429605   581A      3.441334  
     582A      3.459276   583A      3.476283   584A      3.479516  
     585A      3.492963   586A      3.499241   587A      3.515092  
     588A      3.524016   589A      3.525283   590A      3.532425  
     591A      3.549294   592A      3.555130   593A      3.558471  
     594A      3.567192   595A      3.575101   596A      3.583707  
     597A      3.589121   598A      3.616350   599A      3.617931  
     600A      3.623154   601A      3.636211   602A      3.642170  
     603A      3.655350   604A      3.657244   605A      3.664579  
     606A      3.671846   607A      3.679043   608A      3.686798  
     609A      3.694552   610A      3.710782   611A      3.716870  
     612A      3.727373   613A      3.738096   614A      3.746249  
     615A      3.751600   616A      3.769760   617A      3.785838  
     618A      3.789749   619A      3.798540   620A      3.810039  
     621A      3.815805   622A      3.819850   623A      3.824362  
     624A      3.833578   625A      3.834030   626A      3.844870  
     627A      3.851866   628A      3.864557   629A      3.872829  
     630A      3.876508   631A      3.886756   632A      3.896825  
     633A      3.914541   634A      3.917261   635A      3.923566  
     636A      3.933463   637A      3.935977   638A      3.948274  
     639A      3.952366   640A      3.959139   641A      3.967730  
     642A      3.972074   643A      3.977396   644A      3.987287  
     645A      3.994690   646A      3.998121   647A      4.009091  
     648A      4.013399   649A      4.015584   650A      4.022868  
     651A      4.031358   652A      4.038972   653A      4.043596  
     654A      4.051551   655A      4.060270   656A      4.076762  
     657A      4.081208   658A      4.085424   659A      4.085691  
     660A      4.101502   661A      4.108494   662A      4.110151  
     663A      4.114351   664A      4.122700   665A      4.134041  
     666A      4.139537   667A      4.165035   668A      4.170829  
     669A      4.176026   670A      4.179762   671A      4.184469  
     672A      4.189152   673A      4.210111   674A      4.214583  
     675A      4.226984   676A      4.236038   677A      4.242726  
     678A      4.251087   679A      4.260689   680A      4.263981  
     681A      4.266105   682A      4.274332   683A      4.280032  
     684A      4.288155   685A      4.297147   686A      4.301405  
     687A      4.311052   688A      4.319075   689A      4.331563  
     690A      4.336673   691A      4.337217   692A      4.359477  
     693A      4.361154   694A      4.367486   695A      4.372931  
     696A      4.381658   697A      4.396996   698A      4.405559  
     699A      4.417341   700A      4.422609   701A      4.433378  
     702A      4.434830   703A      4.453651   704A      4.455924  
     705A      4.462752   706A      4.476260   707A      4.479681  
     708A      4.484565   709A      4.514711   710A      4.517114  
     711A      4.537325   712A      4.542709   713A      4.544405  
     714A      4.553658   715A      4.559154   716A      4.568108  
     717A      4.585966   718A      4.589646   719A      4.595404  
     720A      4.608435   721A      4.629119   722A      4.633588  
     723A      4.652961   724A      4.666981   725A      4.682143  
     726A      4.688398   727A      4.690596   728A      4.700726  
     729A      4.706572   730A      4.728492   731A      4.740664  
     732A      4.744079   733A      4.757858   734A      4.760173  
     735A      4.778378   736A      4.790195   737A      4.801009  
     738A      4.805915   739A      4.811657   740A      4.826707  
     741A      4.832672   742A      4.851872   743A      4.867050  
     744A      4.878623   745A      4.889466   746A      4.897322  
     747A      4.903206   748A      4.912488   749A      4.929418  
     750A      4.931351   751A      4.941794   752A      4.950677  
     753A      4.956911   754A      4.962119   755A      4.977221  
     756A      4.983011   757A      4.988385   758A      5.003586  
     759A      5.013747   760A      5.023736   761A      5.033015  
     762A      5.047656   763A      5.062882   764A      5.073036  
     765A      5.082490   766A      5.090446   767A      5.103746  
     768A      5.106533   769A      5.117076   770A      5.130865  
     771A      5.136703   772A      5.141227   773A      5.148236  
     774A      5.167716   775A      5.177579   776A      5.187854  
     777A      5.198927   778A      5.205431   779A      5.211045  
     780A      5.218447   781A      5.228956   782A      5.244886  
     783A      5.255324   784A      5.278610   785A      5.289598  
     786A      5.302907   787A      5.311471   788A      5.324089  
     789A      5.333797   790A      5.340017   791A      5.354538  
     792A      5.360720   793A      5.363707   794A      5.379851  
     795A      5.390559   796A      5.418539   797A      5.424446  
     798A      5.427071   799A      5.434869   800A      5.440565  
     801A      5.454013   802A      5.466875   803A      5.492371  
     804A      5.499526   805A      5.509688   806A      5.512308  
     807A      5.523200   808A      5.541324   809A      5.559256  
     810A      5.566545   811A      5.586826   812A      5.589856  
     813A      5.605010   814A      5.613775   815A      5.631520  
     816A      5.644023   817A      5.666642   818A      5.671730  
     819A      5.680825   820A      5.682895   821A      5.697989  
     822A      5.716081   823A      5.734647   824A      5.744576  
     825A      5.746768   826A      5.758892   827A      5.773539  
     828A      5.806638   829A      5.815561   830A      5.839092  
     831A      5.857602   832A      5.866737   833A      5.889460  
     834A      5.898163   835A      5.910214   836A      5.937752  
     837A      5.946093   838A      5.950061   839A      5.960197  
     840A      5.978581   841A      5.997881   842A      6.012944  
     843A      6.034305   844A      6.046890   845A      6.050086  
     846A      6.064956   847A      6.098056   848A      6.120565  
     849A      6.167297   850A      6.177363   851A      6.199309  
     852A      6.214697   853A      6.226291   854A      6.243851  
     855A      6.255069   856A      6.264524   857A      6.290544  
     858A      6.318258   859A      6.328427   860A      6.350023  
     861A      6.360958   862A      6.376238   863A      6.459461  
     864A      6.493779   865A      6.542832   866A      6.593928  
     867A      6.610114   868A      6.665420   869A      6.700309  
     870A      6.744843   871A      6.791192   872A      6.826462  
     873A      6.846715   874A      6.875078   875A      6.882824  
     876A      6.907785   877A      6.944644   878A      6.994094  
     879A      7.045508   880A      7.054817   881A      7.095931  
     882A      7.124858   883A      7.141766   884A      7.240084  
     885A      7.446939   886A     16.150166   887A     16.527669  
     888A     18.008642   889A     18.283905   890A     18.482976  
     891A     18.903455   892A     19.354402   893A     19.745867  
     894A     20.004573   895A     20.120566   896A     20.447411  
     897A     21.842724  

    Final Occupation by Irrep:
              A 
    DOCC [    44 ]

  @DF-RHF Final Energy:  -479.89532641685548

   => Energetics <=

    Nuclear Repulsion Energy =            685.9239324765176207
    One-Electron Energy =               -2010.3250668802131713
    Two-Electron Energy =                 844.5058079868400682
    Total Energy =                       -479.8953264168554824

Computation Completed

*** tstop() called on c419-034.stampede2.tacc.utexas.edu at Sun Feb 28 08:50:52 2021
Module time:
	user time   =    1403.98 seconds =      23.40 minutes
	system time =      67.01 seconds =       1.12 minutes
	total time  =         70 seconds =       1.17 minutes
Total time:
	user time   =    1403.98 seconds =      23.40 minutes
	system time =      67.01 seconds =       1.12 minutes
	total time  =         70 seconds =       1.17 minutes
   => Loading Basis Set <=

    Name: (AUG-CC-PVTZ AUX)
    Role: RIFIT
    Keyword: DF_BASIS_MP2
    atoms 1     entry N          line   206 file /home1/07844/xy3866/miniconda3/envs/p4env/share/psi4/basis/aug-cc-pvtz-ri.gbs 
    atoms 2-12  entry C          line   148 file /home1/07844/xy3866/miniconda3/envs/p4env/share/psi4/basis/aug-cc-pvtz-ri.gbs 
    atoms 13-27 entry H          line    30 file /home1/07844/xy3866/miniconda3/envs/p4env/share/psi4/basis/aug-cc-pvtz-ri.gbs 


*** tstart() called on c419-034.stampede2.tacc.utexas.edu
*** at Sun Feb 28 08:50:54 2021


  //>>>>>>>>>>>>>>>>>>>>>>>>>>>>>>>>>>>//
  //               DFMP2               //
  //<<<<<<<<<<<<<<<<<<<<<<<<<<<<<<<<<<<//

	 --------------------------------------------------------
	                          DF-MP2                         
	      2nd-Order Density-Fitted Moller-Plesset Theory     
	              RMP2 Wavefunction,  32 Threads             
	                                                         
	        Rob Parrish, Justin Turney, Andy Simmonett,      
	           Ed Hohenstein, and C. David Sherrill          
	 --------------------------------------------------------

   => Auxiliary Basis Set <=

  Basis Set: (AUG-CC-PVTZ AUX)
    Blend: AUG-CC-PVTZ-RI
    Number of shells: 546
    Number of basis functions: 1962
    Number of Cartesian functions: 2457
    Spherical Harmonics?: true
    Max angular momentum: 4

	 --------------------------------------------------------
	                 NBF =   897, NAUX =  1962
	 --------------------------------------------------------
	   CLASS    FOCC     OCC    AOCC    AVIR     VIR    FVIR
	   PAIRS       0      44      44     853     853       0
	 --------------------------------------------------------

  DFHelper Memory: AOs need 10.985 GiB; user supplied 22.352 GiB. Using in-core AOs.


         ------------------------------------------------------------
                                     CPHF                           
                                  Rob Parrish                       
         ------------------------------------------------------------

  ==> Geometry <==

    Molecular point group: c1
    Full point group: C1

    Geometry (in Angstrom), charge = 0, multiplicity = 1:

       Center              X                  Y                   Z               Mass       
    ------------   -----------------  -----------------  -----------------  -----------------
         N            0.974852273973     0.882350075982     0.321470289456    14.003074004430
         C           -2.761783726027    -0.124770924018    -0.269755710544    12.000000000000
         C           -0.485257726027    -1.015735924018    -0.012685710544    12.000000000000
         C           -1.436491726027    -0.311710924018    -1.016031710544    12.000000000000
         C           -2.284863726027     0.177212075982     1.151213289456    12.000000000000
         C           -1.167789726027    -0.844468924018     1.376457289456    12.000000000000
         C           -3.668417726027     0.936369075982    -0.877234710544    12.000000000000
         C            0.870550073973    -0.415216024018    -0.040911910544    12.000000000000
         C            2.021141273973    -1.150739924018    -0.428373710544    12.000000000000
         C            3.271423273973    -0.533400924018    -0.439473710544    12.000000000000
         C            2.185125273973     1.464202075982     0.310048289456    12.000000000000
         C            3.358081273973     0.805062075982    -0.061576710544    12.000000000000
         H           -3.296678726027    -1.086594924018    -0.254766710544     1.007825032230
         H           -0.401492726027    -2.081725924018    -0.258831710544     1.007825032230
         H           -1.030000726027     0.676897075982    -1.261820710544     1.007825032230
         H           -1.543630726027    -0.870588924018    -1.952967710544     1.007825032230
         H           -3.084911726027     0.112697075982     1.897987289456     1.007825032230
         H           -1.868966726027     1.191648075982     1.182002289456     1.007825032230
         H           -0.453767726027    -0.530648924018     2.143462289456     1.007825032230
         H           -1.595981726027    -1.802502924018     1.695000289456     1.007825032230
         H           -3.945421726027     0.683170075982    -1.905927710544     1.007825032230
         H           -4.590993726027     1.048629075982    -0.298385710544     1.007825032230
         H           -3.157421726027     1.905102075982    -0.892646710544     1.007825032230
         H            1.916061273973    -2.194858924018    -0.713645710544     1.007825032230
         H            4.159431273973    -1.086955924018    -0.735806710544     1.007825032230
         H            2.209908273973     2.509994075982     0.613754289456     1.007825032230
         H            4.309169273973     1.330036075982    -0.052854710544     1.007825032230

  Nuclear repulsion =  685.923932476517621
  Reference energy  = -479.895326416855482

  ==> Basis Set <==

  Basis Set: AUG-CC-PVTZ
    Blend: AUG-CC-PVTZ
    Number of shells: 303
    Number of basis functions: 897
    Number of Cartesian functions: 1035
    Spherical Harmonics?: true
    Max angular momentum: 3

  ==> CGRSolver (by Rob Parrish) <==

   Number of roots    =         1
   Preconditioning    =    JACOBI
   Convergence cutoff =     1E-06
   Maximum iterations =       100

  ==> CPHFRHamiltonian (by Rob Parrish) <== 

  ==> MemDFJK: Density-Fitted J/K Matrices <==

    J tasked:                   Yes
    K tasked:                   Yes
    wK tasked:                   No
    OpenMP threads:              32
    Memory [MiB]:             22888
    Algorithm:                 Core
    Schwarz Cutoff:           1E-12
    Mask sparsity (%):       8.7362
    Fitting Condition:        1E-10

   => Auxiliary Basis Set <=

  Basis Set: (AUG-CC-PVTZ AUX)
    Blend: AUG-CC-PVTZ-JKFIT
    Number of shells: 570
    Number of basis functions: 1938
    Number of Cartesian functions: 2397
    Spherical Harmonics?: true
    Max angular momentum: 4

  ==> CPHF Iterations <==

  => Iterations <=

             Iter  Converged  Remaining    Residual
  CGR           1          0          1   9.146E-02
  CGR           2          0          1   3.191E-02
  CGR           3          0          1   2.043E-02
  CGR           4          0          1   8.318E-03
  CGR           5          0          1   2.846E-03
  CGR           6          0          1   9.970E-04
  CGR           7          0          1   3.368E-04
  CGR           8          0          1   1.119E-04
  CGR           9          0          1   4.765E-05
  CGR          10          0          1   1.381E-05
  CGR          11          0          1   5.151E-06
  CGR          12          0          1   2.111E-06
  CGR          13          0          1   1.046E-06
  CGR          14          1          0   2.760E-07

    CGRSolver converged.

	-----------------------------------------------------------
	 ==================> DF-MP2 Energies <==================== 
	-----------------------------------------------------------
	 Reference Energy          =    -479.8953264168554824 [Eh]
	 Singles Energy            =      -0.0000000000000000 [Eh]
	 Same-Spin Energy          =      -0.5330658484253619 [Eh]
	 Opposite-Spin Energy      =      -1.7458743538898598 [Eh]
	 Correlation Energy        =      -2.2789402023152219 [Eh]
	 Total Energy              =    -482.1742666191706803 [Eh]
	-----------------------------------------------------------
	 ================> DF-SCS-MP2 Energies <================== 
	-----------------------------------------------------------
	 SCS Same-Spin Scale       =       0.3333333333333333 [-]
	 SCS Opposite-Spin Scale   =       1.2000000000000000 [-]
	 SCS Same-Spin Energy      =      -0.1776886161417873 [Eh]
	 SCS Opposite-Spin Energy  =      -2.0950492246678318 [Eh]
	 SCS Correlation Energy    =      -2.2727378408096190 [Eh]
	 SCS Total Energy          =    -482.1680642576650939 [Eh]
	-----------------------------------------------------------



Properties will be evaluated at  -0.000000,   0.000000,   0.000000 [a0]

Properties computed using the MP2 density matrix

  Nuclear Dipole Moment: [e a0]
     X:   -11.6037      Y:    -0.1860      Z:    -0.7466

  Electronic Dipole Moment: [e a0]
     X:    12.0912      Y:    -0.2437      Z:     0.5534

  Dipole Moment: [e a0]
     X:     0.4875      Y:    -0.4298      Z:    -0.1932     Total:     0.6780

  Dipole Moment: [D]
     X:     1.2390      Y:    -1.0923      Z:    -0.4911     Total:     1.7232


*** tstop() called on c419-034.stampede2.tacc.utexas.edu at Sun Feb 28 08:58:00 2021
Module time:
	user time   =    4701.70 seconds =      78.36 minutes
	system time =      93.15 seconds =       1.55 minutes
	total time  =        426 seconds =       7.10 minutes
Total time:
	user time   =    6107.02 seconds =     101.78 minutes
	system time =     160.18 seconds =       2.67 minutes
	total time  =        498 seconds =       8.30 minutes

    Psi4 stopped on: Sunday, 28 February 2021 08:58AM
    Psi4 wall time for execution: 0:08:19.02

*** Psi4 exiting successfully. Buy a developer a beer!
