
    -----------------------------------------------------------------------
          Psi4: An Open-Source Ab Initio Electronic Structure Package
                               Psi4 1.4a3.dev225 

                         Git: Rev {master} 7105e37 


    D. G. A. Smith, L. A. Burns, A. C. Simmonett, R. M. Parrish,
    M. C. Schieber, R. Galvelis, P. Kraus, H. Kruse, R. Di Remigio,
    A. Alenaizan, A. M. James, S. Lehtola, J. P. Misiewicz, M. Scheurer,
    R. A. Shaw, J. B. Schriber, Y. Xie, Z. L. Glick, D. A. Sirianni,
    J. S. O'Brien, J. M. Waldrop, A. Kumar, E. G. Hohenstein,
    B. P. Pritchard, B. R. Brooks, H. F. Schaefer III, A. Yu. Sokolov,
    K. Patkowski, A. E. DePrince III, U. Bozkaya, R. A. King,
    F. A. Evangelista, J. M. Turney, T. D. Crawford, C. D. Sherrill,
    J. Chem. Phys. 152(18) 184108 (2020). https://doi.org/10.1063/5.0006002

                            Additional Code Authors
    E. T. Seidl, C. L. Janssen, E. F. Valeev, M. L. Leininger,
    J. F. Gonthier, R. M. Richard, H. R. McAlexander, M. Saitow, X. Wang,
    P. Verma, and M. H. Lechner

             Previous Authors, Complete List of Code Contributors,
                       and Citations for Specific Modules
    https://github.com/psi4/psi4/blob/master/codemeta.json
    https://github.com/psi4/psi4/graphs/contributors
    http://psicode.org/psi4manual/master/introduction.html#citing-psifour

    -----------------------------------------------------------------------


    Psi4 started on: Friday, 02 April 2021 05:54PM

    Process ID: 135723
    Host:       c474-084.stampede2.tacc.utexas.edu
    PSIDATADIR: /home1/07844/xy3866/miniconda3/envs/p4env/share/psi4
    Memory:     500.0 MiB
    Threads:    8
    
  ==> Input File <==

--------------------------------------------------------------------------
#psi4
#
memory 32 gb

molecule  {
0 1
  N        1.0430420     0.8835120     0.3262100
  C       -2.6935940    -0.1236090    -0.2650160
  C       -0.4170680    -1.0145740    -0.0079460
  C       -1.3683020    -0.3105490    -1.0112920
  C       -2.2166740     0.1783740     1.1559530
  C       -1.0996000    -0.8433070     1.3811970
  C       -3.6002280     0.9375310    -0.8724950
  C        0.9620280    -0.4146880    -0.0398380
  C        2.0893310    -1.1495780    -0.4236340
  C        3.3396130    -0.5322390    -0.4347340
  C        2.2533150     1.4653640     0.3147880
  C        3.4262710     0.8062240    -0.0568370
  H       -3.2284890    -1.0854330    -0.2500270
  H       -0.3333030    -2.0805640    -0.2540920
  H       -0.9618110     0.6780590    -1.2570810
  H       -1.4754410    -0.8694270    -1.9482280
  H       -3.0167220     0.1138590     1.9027270
  H       -1.8007770     1.1928100     1.1867420
  H       -0.3855780    -0.5294870     2.1482020
  H       -1.5277920    -1.8013410     1.6997400
  H       -3.8772320     0.6843320    -1.9011880
  H       -4.5228040     1.0497910    -0.2936460
  H       -3.0892320     1.9062640    -0.8879070
  H        1.9842510    -2.1936970    -0.7089060
  H        4.2276210    -1.0857940    -0.7310670
  H        2.2780980     2.5111560     0.6184940
  H        4.3598498     1.3215334    -0.0482756
units angstrom
no_reorient  #important for SAPT in psi4, default
symmetry c1  #important for SAPT in psi4, default
}

set PROPERTIES_ORIGIN ["COM"]
properties('MP2/aug-cc-pvtz', properties = ['dipole'])
--------------------------------------------------------------------------

  Memory set to  29.802 GiB by Python driver.
    SCF Algorithm Type (re)set to DF.

*** tstart() called on c474-084.stampede2.tacc.utexas.edu
*** at Fri Apr  2 17:54:46 2021

   => Loading Basis Set <=

    Name: AUG-CC-PVTZ
    Role: ORBITAL
    Keyword: BASIS
    atoms 1     entry N          line   285 file /home1/07844/xy3866/miniconda3/envs/p4env/share/psi4/basis/aug-cc-pvtz.gbs 
    atoms 2-12  entry C          line   239 file /home1/07844/xy3866/miniconda3/envs/p4env/share/psi4/basis/aug-cc-pvtz.gbs 
    atoms 13-27 entry H          line    40 file /home1/07844/xy3866/miniconda3/envs/p4env/share/psi4/basis/aug-cc-pvtz.gbs 


         ---------------------------------------------------------
                                   SCF
               by Justin Turney, Rob Parrish, Andy Simmonett
                          and Daniel G. A. Smith
                              RHF Reference
                        8 Threads,  30517 MiB Core
         ---------------------------------------------------------

  ==> Geometry <==

    Molecular point group: c1
    Full point group: C1

    Geometry (in Angstrom), charge = 0, multiplicity = 1:

       Center              X                  Y                   Z               Mass       
    ------------   -----------------  -----------------  -----------------  -----------------
         N            0.973227326980     0.882457740936     0.321744317097    14.003074004430
         C           -2.763408673020    -0.124663259064    -0.269481682903    12.000000000000
         C           -0.486882673020    -1.015628259064    -0.012411682903    12.000000000000
         C           -1.438116673020    -0.311603259064    -1.015757682903    12.000000000000
         C           -2.286488673020     0.177319740936     1.151487317097    12.000000000000
         C           -1.169414673020    -0.844361259064     1.376731317097    12.000000000000
         C           -3.670042673020     0.936476740936    -0.876960682903    12.000000000000
         C            0.892213326980    -0.415742259064    -0.044303682903    12.000000000000
         C            2.019516326980    -1.150632259064    -0.428099682903    12.000000000000
         C            3.269798326980    -0.533293259064    -0.439199682903    12.000000000000
         C            2.183500326980     1.464309740936     0.310322317097    12.000000000000
         C            3.356456326980     0.805169740936    -0.061302682903    12.000000000000
         H           -3.298303673020    -1.086487259064    -0.254492682903     1.007825032230
         H           -0.403117673020    -2.081618259064    -0.258557682903     1.007825032230
         H           -1.031625673020     0.677004740936    -1.261546682903     1.007825032230
         H           -1.545255673020    -0.870481259064    -1.952693682903     1.007825032230
         H           -3.086536673020     0.112804740936     1.898261317097     1.007825032230
         H           -1.870591673020     1.191755740936     1.182276317097     1.007825032230
         H           -0.455392673020    -0.530541259064     2.143736317097     1.007825032230
         H           -1.597606673020    -1.802395259064     1.695274317097     1.007825032230
         H           -3.947046673020     0.683277740936    -1.905653682903     1.007825032230
         H           -4.592618673020     1.048736740936    -0.298111682903     1.007825032230
         H           -3.159046673020     1.905209740936    -0.892372682903     1.007825032230
         H            1.914436326980    -2.194751259064    -0.713371682903     1.007825032230
         H            4.157806326980    -1.086848259064    -0.735532682903     1.007825032230
         H            2.208283326980     2.510101740936     0.614028317097     1.007825032230
         H            4.290035126980     1.320479140936    -0.052741282903     1.007825032230

  Running in c1 symmetry.

  Rotational constants: A =      0.07574  B =      0.01743  C =      0.01678 [cm^-1]
  Rotational constants: A =   2270.60347  B =    522.54624  C =    502.96278 [MHz]
  Nuclear repulsion =  685.970500898291334

  Charge       = 0
  Multiplicity = 1
  Electrons    = 88
  Nalpha       = 44
  Nbeta        = 44

  ==> Algorithm <==

  SCF Algorithm Type is DF.
  DIIS enabled.
  MOM disabled.
  Fractional occupation disabled.
  Guess Type is SAD.
  Energy threshold   = 1.00e-10
  Density threshold  = 1.00e-10
  Integral threshold = 1.00e-12

  ==> Primary Basis <==

  Basis Set: AUG-CC-PVTZ
    Blend: AUG-CC-PVTZ
    Number of shells: 303
    Number of basis functions: 897
    Number of Cartesian functions: 1035
    Spherical Harmonics?: true
    Max angular momentum: 3

   => Loading Basis Set <=

    Name: (AUG-CC-PVTZ AUX)
    Role: JKFIT
    Keyword: DF_BASIS_SCF
    atoms 1     entry N          line   224 file /home1/07844/xy3866/miniconda3/envs/p4env/share/psi4/basis/aug-cc-pvtz-jkfit.gbs 
    atoms 2-12  entry C          line   162 file /home1/07844/xy3866/miniconda3/envs/p4env/share/psi4/basis/aug-cc-pvtz-jkfit.gbs 
    atoms 13-27 entry H          line    70 file /home1/07844/xy3866/miniconda3/envs/p4env/share/psi4/basis/aug-cc-pvtz-jkfit.gbs 

  ==> Integral Setup <==

  DFHelper Memory: AOs need 10.278 GiB; user supplied 22.352 GiB. Using in-core AOs.

  ==> MemDFJK: Density-Fitted J/K Matrices <==

    J tasked:                   Yes
    K tasked:                   Yes
    wK tasked:                   No
    OpenMP threads:               8
    Memory [MiB]:             22888
    Algorithm:                 Core
    Schwarz Cutoff:           1E-12
    Mask sparsity (%):      13.5818
    Fitting Condition:        1E-10

   => Auxiliary Basis Set <=

  Basis Set: (AUG-CC-PVTZ AUX)
    Blend: AUG-CC-PVTZ-JKFIT
    Number of shells: 570
    Number of basis functions: 1938
    Number of Cartesian functions: 2397
    Spherical Harmonics?: true
    Max angular momentum: 4

  Minimum eigenvalue in the overlap matrix is 6.7933943492E-07.
  Reciprocal condition number of the overlap matrix is 2.7630842303E-08.
    Using symmetric orthogonalization.

  ==> Pre-Iterations <==

  SCF Guess: Superposition of Atomic Densities via on-the-fly atomic UHF (no occupation information).

   -------------------------
    Irrep   Nso     Nmo    
   -------------------------
     A        897     897 
   -------------------------
    Total     897     897
   -------------------------

  ==> Iterations <==

                           Total Energy        Delta E     RMS |[F,P]|

   @DF-RHF iter SAD:  -479.89327012589013   -4.79893e+02   0.00000e+00 
   @DF-RHF iter   1:  -479.47886109192234    4.14409e-01   9.09540e-04 DIIS
   @DF-RHF iter   2:  -479.80256249063387   -3.23701e-01   4.68275e-04 DIIS
   @DF-RHF iter   3:  -479.89025477447382   -8.76923e-02   1.00896e-04 DIIS
   @DF-RHF iter   4:  -479.89589255193823   -5.63778e-03   4.15607e-05 DIIS
   @DF-RHF iter   5:  -479.89668563674900   -7.93085e-04   9.28553e-06 DIIS
   @DF-RHF iter   6:  -479.89673284716724   -4.72104e-05   3.02723e-06 DIIS
   @DF-RHF iter   7:  -479.89673828149876   -5.43433e-06   7.15304e-07 DIIS
   @DF-RHF iter   8:  -479.89673872952233   -4.48024e-07   2.34580e-07 DIIS
   @DF-RHF iter   9:  -479.89673880529074   -7.57684e-08   1.07853e-07 DIIS
   @DF-RHF iter  10:  -479.89673882590068   -2.06099e-08   5.25911e-08 DIIS
   @DF-RHF iter  11:  -479.89673883250066   -6.59998e-09   1.83940e-08 DIIS
   @DF-RHF iter  12:  -479.89673883321223   -7.11566e-10   7.16565e-09 DIIS
   @DF-RHF iter  13:  -479.89673883328521   -7.29869e-11   3.00022e-09 DIIS
   @DF-RHF iter  14:  -479.89673883329448   -9.26548e-12   8.33585e-10 DIIS
   @DF-RHF iter  15:  -479.89673883329539   -9.09495e-13   2.82439e-10 DIIS
   @DF-RHF iter  16:  -479.89673883329539    0.00000e+00   1.25012e-10 DIIS
   @DF-RHF iter  17:  -479.89673883329567   -2.84217e-13   5.18282e-11 DIIS
  Energy and wave function converged.


  ==> Post-Iterations <==

    Orbital Energies [Eh]
    ---------------------

    Doubly Occupied:                                                      

       1A    -15.557862     2A    -11.275255     3A    -11.274186  
       4A    -11.257763     5A    -11.234976     6A    -11.233547  
       7A    -11.226085     8A    -11.214566     9A    -11.211354  
      10A    -11.209667    11A    -11.205217    12A    -11.203673  
      13A     -1.251756    14A     -1.127518    15A     -1.082032  
      16A     -1.046619    17A     -0.991389    18A     -0.954905  
      19A     -0.893940    20A     -0.855136    21A     -0.837429  
      22A     -0.764367    23A     -0.755577    24A     -0.697949  
      25A     -0.668893    26A     -0.641858    27A     -0.640006  
      28A     -0.608050    29A     -0.584911    30A     -0.577700  
      31A     -0.574557    32A     -0.551799    33A     -0.538263  
      34A     -0.527520    35A     -0.512000    36A     -0.473144  
      37A     -0.468898    38A     -0.460998    39A     -0.452668  
      40A     -0.446987    41A     -0.439513    42A     -0.409968  
      43A     -0.376868    44A     -0.332038  

    Virtual:                                                              

      45A      0.024701    46A      0.029984    47A      0.033608  
      48A      0.037974    49A      0.041748    50A      0.043466  
      51A      0.050619    52A      0.055158    53A      0.057457  
      54A      0.059367    55A      0.064839    56A      0.072307  
      57A      0.076615    58A      0.081042    59A      0.084604  
      60A      0.090199    61A      0.096872    62A      0.102766  
      63A      0.104043    64A      0.106853    65A      0.109681  
      66A      0.116558    67A      0.118628    68A      0.121326  
      69A      0.123107    70A      0.125865    71A      0.129881  
      72A      0.132281    73A      0.134166    74A      0.137075  
      75A      0.144325    76A      0.147047    77A      0.150901  
      78A      0.152312    79A      0.156233    80A      0.157069  
      81A      0.159824    82A      0.163054    83A      0.164327  
      84A      0.167737    85A      0.172450    86A      0.176075  
      87A      0.179791    88A      0.184174    89A      0.187880  
      90A      0.189280    91A      0.193158    92A      0.202360  
      93A      0.211896    94A      0.214408    95A      0.220430  
      96A      0.233286    97A      0.237057    98A      0.238600  
      99A      0.246543   100A      0.249894   101A      0.255419  
     102A      0.257859   103A      0.261780   104A      0.262665  
     105A      0.266059   106A      0.269850   107A      0.277143  
     108A      0.281989   109A      0.286978   110A      0.297429  
     111A      0.299611   112A      0.300864   113A      0.305424  
     114A      0.306095   115A      0.312915   116A      0.314224  
     117A      0.317766   118A      0.324059   119A      0.326336  
     120A      0.327635   121A      0.333017   122A      0.335123  
     123A      0.338145   124A      0.342352   125A      0.346411  
     126A      0.353366   127A      0.356907   128A      0.357882  
     129A      0.362061   130A      0.363816   131A      0.372960  
     132A      0.374412   133A      0.380908   134A      0.385399  
     135A      0.387277   136A      0.389533   137A      0.393003  
     138A      0.396471   139A      0.401436   140A      0.407555  
     141A      0.409529   142A      0.417595   143A      0.420118  
     144A      0.423509   145A      0.425571   146A      0.428927  
     147A      0.429657   148A      0.435113   149A      0.437968  
     150A      0.446460   151A      0.447754   152A      0.451639  
     153A      0.457741   154A      0.461344   155A      0.464629  
     156A      0.467249   157A      0.468878   158A      0.472079  
     159A      0.476360   160A      0.481212   161A      0.482308  
     162A      0.485987   163A      0.488509   164A      0.489969  
     165A      0.493053   166A      0.497207   167A      0.500660  
     168A      0.504736   169A      0.509505   170A      0.510484  
     171A      0.513880   172A      0.518107   173A      0.519569  
     174A      0.523692   175A      0.529348   176A      0.531082  
     177A      0.535938   178A      0.540435   179A      0.543922  
     180A      0.546442   181A      0.548691   182A      0.550944  
     183A      0.556181   184A      0.560148   185A      0.566563  
     186A      0.568138   187A      0.571566   188A      0.573328  
     189A      0.575803   190A      0.584742   191A      0.584883  
     192A      0.591934   193A      0.595836   194A      0.598688  
     195A      0.601655   196A      0.603638   197A      0.613191  
     198A      0.617163   199A      0.621548   200A      0.627870  
     201A      0.633879   202A      0.634687   203A      0.638101  
     204A      0.642893   205A      0.646889   206A      0.652588  
     207A      0.657764   208A      0.664126   209A      0.666534  
     210A      0.669879   211A      0.673194   212A      0.677187  
     213A      0.682816   214A      0.687197   215A      0.692518  
     216A      0.694691   217A      0.702223   218A      0.707097  
     219A      0.713426   220A      0.713885   221A      0.716124  
     222A      0.721047   223A      0.726864   224A      0.731695  
     225A      0.744279   226A      0.748717   227A      0.757061  
     228A      0.764273   229A      0.766320   230A      0.770189  
     231A      0.774238   232A      0.782572   233A      0.792733  
     234A      0.796291   235A      0.805526   236A      0.810191  
     237A      0.816083   238A      0.826312   239A      0.827156  
     240A      0.838283   241A      0.838745   242A      0.846187  
     243A      0.848244   244A      0.855152   245A      0.860771  
     246A      0.864537   247A      0.866100   248A      0.879891  
     249A      0.880736   250A      0.885561   251A      0.888732  
     252A      0.890257   253A      0.899871   254A      0.906692  
     255A      0.908411   256A      0.913070   257A      0.916801  
     258A      0.919666   259A      0.923241   260A      0.929332  
     261A      0.934946   262A      0.941438   263A      0.943501  
     264A      0.950287   265A      0.953466   266A      0.954477  
     267A      0.958565   268A      0.963385   269A      0.966999  
     270A      0.968697   271A      0.973446   272A      0.983321  
     273A      0.988927   274A      0.992629   275A      0.997792  
     276A      0.999823   277A      1.005678   278A      1.008343  
     279A      1.015385   280A      1.018828   281A      1.021480  
     282A      1.025999   283A      1.033894   284A      1.036699  
     285A      1.041352   286A      1.043175   287A      1.050054  
     288A      1.054058   289A      1.056951   290A      1.064747  
     291A      1.072284   292A      1.074304   293A      1.083696  
     294A      1.084813   295A      1.087108   296A      1.089650  
     297A      1.094858   298A      1.098297   299A      1.101671  
     300A      1.105071   301A      1.115056   302A      1.120508  
     303A      1.124109   304A      1.131914   305A      1.135742  
     306A      1.138910   307A      1.142349   308A      1.143577  
     309A      1.148416   310A      1.152911   311A      1.158629  
     312A      1.169557   313A      1.171440   314A      1.176586  
     315A      1.179871   316A      1.184786   317A      1.187560  
     318A      1.189842   319A      1.196817   320A      1.198444  
     321A      1.204145   322A      1.209885   323A      1.213907  
     324A      1.215158   325A      1.222388   326A      1.225083  
     327A      1.231018   328A      1.237444   329A      1.240863  
     330A      1.243760   331A      1.248459   332A      1.252980  
     333A      1.255643   334A      1.257593   335A      1.266568  
     336A      1.270668   337A      1.279454   338A      1.284798  
     339A      1.288188   340A      1.294962   341A      1.301127  
     342A      1.303918   343A      1.306684   344A      1.316538  
     345A      1.321510   346A      1.330080   347A      1.339144  
     348A      1.341753   349A      1.354126   350A      1.357492  
     351A      1.364857   352A      1.372540   353A      1.380498  
     354A      1.381815   355A      1.382667   356A      1.390134  
     357A      1.401366   358A      1.407828   359A      1.409254  
     360A      1.419863   361A      1.427609   362A      1.433047  
     363A      1.438619   364A      1.439790   365A      1.444315  
     366A      1.451516   367A      1.456460   368A      1.464964  
     369A      1.471483   370A      1.474575   371A      1.481148  
     372A      1.491181   373A      1.496882   374A      1.506736  
     375A      1.508014   376A      1.514561   377A      1.525933  
     378A      1.531257   379A      1.534673   380A      1.536988  
     381A      1.543060   382A      1.549397   383A      1.559441  
     384A      1.564078   385A      1.571072   386A      1.581044  
     387A      1.595372   388A      1.600535   389A      1.607630  
     390A      1.611807   391A      1.616015   392A      1.621580  
     393A      1.625114   394A      1.635125   395A      1.640637  
     396A      1.650767   397A      1.663155   398A      1.667625  
     399A      1.675574   400A      1.680349   401A      1.685851  
     402A      1.690953   403A      1.696187   404A      1.698900  
     405A      1.713538   406A      1.715027   407A      1.719918  
     408A      1.727187   409A      1.731271   410A      1.734092  
     411A      1.740727   412A      1.745628   413A      1.750907  
     414A      1.756071   415A      1.761585   416A      1.767849  
     417A      1.773091   418A      1.780421   419A      1.785940  
     420A      1.788923   421A      1.800147   422A      1.801698  
     423A      1.806480   424A      1.810239   425A      1.820341  
     426A      1.826578   427A      1.828723   428A      1.839992  
     429A      1.844690   430A      1.848838   431A      1.852164  
     432A      1.858764   433A      1.866430   434A      1.868916  
     435A      1.878973   436A      1.881132   437A      1.888476  
     438A      1.898171   439A      1.901968   440A      1.914869  
     441A      1.915934   442A      1.924134   443A      1.930354  
     444A      1.937143   445A      1.941847   446A      1.947079  
     447A      1.952779   448A      1.954030   449A      1.973515  
     450A      1.978950   451A      1.980604   452A      1.988656  
     453A      1.990656   454A      2.002728   455A      2.004757  
     456A      2.010380   457A      2.020766   458A      2.025199  
     459A      2.033190   460A      2.038312   461A      2.047421  
     462A      2.048161   463A      2.051360   464A      2.058762  
     465A      2.061533   466A      2.067908   467A      2.070219  
     468A      2.075330   469A      2.076950   470A      2.087902  
     471A      2.097137   472A      2.103069   473A      2.109706  
     474A      2.115461   475A      2.122086   476A      2.132063  
     477A      2.136368   478A      2.141715   479A      2.152162  
     480A      2.161519   481A      2.167711   482A      2.171613  
     483A      2.177773   484A      2.192574   485A      2.196342  
     486A      2.215647   487A      2.217719   488A      2.226181  
     489A      2.241290   490A      2.244353   491A      2.253726  
     492A      2.266063   493A      2.268451   494A      2.278449  
     495A      2.281332   496A      2.283232   497A      2.291525  
     498A      2.302454   499A      2.311315   500A      2.313546  
     501A      2.326221   502A      2.332955   503A      2.342443  
     504A      2.343484   505A      2.354941   506A      2.367212  
     507A      2.371126   508A      2.375063   509A      2.383932  
     510A      2.397306   511A      2.400158   512A      2.411413  
     513A      2.414816   514A      2.432514   515A      2.433398  
     516A      2.443623   517A      2.454160   518A      2.462945  
     519A      2.470774   520A      2.490258   521A      2.497181  
     522A      2.504679   523A      2.521002   524A      2.526785  
     525A      2.537788   526A      2.542113   527A      2.552467  
     528A      2.562458   529A      2.575623   530A      2.586964  
     531A      2.587386   532A      2.595107   533A      2.609514  
     534A      2.622661   535A      2.628018   536A      2.635197  
     537A      2.646350   538A      2.660768   539A      2.667986  
     540A      2.678677   541A      2.685254   542A      2.703446  
     543A      2.712285   544A      2.715794   545A      2.726936  
     546A      2.739488   547A      2.749353   548A      2.770387  
     549A      2.790587   550A      2.811309   551A      2.844298  
     552A      2.852669   553A      2.868835   554A      2.885173  
     555A      2.895554   556A      2.928343   557A      2.944541  
     558A      2.980559   559A      3.009009   560A      3.046531  
     561A      3.072641   562A      3.096186   563A      3.107050  
     564A      3.131100   565A      3.168054   566A      3.188035  
     567A      3.205618   568A      3.220957   569A      3.227326  
     570A      3.260297   571A      3.279634   572A      3.301403  
     573A      3.352700   574A      3.361419   575A      3.366639  
     576A      3.385879   577A      3.391152   578A      3.400194  
     579A      3.421545   580A      3.430982   581A      3.440366  
     582A      3.451160   583A      3.475200   584A      3.478186  
     585A      3.493032   586A      3.499695   587A      3.515706  
     588A      3.523975   589A      3.526242   590A      3.532891  
     591A      3.549119   592A      3.557295   593A      3.560860  
     594A      3.568659   595A      3.576961   596A      3.586425  
     597A      3.589178   598A      3.616869   599A      3.618425  
     600A      3.623190   601A      3.636677   602A      3.642548  
     603A      3.655804   604A      3.657049   605A      3.663297  
     606A      3.673087   607A      3.678882   608A      3.688526  
     609A      3.701324   610A      3.710854   611A      3.716870  
     612A      3.727607   613A      3.736441   614A      3.747227  
     615A      3.753613   616A      3.769542   617A      3.785897  
     618A      3.788623   619A      3.797597   620A      3.809652  
     621A      3.816303   622A      3.818767   623A      3.824233  
     624A      3.834125   625A      3.834171   626A      3.845767  
     627A      3.852563   628A      3.865818   629A      3.873891  
     630A      3.878106   631A      3.888798   632A      3.896448  
     633A      3.916201   634A      3.917371   635A      3.923191  
     636A      3.935243   637A      3.936685   638A      3.948618  
     639A      3.953245   640A      3.960338   641A      3.967543  
     642A      3.972688   643A      3.978555   644A      3.987236  
     645A      3.995235   646A      3.998109   647A      4.008945  
     648A      4.012741   649A      4.015835   650A      4.024064  
     651A      4.032314   652A      4.039876   653A      4.044473  
     654A      4.052743   655A      4.063749   656A      4.078855  
     657A      4.081235   658A      4.086842   659A      4.087071  
     660A      4.102326   661A      4.108144   662A      4.111970  
     663A      4.115687   664A      4.122936   665A      4.133883  
     666A      4.139877   667A      4.165622   668A      4.169624  
     669A      4.174809   670A      4.180925   671A      4.184523  
     672A      4.188168   673A      4.210046   674A      4.216690  
     675A      4.226669   676A      4.235501   677A      4.243000  
     678A      4.251183   679A      4.259193   680A      4.264557  
     681A      4.265601   682A      4.275781   683A      4.281940  
     684A      4.289986   685A      4.299318   686A      4.302029  
     687A      4.312767   688A      4.319041   689A      4.332986  
     690A      4.336834   691A      4.338806   692A      4.360676  
     693A      4.362735   694A      4.367415   695A      4.373540  
     696A      4.383190   697A      4.399368   698A      4.405610  
     699A      4.418425   700A      4.423935   701A      4.434679  
     702A      4.437570   703A      4.454934   704A      4.457719  
     705A      4.463733   706A      4.476900   707A      4.478891  
     708A      4.486393   709A      4.513883   710A      4.521744  
     711A      4.536924   712A      4.544915   713A      4.549795  
     714A      4.554276   715A      4.558920   716A      4.569453  
     717A      4.584974   718A      4.590279   719A      4.594702  
     720A      4.610202   721A      4.629697   722A      4.634328  
     723A      4.654114   724A      4.670146   725A      4.680791  
     726A      4.687871   727A      4.691405   728A      4.700967  
     729A      4.706412   730A      4.730853   731A      4.741577  
     732A      4.745250   733A      4.760156   734A      4.762414  
     735A      4.781911   736A      4.791901   737A      4.801483  
     738A      4.807002   739A      4.812234   740A      4.828630  
     741A      4.836373   742A      4.850053   743A      4.865113  
     744A      4.884783   745A      4.890920   746A      4.900341  
     747A      4.901972   748A      4.913201   749A      4.929379  
     750A      4.931242   751A      4.945333   752A      4.955738  
     753A      4.961954   754A      4.967019   755A      4.979308  
     756A      4.986800   757A      4.990118   758A      5.008552  
     759A      5.016667   760A      5.026490   761A      5.035157  
     762A      5.051588   763A      5.068003   764A      5.073648  
     765A      5.085190   766A      5.093403   767A      5.108321  
     768A      5.112371   769A      5.121644   770A      5.132586  
     771A      5.142600   772A      5.144605   773A      5.150853  
     774A      5.170488   775A      5.177787   776A      5.188841  
     777A      5.199638   778A      5.207211   779A      5.210553  
     780A      5.225834   781A      5.233286   782A      5.245835  
     783A      5.253779   784A      5.281117   785A      5.291135  
     786A      5.306748   787A      5.311968   788A      5.324886  
     789A      5.332909   790A      5.339639   791A      5.354199  
     792A      5.359380   793A      5.365069   794A      5.381808  
     795A      5.396862   796A      5.418818   797A      5.425426  
     798A      5.427544   799A      5.436204   800A      5.440908  
     801A      5.458886   802A      5.468215   803A      5.492382  
     804A      5.501462   805A      5.512472   806A      5.517176  
     807A      5.528019   808A      5.543816   809A      5.561163  
     810A      5.569749   811A      5.590571   812A      5.591614  
     813A      5.605993   814A      5.615810   815A      5.633641  
     816A      5.644889   817A      5.669414   818A      5.676502  
     819A      5.681542   820A      5.686743   821A      5.706002  
     822A      5.723185   823A      5.735745   824A      5.751251  
     825A      5.756261   826A      5.761620   827A      5.780149  
     828A      5.808074   829A      5.821158   830A      5.842266  
     831A      5.859913   832A      5.867746   833A      5.890896  
     834A      5.900152   835A      5.908250   836A      5.938698  
     837A      5.945288   838A      5.948860   839A      5.961995  
     840A      5.981278   841A      5.997869   842A      6.010860  
     843A      6.034068   844A      6.045528   845A      6.058992  
     846A      6.067414   847A      6.095977   848A      6.121517  
     849A      6.166924   850A      6.177012   851A      6.201322  
     852A      6.214693   853A      6.225891   854A      6.251685  
     855A      6.253715   856A      6.262015   857A      6.296909  
     858A      6.319550   859A      6.343364   860A      6.348075  
     861A      6.361393   862A      6.377528   863A      6.460137  
     864A      6.494350   865A      6.550117   866A      6.592494  
     867A      6.626637   868A      6.676156   869A      6.699312  
     870A      6.745760   871A      6.786985   872A      6.826014  
     873A      6.846238   874A      6.875545   875A      6.885353  
     876A      6.907961   877A      6.944831   878A      6.987169  
     879A      7.047281   880A      7.056897   881A      7.098179  
     882A      7.127943   883A      7.142170   884A      7.243985  
     885A      7.457525   886A     16.201889   887A     16.647214  
     888A     18.002410   889A     18.348480   890A     18.488378  
     891A     18.932305   892A     19.344700   893A     19.803368  
     894A     20.018851   895A     20.133173   896A     20.486401  
     897A     21.774981  

    Final Occupation by Irrep:
              A 
    DOCC [    44 ]

  @DF-RHF Final Energy:  -479.89673883329567

   => Energetics <=

    Nuclear Repulsion Energy =            685.9705008982913341
    One-Electron Energy =               -2010.4356642087263936
    Two-Electron Energy =                 844.5684244771392741
    Total Energy =                       -479.8967388332956716

Computation Completed

*** tstop() called on c474-084.stampede2.tacc.utexas.edu at Fri Apr  2 17:57:08 2021
Module time:
	user time   =     925.57 seconds =      15.43 minutes
	system time =      18.69 seconds =       0.31 minutes
	total time  =        142 seconds =       2.37 minutes
Total time:
	user time   =     925.57 seconds =      15.43 minutes
	system time =      18.69 seconds =       0.31 minutes
	total time  =        142 seconds =       2.37 minutes
   => Loading Basis Set <=

    Name: (AUG-CC-PVTZ AUX)
    Role: RIFIT
    Keyword: DF_BASIS_MP2
    atoms 1     entry N          line   206 file /home1/07844/xy3866/miniconda3/envs/p4env/share/psi4/basis/aug-cc-pvtz-ri.gbs 
    atoms 2-12  entry C          line   148 file /home1/07844/xy3866/miniconda3/envs/p4env/share/psi4/basis/aug-cc-pvtz-ri.gbs 
    atoms 13-27 entry H          line    30 file /home1/07844/xy3866/miniconda3/envs/p4env/share/psi4/basis/aug-cc-pvtz-ri.gbs 


*** tstart() called on c474-084.stampede2.tacc.utexas.edu
*** at Fri Apr  2 17:57:09 2021


  //>>>>>>>>>>>>>>>>>>>>>>>>>>>>>>>>>>>//
  //               DFMP2               //
  //<<<<<<<<<<<<<<<<<<<<<<<<<<<<<<<<<<<//

	 --------------------------------------------------------
	                          DF-MP2                         
	      2nd-Order Density-Fitted Moller-Plesset Theory     
	              RMP2 Wavefunction,   8 Threads             
	                                                         
	        Rob Parrish, Justin Turney, Andy Simmonett,      
	           Ed Hohenstein, and C. David Sherrill          
	 --------------------------------------------------------

   => Auxiliary Basis Set <=

  Basis Set: (AUG-CC-PVTZ AUX)
    Blend: AUG-CC-PVTZ-RI
    Number of shells: 546
    Number of basis functions: 1962
    Number of Cartesian functions: 2457
    Spherical Harmonics?: true
    Max angular momentum: 4

	 --------------------------------------------------------
	                 NBF =   897, NAUX =  1962
	 --------------------------------------------------------
	   CLASS    FOCC     OCC    AOCC    AVIR     VIR    FVIR
	   PAIRS       0      44      44     853     853       0
	 --------------------------------------------------------

  DFHelper Memory: AOs need 10.841 GiB; user supplied 22.352 GiB. Using in-core AOs.


         ------------------------------------------------------------
                                     CPHF                           
                                  Rob Parrish                       
         ------------------------------------------------------------

  ==> Geometry <==

    Molecular point group: c1
    Full point group: C1

    Geometry (in Angstrom), charge = 0, multiplicity = 1:

       Center              X                  Y                   Z               Mass       
    ------------   -----------------  -----------------  -----------------  -----------------
         N            0.973227326980     0.882457740936     0.321744317097    14.003074004430
         C           -2.763408673020    -0.124663259064    -0.269481682903    12.000000000000
         C           -0.486882673020    -1.015628259064    -0.012411682903    12.000000000000
         C           -1.438116673020    -0.311603259064    -1.015757682903    12.000000000000
         C           -2.286488673020     0.177319740936     1.151487317097    12.000000000000
         C           -1.169414673020    -0.844361259064     1.376731317097    12.000000000000
         C           -3.670042673020     0.936476740936    -0.876960682903    12.000000000000
         C            0.892213326980    -0.415742259064    -0.044303682903    12.000000000000
         C            2.019516326980    -1.150632259064    -0.428099682903    12.000000000000
         C            3.269798326980    -0.533293259064    -0.439199682903    12.000000000000
         C            2.183500326980     1.464309740936     0.310322317097    12.000000000000
         C            3.356456326980     0.805169740936    -0.061302682903    12.000000000000
         H           -3.298303673020    -1.086487259064    -0.254492682903     1.007825032230
         H           -0.403117673020    -2.081618259064    -0.258557682903     1.007825032230
         H           -1.031625673020     0.677004740936    -1.261546682903     1.007825032230
         H           -1.545255673020    -0.870481259064    -1.952693682903     1.007825032230
         H           -3.086536673020     0.112804740936     1.898261317097     1.007825032230
         H           -1.870591673020     1.191755740936     1.182276317097     1.007825032230
         H           -0.455392673020    -0.530541259064     2.143736317097     1.007825032230
         H           -1.597606673020    -1.802395259064     1.695274317097     1.007825032230
         H           -3.947046673020     0.683277740936    -1.905653682903     1.007825032230
         H           -4.592618673020     1.048736740936    -0.298111682903     1.007825032230
         H           -3.159046673020     1.905209740936    -0.892372682903     1.007825032230
         H            1.914436326980    -2.194751259064    -0.713371682903     1.007825032230
         H            4.157806326980    -1.086848259064    -0.735532682903     1.007825032230
         H            2.208283326980     2.510101740936     0.614028317097     1.007825032230
         H            4.290035126980     1.320479140936    -0.052741282903     1.007825032230

  Nuclear repulsion =  685.970500898291448
  Reference energy  = -479.896738833295672

  ==> Basis Set <==

  Basis Set: AUG-CC-PVTZ
    Blend: AUG-CC-PVTZ
    Number of shells: 303
    Number of basis functions: 897
    Number of Cartesian functions: 1035
    Spherical Harmonics?: true
    Max angular momentum: 3

  ==> CGRSolver (by Rob Parrish) <==

   Number of roots    =         1
   Preconditioning    =    JACOBI
   Convergence cutoff =     1E-06
   Maximum iterations =       100

  ==> CPHFRHamiltonian (by Rob Parrish) <== 

  ==> MemDFJK: Density-Fitted J/K Matrices <==

    J tasked:                   Yes
    K tasked:                   Yes
    wK tasked:                   No
    OpenMP threads:               8
    Memory [MiB]:             22888
    Algorithm:                 Core
    Schwarz Cutoff:           1E-12
    Mask sparsity (%):       8.7344
    Fitting Condition:        1E-10

   => Auxiliary Basis Set <=

  Basis Set: (AUG-CC-PVTZ AUX)
    Blend: AUG-CC-PVTZ-JKFIT
    Number of shells: 570
    Number of basis functions: 1938
    Number of Cartesian functions: 2397
    Spherical Harmonics?: true
    Max angular momentum: 4

  ==> CPHF Iterations <==

  => Iterations <=

             Iter  Converged  Remaining    Residual
  CGR           1          0          1   9.139E-02
  CGR           2          0          1   3.189E-02
  CGR           3          0          1   2.011E-02
  CGR           4          0          1   8.065E-03
  CGR           5          0          1   2.739E-03
  CGR           6          0          1   9.651E-04
  CGR           7          0          1   3.291E-04
  CGR           8          0          1   1.103E-04
  CGR           9          0          1   4.824E-05
  CGR          10          0          1   1.563E-05
  CGR          11          0          1   7.122E-06
  CGR          12          0          1   3.001E-06
  CGR          13          0          1   1.173E-06
  CGR          14          1          0   2.707E-07

    CGRSolver converged.

	-----------------------------------------------------------
	 ==================> DF-MP2 Energies <==================== 
	-----------------------------------------------------------
	 Reference Energy          =    -479.8967388332956716 [Eh]
	 Singles Energy            =      -0.0000000000000000 [Eh]
	 Same-Spin Energy          =      -0.5327526351761029 [Eh]
	 Opposite-Spin Energy      =      -1.7454062291334864 [Eh]
	 Correlation Energy        =      -2.2781588643095896 [Eh]
	 Total Energy              =    -482.1748976976052745 [Eh]
	-----------------------------------------------------------
	 ================> DF-SCS-MP2 Energies <================== 
	-----------------------------------------------------------
	 SCS Same-Spin Scale       =       0.3333333333333333 [-]
	 SCS Opposite-Spin Scale   =       1.2000000000000000 [-]
	 SCS Same-Spin Energy      =      -0.1775842117253676 [Eh]
	 SCS Opposite-Spin Energy  =      -2.0944874749601836 [Eh]
	 SCS Correlation Energy    =      -2.2720716866855510 [Eh]
	 SCS Total Energy          =    -482.1688105199812071 [Eh]
	-----------------------------------------------------------



Properties will be evaluated at  -0.000000,   0.000000,  -0.000000 [a0]

Properties computed using the MP2 density matrix

  Nuclear Dipole Moment: [e a0]
     X:   -11.6430      Y:    -0.1936      Z:    -0.7429

  Electronic Dipole Moment: [e a0]
     X:    12.1690      Y:    -0.2262      Z:     0.5483

  Dipole Moment: [e a0]
     X:     0.5260      Y:    -0.4198      Z:    -0.1946     Total:     0.7006

  Dipole Moment: [D]
     X:     1.3370      Y:    -1.0671      Z:    -0.4947     Total:     1.7807


*** tstop() called on c474-084.stampede2.tacc.utexas.edu at Fri Apr  2 18:07:17 2021
Module time:
	user time   =    3910.47 seconds =      65.17 minutes
	system time =      52.42 seconds =       0.87 minutes
	total time  =        608 seconds =      10.13 minutes
Total time:
	user time   =    4837.35 seconds =      80.62 minutes
	system time =      71.14 seconds =       1.19 minutes
	total time  =        751 seconds =      12.52 minutes

    Psi4 stopped on: Friday, 02 April 2021 06:07PM
    Psi4 wall time for execution: 0:12:32.85

*** Psi4 exiting successfully. Buy a developer a beer!
