
    -----------------------------------------------------------------------
          Psi4: An Open-Source Ab Initio Electronic Structure Package
                               Psi4 1.4a3.dev225 

                         Git: Rev {master} 7105e37 


    D. G. A. Smith, L. A. Burns, A. C. Simmonett, R. M. Parrish,
    M. C. Schieber, R. Galvelis, P. Kraus, H. Kruse, R. Di Remigio,
    A. Alenaizan, A. M. James, S. Lehtola, J. P. Misiewicz, M. Scheurer,
    R. A. Shaw, J. B. Schriber, Y. Xie, Z. L. Glick, D. A. Sirianni,
    J. S. O'Brien, J. M. Waldrop, A. Kumar, E. G. Hohenstein,
    B. P. Pritchard, B. R. Brooks, H. F. Schaefer III, A. Yu. Sokolov,
    K. Patkowski, A. E. DePrince III, U. Bozkaya, R. A. King,
    F. A. Evangelista, J. M. Turney, T. D. Crawford, C. D. Sherrill,
    J. Chem. Phys. 152(18) 184108 (2020). https://doi.org/10.1063/5.0006002

                            Additional Code Authors
    E. T. Seidl, C. L. Janssen, E. F. Valeev, M. L. Leininger,
    J. F. Gonthier, R. M. Richard, H. R. McAlexander, M. Saitow, X. Wang,
    P. Verma, and M. H. Lechner

             Previous Authors, Complete List of Code Contributors,
                       and Citations for Specific Modules
    https://github.com/psi4/psi4/blob/master/codemeta.json
    https://github.com/psi4/psi4/graphs/contributors
    http://psicode.org/psi4manual/master/introduction.html#citing-psifour

    -----------------------------------------------------------------------


    Psi4 started on: Saturday, 27 February 2021 11:17PM

    Process ID: 154334
    Host:       c419-034.stampede2.tacc.utexas.edu
    PSIDATADIR: /home1/07844/xy3866/miniconda3/envs/p4env/share/psi4
    Memory:     500.0 MiB
    Threads:    32
    
  ==> Input File <==

--------------------------------------------------------------------------
#psi4
#
memory 32 gb

molecule  {
0 1
  N        1.0430420     0.8835120     0.3262100
  C       -2.6935940    -0.1236090    -0.2650160
  C       -0.4358104    -0.9683213     0.0083717
  C       -1.3683020    -0.3105490    -1.0112920
  C       -2.2166740     0.1783740     1.1559530
  C       -1.0996000    -0.8433070     1.3811970
  C       -3.6002280     0.9375310    -0.8724950
  C        0.9620280    -0.4146880    -0.0398380
  C        2.0893310    -1.1495780    -0.4236340
  C        3.3396130    -0.5322390    -0.4347340
  C        2.2533150     1.4653640     0.3147880
  C        3.4262710     0.8062240    -0.0568370
  H       -3.2284890    -1.0854330    -0.2500270
  H       -0.3333030    -2.0805640    -0.2540920
  H       -0.9618110     0.6780590    -1.2570810
  H       -1.4754410    -0.8694270    -1.9482280
  H       -3.0167220     0.1138590     1.9027270
  H       -1.8007770     1.1928100     1.1867420
  H       -0.3855780    -0.5294870     2.1482020
  H       -1.5277920    -1.8013410     1.6997400
  H       -3.8772320     0.6843320    -1.9011880
  H       -4.5228040     1.0497910    -0.2936460
  H       -3.0892320     1.9062640    -0.8879070
  H        1.9842510    -2.1936970    -0.7089060
  H        4.2276210    -1.0857940    -0.7310670
  H        2.2780980     2.5111560     0.6184940
  H        4.3773590     1.3311980    -0.0481150
units angstrom
no_reorient  #important for SAPT in psi4, default
symmetry c1  #important for SAPT in psi4, default
}

set PROPERTIES_ORIGIN ["COM"]
properties('MP2/aug-cc-pvtz', properties = ['dipole'])
--------------------------------------------------------------------------

  Memory set to  29.802 GiB by Python driver.
    SCF Algorithm Type (re)set to DF.

*** tstart() called on c419-034.stampede2.tacc.utexas.edu
*** at Sat Feb 27 23:18:03 2021

   => Loading Basis Set <=

    Name: AUG-CC-PVTZ
    Role: ORBITAL
    Keyword: BASIS
    atoms 1     entry N          line   285 file /home1/07844/xy3866/miniconda3/envs/p4env/share/psi4/basis/aug-cc-pvtz.gbs 
    atoms 2-12  entry C          line   239 file /home1/07844/xy3866/miniconda3/envs/p4env/share/psi4/basis/aug-cc-pvtz.gbs 
    atoms 13-27 entry H          line    40 file /home1/07844/xy3866/miniconda3/envs/p4env/share/psi4/basis/aug-cc-pvtz.gbs 


         ---------------------------------------------------------
                                   SCF
               by Justin Turney, Rob Parrish, Andy Simmonett
                          and Daniel G. A. Smith
                              RHF Reference
                       32 Threads,  30517 MiB Core
         ---------------------------------------------------------

  ==> Geometry <==

    Molecular point group: c1
    Full point group: C1

    Geometry (in Angstrom), charge = 0, multiplicity = 1:

       Center              X                  Y                   Z               Mass       
    ------------   -----------------  -----------------  -----------------  -----------------
         N            0.974513709873     0.878952458847     0.320527995660    14.003074004430
         C           -2.762122290127    -0.128168541153    -0.270698004340    12.000000000000
         C           -0.504338690127    -0.972880841153     0.002689695660    12.000000000000
         C           -1.436830290127    -0.315108541153    -1.016974004340    12.000000000000
         C           -2.285202290127     0.173814458847     1.150270995660    12.000000000000
         C           -1.168128290127    -0.847866541153     1.375514995660    12.000000000000
         C           -3.668756290127     0.932971458847    -0.878177004340    12.000000000000
         C            0.893499709873    -0.419247541153    -0.045520004340    12.000000000000
         C            2.020802709873    -1.154137541153    -0.429316004340    12.000000000000
         C            3.271084709873    -0.536798541153    -0.440416004340    12.000000000000
         C            2.184786709873     1.460804458847     0.309105995660    12.000000000000
         C            3.357742709873     0.801664458847    -0.062519004340    12.000000000000
         H           -3.297017290127    -1.089992541153    -0.255709004340     1.007825032230
         H           -0.401831290127    -2.085123541153    -0.259774004340     1.007825032230
         H           -1.030339290127     0.673499458847    -1.262763004340     1.007825032230
         H           -1.543969290127    -0.873986541153    -1.953910004340     1.007825032230
         H           -3.085250290127     0.109299458847     1.897044995660     1.007825032230
         H           -1.869305290127     1.188250458847     1.181059995660     1.007825032230
         H           -0.454106290127    -0.534046541153     2.142519995660     1.007825032230
         H           -1.596320290127    -1.805900541153     1.694057995660     1.007825032230
         H           -3.945760290127     0.679772458847    -1.906870004340     1.007825032230
         H           -4.591332290127     1.045231458847    -0.299328004340     1.007825032230
         H           -3.157760290127     1.901704458847    -0.893589004340     1.007825032230
         H            1.915722709873    -2.198256541153    -0.714588004340     1.007825032230
         H            4.159092709873    -1.090353541153    -0.736749004340     1.007825032230
         H            2.209569709873     2.506596458847     0.612811995660     1.007825032230
         H            4.308830709873     1.326638458847    -0.053797004340     1.007825032230

  Running in c1 symmetry.

  Rotational constants: A =      0.07611  B =      0.01742  C =      0.01679 [cm^-1]
  Rotational constants: A =   2281.67915  B =    522.34317  C =    503.31637 [MHz]
  Nuclear repulsion =  686.537447617054568

  Charge       = 0
  Multiplicity = 1
  Electrons    = 88
  Nalpha       = 44
  Nbeta        = 44

  ==> Algorithm <==

  SCF Algorithm Type is DF.
  DIIS enabled.
  MOM disabled.
  Fractional occupation disabled.
  Guess Type is SAD.
  Energy threshold   = 1.00e-10
  Density threshold  = 1.00e-10
  Integral threshold = 1.00e-12

  ==> Primary Basis <==

  Basis Set: AUG-CC-PVTZ
    Blend: AUG-CC-PVTZ
    Number of shells: 303
    Number of basis functions: 897
    Number of Cartesian functions: 1035
    Spherical Harmonics?: true
    Max angular momentum: 3

   => Loading Basis Set <=

    Name: (AUG-CC-PVTZ AUX)
    Role: JKFIT
    Keyword: DF_BASIS_SCF
    atoms 1     entry N          line   224 file /home1/07844/xy3866/miniconda3/envs/p4env/share/psi4/basis/aug-cc-pvtz-jkfit.gbs 
    atoms 2-12  entry C          line   162 file /home1/07844/xy3866/miniconda3/envs/p4env/share/psi4/basis/aug-cc-pvtz-jkfit.gbs 
    atoms 13-27 entry H          line    70 file /home1/07844/xy3866/miniconda3/envs/p4env/share/psi4/basis/aug-cc-pvtz-jkfit.gbs 

  ==> Integral Setup <==

  DFHelper Memory: AOs need 10.421 GiB; user supplied 22.352 GiB. Using in-core AOs.

  ==> MemDFJK: Density-Fitted J/K Matrices <==

    J tasked:                   Yes
    K tasked:                   Yes
    wK tasked:                   No
    OpenMP threads:              32
    Memory [MiB]:             22888
    Algorithm:                 Core
    Schwarz Cutoff:           1E-12
    Mask sparsity (%):      13.5850
    Fitting Condition:        1E-10

   => Auxiliary Basis Set <=

  Basis Set: (AUG-CC-PVTZ AUX)
    Blend: AUG-CC-PVTZ-JKFIT
    Number of shells: 570
    Number of basis functions: 1938
    Number of Cartesian functions: 2397
    Spherical Harmonics?: true
    Max angular momentum: 4

  Minimum eigenvalue in the overlap matrix is 6.6828786623E-07.
  Reciprocal condition number of the overlap matrix is 2.7164095898E-08.
    Using symmetric orthogonalization.

  ==> Pre-Iterations <==

  SCF Guess: Superposition of Atomic Densities via on-the-fly atomic UHF (no occupation information).

   -------------------------
    Irrep   Nso     Nmo    
   -------------------------
     A        897     897 
   -------------------------
    Total     897     897
   -------------------------

  ==> Iterations <==

                           Total Energy        Delta E     RMS |[F,P]|

   @DF-RHF iter SAD:  -479.93899964338380   -4.79939e+02   0.00000e+00 
   @DF-RHF iter   1:  -479.46815934004030    4.70840e-01   9.17229e-04 DIIS
   @DF-RHF iter   2:  -479.79381477686547   -3.25655e-01   4.81091e-04 DIIS
   @DF-RHF iter   3:  -479.88610260983131   -9.22878e-02   1.03095e-04 DIIS
   @DF-RHF iter   4:  -479.89190961971872   -5.80701e-03   4.33103e-05 DIIS
   @DF-RHF iter   5:  -479.89276938857648   -8.59769e-04   9.38344e-06 DIIS
   @DF-RHF iter   6:  -479.89281777730787   -4.83887e-05   3.07836e-06 DIIS
   @DF-RHF iter   7:  -479.89282338546809   -5.60816e-06   7.34252e-07 DIIS
   @DF-RHF iter   8:  -479.89282385281894   -4.67351e-07   2.42001e-07 DIIS
   @DF-RHF iter   9:  -479.89282393462793   -8.18090e-08   1.13203e-07 DIIS
   @DF-RHF iter  10:  -479.89282395765883   -2.30309e-08   5.49265e-08 DIIS
   @DF-RHF iter  11:  -479.89282396492621   -7.26737e-09   1.94309e-08 DIIS
   @DF-RHF iter  12:  -479.89282396567785   -7.51641e-10   7.64518e-09 DIIS
   @DF-RHF iter  13:  -479.89282396575862   -8.07745e-11   3.14247e-09 DIIS
   @DF-RHF iter  14:  -479.89282396577204   -1.34150e-11   8.48515e-10 DIIS
   @DF-RHF iter  15:  -479.89282396577204    0.00000e+00   2.82456e-10 DIIS
   @DF-RHF iter  16:  -479.89282396577016    1.87583e-12   1.25487e-10 DIIS
   @DF-RHF iter  17:  -479.89282396577090   -7.38964e-13   5.07130e-11 DIIS
  Energy and wave function converged.


  ==> Post-Iterations <==

    Orbital Energies [Eh]
    ---------------------

    Doubly Occupied:                                                      

       1A    -15.557883     2A    -11.275270     3A    -11.274169  
       4A    -11.258480     5A    -11.236447     6A    -11.236295  
       7A    -11.228111     8A    -11.214579     9A    -11.210286  
      10A    -11.208623    11A    -11.205175    12A    -11.203667  
      13A     -1.252512    14A     -1.131674    15A     -1.082368  
      16A     -1.046019    17A     -0.993114    18A     -0.956032  
      19A     -0.894142    20A     -0.855306    21A     -0.837725  
      22A     -0.763026    23A     -0.754725    24A     -0.695507  
      25A     -0.669508    26A     -0.643270    27A     -0.639297  
      28A     -0.609265    29A     -0.584124    30A     -0.577166  
      31A     -0.573067    32A     -0.551912    33A     -0.538112  
      34A     -0.527183    35A     -0.510928    36A     -0.479064  
      37A     -0.472807    38A     -0.460892    39A     -0.447595  
      40A     -0.443110    41A     -0.437632    42A     -0.411164  
      43A     -0.377317    44A     -0.333582  

    Virtual:                                                              

      45A      0.024757    46A      0.030048    47A      0.033610  
      48A      0.037902    49A      0.041782    50A      0.043472  
      51A      0.050631    52A      0.055151    53A      0.057473  
      54A      0.059320    55A      0.064988    56A      0.072250  
      57A      0.076645    58A      0.081119    59A      0.084598  
      60A      0.090078    61A      0.096793    62A      0.102668  
      63A      0.104031    64A      0.106844    65A      0.109549  
      66A      0.116411    67A      0.118517    68A      0.121240  
      69A      0.122899    70A      0.125811    71A      0.129755  
      72A      0.132364    73A      0.133964    74A      0.137165  
      75A      0.144056    76A      0.147123    77A      0.150839  
      78A      0.152260    79A      0.156249    80A      0.157049  
      81A      0.159710    82A      0.162947    83A      0.164258  
      84A      0.167792    85A      0.172605    86A      0.176172  
      87A      0.179680    88A      0.184198    89A      0.187668  
      90A      0.189143    91A      0.193171    92A      0.202276  
      93A      0.211552    94A      0.214427    95A      0.220750  
      96A      0.233063    97A      0.236988    98A      0.238791  
      99A      0.245653   100A      0.249809   101A      0.255589  
     102A      0.257807   103A      0.261468   104A      0.262518  
     105A      0.265898   106A      0.270168   107A      0.277351  
     108A      0.281769   109A      0.286708   110A      0.297098  
     111A      0.299706   112A      0.301159   113A      0.305412  
     114A      0.306378   115A      0.312620   116A      0.314142  
     117A      0.317726   118A      0.323894   119A      0.325456  
     120A      0.327295   121A      0.332904   122A      0.334747  
     123A      0.338003   124A      0.341956   125A      0.346717  
     126A      0.353159   127A      0.356375   128A      0.357610  
     129A      0.362288   130A      0.363591   131A      0.372749  
     132A      0.374521   133A      0.380636   134A      0.384958  
     135A      0.387349   136A      0.389748   137A      0.393493  
     138A      0.396438   139A      0.401155   140A      0.406801  
     141A      0.409760   142A      0.417081   143A      0.419647  
     144A      0.423198   145A      0.425438   146A      0.428193  
     147A      0.428787   148A      0.435209   149A      0.437878  
     150A      0.446278   151A      0.448428   152A      0.451331  
     153A      0.457929   154A      0.460418   155A      0.465004  
     156A      0.466566   157A      0.469264   158A      0.472599  
     159A      0.477146   160A      0.480980   161A      0.482497  
     162A      0.486479   163A      0.488290   164A      0.490204  
     165A      0.493165   166A      0.496892   167A      0.500245  
     168A      0.504672   169A      0.508684   170A      0.510613  
     171A      0.513155   172A      0.517529   173A      0.520309  
     174A      0.523158   175A      0.528969   176A      0.531157  
     177A      0.535075   178A      0.540178   179A      0.544181  
     180A      0.546756   181A      0.548425   182A      0.551436  
     183A      0.556865   184A      0.560491   185A      0.566943  
     186A      0.568187   187A      0.570888   188A      0.573434  
     189A      0.575782   190A      0.584958   191A      0.586345  
     192A      0.593482   193A      0.596734   194A      0.598668  
     195A      0.602928   196A      0.604277   197A      0.612825  
     198A      0.617745   199A      0.621056   200A      0.628779  
     201A      0.634153   202A      0.634491   203A      0.637537  
     204A      0.642879   205A      0.646457   206A      0.652307  
     207A      0.658210   208A      0.662880   209A      0.665913  
     210A      0.669982   211A      0.673508   212A      0.677728  
     213A      0.682578   214A      0.687638   215A      0.692588  
     216A      0.694805   217A      0.702580   218A      0.707280  
     219A      0.713179   220A      0.715573   221A      0.716191  
     222A      0.721876   223A      0.727070   224A      0.733386  
     225A      0.744170   226A      0.750096   227A      0.758084  
     228A      0.763727   229A      0.766592   230A      0.770678  
     231A      0.773854   232A      0.782063   233A      0.792611  
     234A      0.796897   235A      0.805475   236A      0.810845  
     237A      0.814315   238A      0.825602   239A      0.826655  
     240A      0.837961   241A      0.838731   242A      0.847018  
     243A      0.847697   244A      0.854489   245A      0.860317  
     246A      0.864150   247A      0.867243   248A      0.880227  
     249A      0.880382   250A      0.885364   251A      0.889528  
     252A      0.889931   253A      0.899932   254A      0.905692  
     255A      0.908209   256A      0.912807   257A      0.916537  
     258A      0.919575   259A      0.922786   260A      0.929062  
     261A      0.934661   262A      0.942173   263A      0.943119  
     264A      0.950300   265A      0.952956   266A      0.954500  
     267A      0.957866   268A      0.962899   269A      0.966930  
     270A      0.968215   271A      0.972983   272A      0.982340  
     273A      0.989167   274A      0.993967   275A      0.997936  
     276A      1.000620   277A      1.004754   278A      1.008415  
     279A      1.015015   280A      1.019385   281A      1.021145  
     282A      1.025871   283A      1.034318   284A      1.037843  
     285A      1.040971   286A      1.042427   287A      1.050396  
     288A      1.052319   289A      1.056921   290A      1.063937  
     291A      1.072826   292A      1.076250   293A      1.083858  
     294A      1.085057   295A      1.087990   296A      1.091138  
     297A      1.096951   298A      1.097378   299A      1.101575  
     300A      1.105078   301A      1.113868   302A      1.120950  
     303A      1.126172   304A      1.132706   305A      1.137543  
     306A      1.138883   307A      1.141503   308A      1.144759  
     309A      1.147858   310A      1.154237   311A      1.157802  
     312A      1.169196   313A      1.170685   314A      1.175615  
     315A      1.178765   316A      1.185020   317A      1.186357  
     318A      1.190083   319A      1.196062   320A      1.199237  
     321A      1.204140   322A      1.208391   323A      1.212628  
     324A      1.214236   325A      1.221950   326A      1.226369  
     327A      1.230951   328A      1.236840   329A      1.240829  
     330A      1.242304   331A      1.248950   332A      1.252453  
     333A      1.255094   334A      1.258480   335A      1.264219  
     336A      1.270856   337A      1.278140   338A      1.286834  
     339A      1.291517   340A      1.295115   341A      1.300911  
     342A      1.303255   343A      1.307608   344A      1.315929  
     345A      1.321654   346A      1.331126   347A      1.339679  
     348A      1.343362   349A      1.355331   350A      1.357112  
     351A      1.365780   352A      1.371436   353A      1.380162  
     354A      1.381706   355A      1.384827   356A      1.393734  
     357A      1.401605   358A      1.406753   359A      1.407786  
     360A      1.420026   361A      1.426949   362A      1.434025  
     363A      1.437991   364A      1.440583   365A      1.444079  
     366A      1.450345   367A      1.456755   368A      1.464483  
     369A      1.471324   370A      1.477452   371A      1.482434  
     372A      1.492763   373A      1.496318   374A      1.506751  
     375A      1.508142   376A      1.514460   377A      1.523611  
     378A      1.530933   379A      1.534627   380A      1.537917  
     381A      1.542338   382A      1.549556   383A      1.560706  
     384A      1.562457   385A      1.570046   386A      1.581018  
     387A      1.595223   388A      1.599897   389A      1.607407  
     390A      1.613015   391A      1.616148   392A      1.620384  
     393A      1.624946   394A      1.635602   395A      1.640361  
     396A      1.653458   397A      1.663802   398A      1.668081  
     399A      1.677348   400A      1.679612   401A      1.687845  
     402A      1.691674   403A      1.695934   404A      1.697704  
     405A      1.713532   406A      1.714248   407A      1.720409  
     408A      1.727411   409A      1.733542   410A      1.734212  
     411A      1.741130   412A      1.745324   413A      1.750758  
     414A      1.756624   415A      1.762903   416A      1.767285  
     417A      1.772888   418A      1.780130   419A      1.785075  
     420A      1.790801   421A      1.799532   422A      1.801215  
     423A      1.806847   424A      1.811286   425A      1.820682  
     426A      1.825495   427A      1.827095   428A      1.839316  
     429A      1.844932   430A      1.848373   431A      1.850480  
     432A      1.858218   433A      1.864039   434A      1.868844  
     435A      1.878468   436A      1.882111   437A      1.888022  
     438A      1.900985   439A      1.902162   440A      1.914031  
     441A      1.915730   442A      1.921400   443A      1.929551  
     444A      1.935397   445A      1.942334   446A      1.946393  
     447A      1.952489   448A      1.954189   449A      1.973872  
     450A      1.977566   451A      1.981638   452A      1.989035  
     453A      1.992744   454A      2.000954   455A      2.006082  
     456A      2.012189   457A      2.019264   458A      2.024935  
     459A      2.032492   460A      2.036248   461A      2.047062  
     462A      2.047785   463A      2.052048   464A      2.056536  
     465A      2.061705   466A      2.068348   467A      2.070510  
     468A      2.074901   469A      2.077281   470A      2.086782  
     471A      2.095151   472A      2.101794   473A      2.110030  
     474A      2.113596   475A      2.125562   476A      2.129458  
     477A      2.135168   478A      2.140311   479A      2.151934  
     480A      2.161935   481A      2.165997   482A      2.174340  
     483A      2.176373   484A      2.194246   485A      2.196758  
     486A      2.216442   487A      2.218752   488A      2.223691  
     489A      2.238005   490A      2.245428   491A      2.252150  
     492A      2.263000   493A      2.269459   494A      2.278755  
     495A      2.282412   496A      2.286666   497A      2.293540  
     498A      2.302558   499A      2.309954   500A      2.316090  
     501A      2.325935   502A      2.333279   503A      2.340897  
     504A      2.347012   505A      2.356130   506A      2.368340  
     507A      2.371889   508A      2.376101   509A      2.382189  
     510A      2.397733   511A      2.403508   512A      2.412382  
     513A      2.417866   514A      2.431740   515A      2.434194  
     516A      2.444237   517A      2.454677   518A      2.462871  
     519A      2.472592   520A      2.491918   521A      2.499235  
     522A      2.506965   523A      2.523424   524A      2.529610  
     525A      2.539028   526A      2.542865   527A      2.554206  
     528A      2.560480   529A      2.575774   530A      2.585964  
     531A      2.588937   532A      2.595948   533A      2.609207  
     534A      2.623308   535A      2.630739   536A      2.643504  
     537A      2.646247   538A      2.660321   539A      2.668252  
     540A      2.682541   541A      2.685815   542A      2.704521  
     543A      2.711114   544A      2.719851   545A      2.732119  
     546A      2.742446   547A      2.752139   548A      2.766930  
     549A      2.791935   550A      2.804790   551A      2.844567  
     552A      2.852056   553A      2.864515   554A      2.887352  
     555A      2.893468   556A      2.929118   557A      2.942154  
     558A      2.987169   559A      3.008900   560A      3.058407  
     561A      3.082473   562A      3.097794   563A      3.107212  
     564A      3.134218   565A      3.182470   566A      3.192833  
     567A      3.218319   568A      3.222186   569A      3.229252  
     570A      3.262445   571A      3.281118   572A      3.300282  
     573A      3.352772   574A      3.365309   575A      3.372538  
     576A      3.389965   577A      3.397177   578A      3.405219  
     579A      3.429228   580A      3.433033   581A      3.439721  
     582A      3.459254   583A      3.477273   584A      3.481456  
     585A      3.495984   586A      3.499568   587A      3.514347  
     588A      3.526126   589A      3.532515   590A      3.535117  
     591A      3.551701   592A      3.559565   593A      3.564959  
     594A      3.571505   595A      3.582500   596A      3.586863  
     597A      3.593261   598A      3.613073   599A      3.620518  
     600A      3.623138   601A      3.637313   602A      3.641891  
     603A      3.654184   604A      3.656168   605A      3.662816  
     606A      3.677455   607A      3.685525   608A      3.690869  
     609A      3.699084   610A      3.710465   611A      3.718511  
     612A      3.729992   613A      3.736743   614A      3.745597  
     615A      3.749972   616A      3.769047   617A      3.783672  
     618A      3.788830   619A      3.797273   620A      3.812098  
     621A      3.815313   622A      3.819496   623A      3.824065  
     624A      3.830493   625A      3.835802   626A      3.847356  
     627A      3.855104   628A      3.866437   629A      3.871847  
     630A      3.878178   631A      3.887201   632A      3.897150  
     633A      3.911056   634A      3.919242   635A      3.923192  
     636A      3.932321   637A      3.936741   638A      3.949432  
     639A      3.954205   640A      3.959712   641A      3.966137  
     642A      3.973501   643A      3.978361   644A      3.988440  
     645A      3.994147   646A      3.996517   647A      4.008280  
     648A      4.014283   649A      4.018356   650A      4.023676  
     651A      4.033003   652A      4.039634   653A      4.044008  
     654A      4.053799   655A      4.062839   656A      4.074271  
     657A      4.078779   658A      4.087356   659A      4.095264  
     660A      4.103758   661A      4.110917   662A      4.114442  
     663A      4.117439   664A      4.125409   665A      4.134451  
     666A      4.145974   667A      4.166449   668A      4.169390  
     669A      4.173597   670A      4.180475   671A      4.187453  
     672A      4.190344   673A      4.212141   674A      4.216577  
     675A      4.227331   676A      4.233604   677A      4.246509  
     678A      4.250480   679A      4.260702   680A      4.265304  
     681A      4.268886   682A      4.272876   683A      4.282899  
     684A      4.287043   685A      4.297313   686A      4.300932  
     687A      4.315444   688A      4.318278   689A      4.334093  
     690A      4.335979   691A      4.340351   692A      4.357477  
     693A      4.363202   694A      4.364354   695A      4.376307  
     696A      4.383024   697A      4.398216   698A      4.404641  
     699A      4.416415   700A      4.427049   701A      4.429325  
     702A      4.437596   703A      4.456809   704A      4.461268  
     705A      4.465303   706A      4.475837   707A      4.478074  
     708A      4.490569   709A      4.513802   710A      4.523311  
     711A      4.538342   712A      4.544223   713A      4.548331  
     714A      4.559924   715A      4.563332   716A      4.569343  
     717A      4.586823   718A      4.592091   719A      4.594809  
     720A      4.616599   721A      4.627114   722A      4.631433  
     723A      4.650847   724A      4.668526   725A      4.682019  
     726A      4.685622   727A      4.691422   728A      4.704624  
     729A      4.711162   730A      4.735582   731A      4.745328  
     732A      4.747913   733A      4.761614   734A      4.763567  
     735A      4.782151   736A      4.788682   737A      4.804232  
     738A      4.809189   739A      4.810861   740A      4.830596  
     741A      4.845822   742A      4.854656   743A      4.867101  
     744A      4.879778   745A      4.889528   746A      4.898834  
     747A      4.901862   748A      4.911409   749A      4.930834  
     750A      4.939000   751A      4.942302   752A      4.952511  
     753A      4.956381   754A      4.962211   755A      4.974187  
     756A      4.983128   757A      4.999091   758A      5.007768  
     759A      5.021287   760A      5.026964   761A      5.033867  
     762A      5.050650   763A      5.067398   764A      5.071738  
     765A      5.080393   766A      5.087224   767A      5.102583  
     768A      5.105568   769A      5.109346   770A      5.133552  
     771A      5.138991   772A      5.142122   773A      5.151722  
     774A      5.158993   775A      5.169418   776A      5.183586  
     777A      5.199954   778A      5.205247   779A      5.209782  
     780A      5.219783   781A      5.233113   782A      5.245670  
     783A      5.258290   784A      5.283371   785A      5.291685  
     786A      5.304566   787A      5.309770   788A      5.320019  
     789A      5.321499   790A      5.334496   791A      5.341971  
     792A      5.358451   793A      5.361987   794A      5.379132  
     795A      5.390681   796A      5.410475   797A      5.420672  
     798A      5.427140   799A      5.436150   800A      5.437944  
     801A      5.455276   802A      5.462017   803A      5.487551  
     804A      5.495678   805A      5.508356   806A      5.511865  
     807A      5.523331   808A      5.540181   809A      5.562111  
     810A      5.568136   811A      5.584745   812A      5.596162  
     813A      5.612239   814A      5.614049   815A      5.628028  
     816A      5.644244   817A      5.666145   818A      5.675279  
     819A      5.682740   820A      5.688159   821A      5.703400  
     822A      5.713661   823A      5.733598   824A      5.741869  
     825A      5.749038   826A      5.761734   827A      5.775111  
     828A      5.809397   829A      5.815110   830A      5.839595  
     831A      5.854091   832A      5.868600   833A      5.886117  
     834A      5.899830   835A      5.912400   836A      5.940120  
     837A      5.948879   838A      5.954255   839A      5.970928  
     840A      5.987858   841A      5.998355   842A      6.012009  
     843A      6.030325   844A      6.047891   845A      6.060685  
     846A      6.068572   847A      6.085686   848A      6.118431  
     849A      6.169299   850A      6.189579   851A      6.199830  
     852A      6.212872   853A      6.223786   854A      6.245174  
     855A      6.259196   856A      6.261666   857A      6.286304  
     858A      6.323072   859A      6.329018   860A      6.352372  
     861A      6.371671   862A      6.378436   863A      6.469119  
     864A      6.497710   865A      6.539627   866A      6.601719  
     867A      6.630487   868A      6.675398   869A      6.700645  
     870A      6.743993   871A      6.780639   872A      6.828001  
     873A      6.847819   874A      6.874113   875A      6.887869  
     876A      6.909403   877A      6.947082   878A      6.972480  
     879A      7.045819   880A      7.058140   881A      7.098813  
     882A      7.132383   883A      7.146969   884A      7.237521  
     885A      7.443672   886A     16.219267   887A     16.647324  
     888A     17.978961   889A     18.337989   890A     18.522383  
     891A     18.906222   892A     19.416475   893A     19.742895  
     894A     20.098928   895A     20.174134   896A     20.637248  
     897A     21.874071  

    Final Occupation by Irrep:
              A 
    DOCC [    44 ]

  @DF-RHF Final Energy:  -479.89282396577090

   => Energetics <=

    Nuclear Repulsion Energy =            686.5374476170545677
    One-Electron Energy =               -2011.5442903010830378
    Two-Electron Energy =                 845.1140187182576256
    Total Energy =                       -479.8928239657708446

Computation Completed

*** tstop() called on c419-034.stampede2.tacc.utexas.edu at Sat Feb 27 23:19:15 2021
Module time:
	user time   =    1461.89 seconds =      24.36 minutes
	system time =      64.15 seconds =       1.07 minutes
	total time  =         72 seconds =       1.20 minutes
Total time:
	user time   =    1461.89 seconds =      24.36 minutes
	system time =      64.15 seconds =       1.07 minutes
	total time  =         72 seconds =       1.20 minutes
   => Loading Basis Set <=

    Name: (AUG-CC-PVTZ AUX)
    Role: RIFIT
    Keyword: DF_BASIS_MP2
    atoms 1     entry N          line   206 file /home1/07844/xy3866/miniconda3/envs/p4env/share/psi4/basis/aug-cc-pvtz-ri.gbs 
    atoms 2-12  entry C          line   148 file /home1/07844/xy3866/miniconda3/envs/p4env/share/psi4/basis/aug-cc-pvtz-ri.gbs 
    atoms 13-27 entry H          line    30 file /home1/07844/xy3866/miniconda3/envs/p4env/share/psi4/basis/aug-cc-pvtz-ri.gbs 


*** tstart() called on c419-034.stampede2.tacc.utexas.edu
*** at Sat Feb 27 23:19:16 2021


  //>>>>>>>>>>>>>>>>>>>>>>>>>>>>>>>>>>>//
  //               DFMP2               //
  //<<<<<<<<<<<<<<<<<<<<<<<<<<<<<<<<<<<//

	 --------------------------------------------------------
	                          DF-MP2                         
	      2nd-Order Density-Fitted Moller-Plesset Theory     
	              RMP2 Wavefunction,  32 Threads             
	                                                         
	        Rob Parrish, Justin Turney, Andy Simmonett,      
	           Ed Hohenstein, and C. David Sherrill          
	 --------------------------------------------------------

   => Auxiliary Basis Set <=

  Basis Set: (AUG-CC-PVTZ AUX)
    Blend: AUG-CC-PVTZ-RI
    Number of shells: 546
    Number of basis functions: 1962
    Number of Cartesian functions: 2457
    Spherical Harmonics?: true
    Max angular momentum: 4

	 --------------------------------------------------------
	                 NBF =   897, NAUX =  1962
	 --------------------------------------------------------
	   CLASS    FOCC     OCC    AOCC    AVIR     VIR    FVIR
	   PAIRS       0      44      44     853     853       0
	 --------------------------------------------------------

  DFHelper Memory: AOs need 10.984 GiB; user supplied 22.352 GiB. Using in-core AOs.


         ------------------------------------------------------------
                                     CPHF                           
                                  Rob Parrish                       
         ------------------------------------------------------------

  ==> Geometry <==

    Molecular point group: c1
    Full point group: C1

    Geometry (in Angstrom), charge = 0, multiplicity = 1:

       Center              X                  Y                   Z               Mass       
    ------------   -----------------  -----------------  -----------------  -----------------
         N            0.974513709873     0.878952458847     0.320527995660    14.003074004430
         C           -2.762122290127    -0.128168541153    -0.270698004340    12.000000000000
         C           -0.504338690127    -0.972880841153     0.002689695660    12.000000000000
         C           -1.436830290127    -0.315108541153    -1.016974004340    12.000000000000
         C           -2.285202290127     0.173814458847     1.150270995660    12.000000000000
         C           -1.168128290127    -0.847866541153     1.375514995660    12.000000000000
         C           -3.668756290127     0.932971458847    -0.878177004340    12.000000000000
         C            0.893499709873    -0.419247541153    -0.045520004340    12.000000000000
         C            2.020802709873    -1.154137541153    -0.429316004340    12.000000000000
         C            3.271084709873    -0.536798541153    -0.440416004340    12.000000000000
         C            2.184786709873     1.460804458847     0.309105995660    12.000000000000
         C            3.357742709873     0.801664458847    -0.062519004340    12.000000000000
         H           -3.297017290127    -1.089992541153    -0.255709004340     1.007825032230
         H           -0.401831290127    -2.085123541153    -0.259774004340     1.007825032230
         H           -1.030339290127     0.673499458847    -1.262763004340     1.007825032230
         H           -1.543969290127    -0.873986541153    -1.953910004340     1.007825032230
         H           -3.085250290127     0.109299458847     1.897044995660     1.007825032230
         H           -1.869305290127     1.188250458847     1.181059995660     1.007825032230
         H           -0.454106290127    -0.534046541153     2.142519995660     1.007825032230
         H           -1.596320290127    -1.805900541153     1.694057995660     1.007825032230
         H           -3.945760290127     0.679772458847    -1.906870004340     1.007825032230
         H           -4.591332290127     1.045231458847    -0.299328004340     1.007825032230
         H           -3.157760290127     1.901704458847    -0.893589004340     1.007825032230
         H            1.915722709873    -2.198256541153    -0.714588004340     1.007825032230
         H            4.159092709873    -1.090353541153    -0.736749004340     1.007825032230
         H            2.209569709873     2.506596458847     0.612811995660     1.007825032230
         H            4.308830709873     1.326638458847    -0.053797004340     1.007825032230

  Nuclear repulsion =  686.537447617054568
  Reference energy  = -479.892823965770901

  ==> Basis Set <==

  Basis Set: AUG-CC-PVTZ
    Blend: AUG-CC-PVTZ
    Number of shells: 303
    Number of basis functions: 897
    Number of Cartesian functions: 1035
    Spherical Harmonics?: true
    Max angular momentum: 3

  ==> CGRSolver (by Rob Parrish) <==

   Number of roots    =         1
   Preconditioning    =    JACOBI
   Convergence cutoff =     1E-06
   Maximum iterations =       100

  ==> CPHFRHamiltonian (by Rob Parrish) <== 

  ==> MemDFJK: Density-Fitted J/K Matrices <==

    J tasked:                   Yes
    K tasked:                   Yes
    wK tasked:                   No
    OpenMP threads:              32
    Memory [MiB]:             22888
    Algorithm:                 Core
    Schwarz Cutoff:           1E-12
    Mask sparsity (%):       8.7384
    Fitting Condition:        1E-10

   => Auxiliary Basis Set <=

  Basis Set: (AUG-CC-PVTZ AUX)
    Blend: AUG-CC-PVTZ-JKFIT
    Number of shells: 570
    Number of basis functions: 1938
    Number of Cartesian functions: 2397
    Spherical Harmonics?: true
    Max angular momentum: 4

  ==> CPHF Iterations <==

  => Iterations <=

             Iter  Converged  Remaining    Residual
  CGR           1          0          1   9.175E-02
  CGR           2          0          1   3.158E-02
  CGR           3          0          1   2.019E-02
  CGR           4          0          1   8.156E-03
  CGR           5          0          1   2.791E-03
  CGR           6          0          1   9.883E-04
  CGR           7          0          1   3.393E-04
  CGR           8          0          1   1.141E-04
  CGR           9          0          1   4.936E-05
  CGR          10          0          1   1.563E-05
  CGR          11          0          1   6.976E-06
  CGR          12          0          1   2.957E-06
  CGR          13          0          1   1.179E-06
  CGR          14          1          0   2.683E-07

    CGRSolver converged.

	-----------------------------------------------------------
	 ==================> DF-MP2 Energies <==================== 
	-----------------------------------------------------------
	 Reference Energy          =    -479.8928239657709014 [Eh]
	 Singles Energy            =      -0.0000000000000000 [Eh]
	 Same-Spin Energy          =      -0.5331762603582777 [Eh]
	 Opposite-Spin Energy      =      -1.7461745084646529 [Eh]
	 Correlation Energy        =      -2.2793507688229306 [Eh]
	 Total Energy              =    -482.1721747345938525 [Eh]
	-----------------------------------------------------------
	 ================> DF-SCS-MP2 Energies <================== 
	-----------------------------------------------------------
	 SCS Same-Spin Scale       =       0.3333333333333333 [-]
	 SCS Opposite-Spin Scale   =       1.2000000000000000 [-]
	 SCS Same-Spin Energy      =      -0.1777254201194259 [Eh]
	 SCS Opposite-Spin Energy  =      -2.0954094101575835 [Eh]
	 SCS Correlation Energy    =      -2.2731348302770096 [Eh]
	 SCS Total Energy          =    -482.1659587960479030 [Eh]
	-----------------------------------------------------------



Properties will be evaluated at   0.000000,  -0.000000,   0.000000 [a0]

Properties computed using the MP2 density matrix

  Nuclear Dipole Moment: [e a0]
     X:   -11.6085      Y:    -0.2338      Z:    -0.7599

  Electronic Dipole Moment: [e a0]
     X:    12.1447      Y:    -0.1701      Z:     0.5697

  Dipole Moment: [e a0]
     X:     0.5362      Y:    -0.4039      Z:    -0.1902     Total:     0.6977

  Dipole Moment: [D]
     X:     1.3629      Y:    -1.0265      Z:    -0.4835     Total:     1.7735


*** tstop() called on c419-034.stampede2.tacc.utexas.edu at Sat Feb 27 23:26:27 2021
Module time:
	user time   =    4767.82 seconds =      79.46 minutes
	system time =      97.29 seconds =       1.62 minutes
	total time  =        431 seconds =       7.18 minutes
Total time:
	user time   =    6231.04 seconds =     103.85 minutes
	system time =     161.47 seconds =       2.69 minutes
	total time  =        504 seconds =       8.40 minutes

    Psi4 stopped on: Saturday, 27 February 2021 11:26PM
    Psi4 wall time for execution: 0:08:26.04

*** Psi4 exiting successfully. Buy a developer a beer!
