148_L-Alanine Gaussian SP Calculation on node35.bme.utexas.edu          
Freq      RMP2-FC                                                     6-31G(d)            
Number of atoms                            I               13
Info1-9                                    I   N=           9
          24          23        1002           0           0         100
           6           2           1
Charge                                     I                0
Multiplicity                               I                1
Number of electrons                        I               48
Number of alpha electrons                  I               24
Number of beta electrons                   I               24
Number of basis functions                  I              104
Number of independent functions            I              104
Number of point charges in /Mol/           I                0
Number of translation vectors              I                0
Atomic numbers                             I   N=          13
           8           8           7           6           6           6
           1           1           1           1           1           1
           1
Nuclear charges                            R   N=          13
  8.00000000E+00  8.00000000E+00  7.00000000E+00  6.00000000E+00  6.00000000E+00
  6.00000000E+00  1.00000000E+00  1.00000000E+00  1.00000000E+00  1.00000000E+00
  1.00000000E+00  1.00000000E+00  1.00000000E+00
Current cartesian coordinates              R   N=          39
  3.14503728E+00  1.36062009E+00 -9.75331814E-01  2.03621024E+00 -2.04038199E+00
  1.38329307E+00 -2.64360608E+00 -2.02803445E+00 -9.14040853E-01 -1.22747920E+00
  3.34448486E-01 -7.85231793E-01 -2.24716364E+00  2.29841423E+00  1.09398612E+00
  1.44836635E+00 -3.11369885E-01 -2.18757860E-02 -1.16623065E+00  1.17572547E+00
 -2.67454584E+00 -1.10328356E+00  4.02049373E+00  1.08133619E+00 -4.18814051E+00
  2.80368070E+00  5.91067146E-01 -2.24768517E+00  1.50852403E+00  3.00538632E+00
 -4.52773760E+00 -1.64528371E+00 -1.01816133E+00 -2.34183956E+00 -3.00914241E+00
  7.16294730E-01  4.78783839E+00  8.51381589E-01 -2.88052553E-01
Force Field                                I                0
Int Atom Types                             I   N=          13
           0           0           0           0           0           0
           0           0           0           0           0           0
           0
MM charges                                 R   N=          13
  0.00000000E+00  0.00000000E+00  0.00000000E+00  0.00000000E+00  0.00000000E+00
  0.00000000E+00  0.00000000E+00  0.00000000E+00  0.00000000E+00  0.00000000E+00
  0.00000000E+00  0.00000000E+00  0.00000000E+00
Integer atomic weights                     I   N=          13
          16          16          14          12          12          12
           1           1           1           1           1           1
           1
Real atomic weights                        R   N=          13
  1.59949146E+01  1.59949146E+01  1.40030740E+01  1.20000000E+01  1.20000000E+01
  1.20000000E+01  1.00782504E+00  1.00782504E+00  1.00782504E+00  1.00782504E+00
  1.00782504E+00  1.00782504E+00  1.00782504E+00
Atom fragment info                         I   N=          13
           0           0           0           0           0           0
           0           0           0           0           0           0
           0
Atom residue num                           I   N=          13
           0           0           0           0           0           0
           0           0           0           0           0           0
           0
Nuclear spins                              I   N=          13
           0           0           2           0           0           0
           1           1           1           1           1           1
           1
Nuclear ZEff                               R   N=          13
 -5.60000000E+00 -5.60000000E+00 -4.55000000E+00 -3.60000000E+00 -3.60000000E+00
 -3.60000000E+00 -1.00000000E+00 -1.00000000E+00 -1.00000000E+00 -1.00000000E+00
 -1.00000000E+00 -1.00000000E+00 -1.00000000E+00
Nuclear QMom                               R   N=          13
  0.00000000E+00  0.00000000E+00  2.04400000E+00  0.00000000E+00  0.00000000E+00
  0.00000000E+00  0.00000000E+00  0.00000000E+00  0.00000000E+00  0.00000000E+00
  0.00000000E+00  0.00000000E+00  0.00000000E+00
Nuclear GFac                               R   N=          13
  0.00000000E+00  0.00000000E+00  4.03761000E-01  0.00000000E+00  0.00000000E+00
  0.00000000E+00  2.79284600E+00  2.79284600E+00  2.79284600E+00  2.79284600E+00
  2.79284600E+00  2.79284600E+00  2.79284600E+00
MicOpt                                     I   N=          13
          -1          -1          -1          -1          -1          -1
          -1          -1          -1          -1          -1          -1
          -1
Number of contracted shells                I               38
Number of primitive shells                 I               94
Pure/Cartesian d shells                    I                1
Pure/Cartesian f shells                    I                0
Highest angular momentum                   I                2
Largest degree of contraction              I                6
Shell types                                I   N=          38
           0          -1          -1           2           0          -1
          -1           2           0          -1          -1           2
           0          -1          -1           2           0          -1
          -1           2           0          -1          -1           2
           0           0           0           0           0           0
           0           0           0           0           0           0
           0           0
Number of primitives per shell             I   N=          38
           6           3           1           1           6           3
           1           1           6           3           1           1
           6           3           1           1           6           3
           1           1           6           3           1           1
           3           1           3           1           3           1
           3           1           3           1           3           1
           3           1
Shell to atom map                          I   N=          38
           1           1           1           1           2           2
           2           2           3           3           3           3
           4           4           4           4           5           5
           5           5           6           6           6           6
           7           7           8           8           9           9
          10          10          11          11          12          12
          13          13
Primitive exponents                        R   N=          94
  5.48467166E+03  8.25234946E+02  1.88046958E+02  5.29645000E+01  1.68975704E+01
  5.79963534E+00  1.55396162E+01  3.59993359E+00  1.01376175E+00  2.70005823E-01
  8.00000000E-01  5.48467166E+03  8.25234946E+02  1.88046958E+02  5.29645000E+01
  1.68975704E+01  5.79963534E+00  1.55396162E+01  3.59993359E+00  1.01376175E+00
  2.70005823E-01  8.00000000E-01  4.17351146E+03  6.27457911E+02  1.42902093E+02
  4.02343293E+01  1.28202129E+01  4.39043701E+00  1.16263619E+01  2.71627981E+00
  7.72218397E-01  2.12031498E-01  8.00000000E-01  3.04752488E+03  4.57369518E+02
  1.03948685E+02  2.92101553E+01  9.28666296E+00  3.16392696E+00  7.86827235E+00
  1.88128854E+00  5.44249258E-01  1.68714478E-01  8.00000000E-01  3.04752488E+03
  4.57369518E+02  1.03948685E+02  2.92101553E+01  9.28666296E+00  3.16392696E+00
  7.86827235E+00  1.88128854E+00  5.44249258E-01  1.68714478E-01  8.00000000E-01
  3.04752488E+03  4.57369518E+02  1.03948685E+02  2.92101553E+01  9.28666296E+00
  3.16392696E+00  7.86827235E+00  1.88128854E+00  5.44249258E-01  1.68714478E-01
  8.00000000E-01  1.87311370E+01  2.82539436E+00  6.40121692E-01  1.61277759E-01
  1.87311370E+01  2.82539436E+00  6.40121692E-01  1.61277759E-01  1.87311370E+01
  2.82539436E+00  6.40121692E-01  1.61277759E-01  1.87311370E+01  2.82539436E+00
  6.40121692E-01  1.61277759E-01  1.87311370E+01  2.82539436E+00  6.40121692E-01
  1.61277759E-01  1.87311370E+01  2.82539436E+00  6.40121692E-01  1.61277759E-01
  1.87311370E+01  2.82539436E+00  6.40121692E-01  1.61277759E-01
Contraction coefficients                   R   N=          94
  1.83107443E-03  1.39501722E-02  6.84450781E-02  2.32714336E-01  4.70192898E-01
  3.58520853E-01 -1.10777550E-01 -1.48026263E-01  1.13076702E+00  1.00000000E+00
  1.00000000E+00  1.83107443E-03  1.39501722E-02  6.84450781E-02  2.32714336E-01
  4.70192898E-01  3.58520853E-01 -1.10777550E-01 -1.48026263E-01  1.13076702E+00
  1.00000000E+00  1.00000000E+00  1.83477216E-03  1.39946270E-02  6.85865518E-02
  2.32240873E-01  4.69069948E-01  3.60455199E-01 -1.14961182E-01 -1.69117479E-01
  1.14585195E+00  1.00000000E+00  1.00000000E+00  1.83473713E-03  1.40373228E-02
  6.88426223E-02  2.32184443E-01  4.67941348E-01  3.62311985E-01 -1.19332420E-01
 -1.60854152E-01  1.14345644E+00  1.00000000E+00  1.00000000E+00  1.83473713E-03
  1.40373228E-02  6.88426223E-02  2.32184443E-01  4.67941348E-01  3.62311985E-01
 -1.19332420E-01 -1.60854152E-01  1.14345644E+00  1.00000000E+00  1.00000000E+00
  1.83473713E-03  1.40373228E-02  6.88426223E-02  2.32184443E-01  4.67941348E-01
  3.62311985E-01 -1.19332420E-01 -1.60854152E-01  1.14345644E+00  1.00000000E+00
  1.00000000E+00  3.34946043E-02  2.34726953E-01  8.13757326E-01  1.00000000E+00
  3.34946043E-02  2.34726953E-01  8.13757326E-01  1.00000000E+00  3.34946043E-02
  2.34726953E-01  8.13757326E-01  1.00000000E+00  3.34946043E-02  2.34726953E-01
  8.13757326E-01  1.00000000E+00  3.34946043E-02  2.34726953E-01  8.13757326E-01
  1.00000000E+00  3.34946043E-02  2.34726953E-01  8.13757326E-01  1.00000000E+00
  3.34946043E-02  2.34726953E-01  8.13757326E-01  1.00000000E+00
P(S=P) Contraction coefficients            R   N=          94
  0.00000000E+00  0.00000000E+00  0.00000000E+00  0.00000000E+00  0.00000000E+00
  0.00000000E+00  7.08742682E-02  3.39752839E-01  7.27158577E-01  1.00000000E+00
  0.00000000E+00  0.00000000E+00  0.00000000E+00  0.00000000E+00  0.00000000E+00
  0.00000000E+00  0.00000000E+00  7.08742682E-02  3.39752839E-01  7.27158577E-01
  1.00000000E+00  0.00000000E+00  0.00000000E+00  0.00000000E+00  0.00000000E+00
  0.00000000E+00  0.00000000E+00  0.00000000E+00  6.75797439E-02  3.23907296E-01
  7.40895140E-01  1.00000000E+00  0.00000000E+00  0.00000000E+00  0.00000000E+00
  0.00000000E+00  0.00000000E+00  0.00000000E+00  0.00000000E+00  6.89990666E-02
  3.16423961E-01  7.44308291E-01  1.00000000E+00  0.00000000E+00  0.00000000E+00
  0.00000000E+00  0.00000000E+00  0.00000000E+00  0.00000000E+00  0.00000000E+00
  6.89990666E-02  3.16423961E-01  7.44308291E-01  1.00000000E+00  0.00000000E+00
  0.00000000E+00  0.00000000E+00  0.00000000E+00  0.00000000E+00  0.00000000E+00
  0.00000000E+00  6.89990666E-02  3.16423961E-01  7.44308291E-01  1.00000000E+00
  0.00000000E+00  0.00000000E+00  0.00000000E+00  0.00000000E+00  0.00000000E+00
  0.00000000E+00  0.00000000E+00  0.00000000E+00  0.00000000E+00  0.00000000E+00
  0.00000000E+00  0.00000000E+00  0.00000000E+00  0.00000000E+00  0.00000000E+00
  0.00000000E+00  0.00000000E+00  0.00000000E+00  0.00000000E+00  0.00000000E+00
  0.00000000E+00  0.00000000E+00  0.00000000E+00  0.00000000E+00  0.00000000E+00
  0.00000000E+00  0.00000000E+00  0.00000000E+00  0.00000000E+00
Coordinates of each shell                  R   N=         114
  3.14503728E+00  1.36062009E+00 -9.75331814E-01  3.14503728E+00  1.36062009E+00
 -9.75331814E-01  3.14503728E+00  1.36062009E+00 -9.75331814E-01  3.14503728E+00
  1.36062009E+00 -9.75331814E-01  2.03621024E+00 -2.04038199E+00  1.38329307E+00
  2.03621024E+00 -2.04038199E+00  1.38329307E+00  2.03621024E+00 -2.04038199E+00
  1.38329307E+00  2.03621024E+00 -2.04038199E+00  1.38329307E+00 -2.64360608E+00
 -2.02803445E+00 -9.14040853E-01 -2.64360608E+00 -2.02803445E+00 -9.14040853E-01
 -2.64360608E+00 -2.02803445E+00 -9.14040853E-01 -2.64360608E+00 -2.02803445E+00
 -9.14040853E-01 -1.22747920E+00  3.34448486E-01 -7.85231793E-01 -1.22747920E+00
  3.34448486E-01 -7.85231793E-01 -1.22747920E+00  3.34448486E-01 -7.85231793E-01
 -1.22747920E+00  3.34448486E-01 -7.85231793E-01 -2.24716364E+00  2.29841423E+00
  1.09398612E+00 -2.24716364E+00  2.29841423E+00  1.09398612E+00 -2.24716364E+00
  2.29841423E+00  1.09398612E+00 -2.24716364E+00  2.29841423E+00  1.09398612E+00
  1.44836635E+00 -3.11369885E-01 -2.18757860E-02  1.44836635E+00 -3.11369885E-01
 -2.18757860E-02  1.44836635E+00 -3.11369885E-01 -2.18757860E-02  1.44836635E+00
 -3.11369885E-01 -2.18757860E-02 -1.16623065E+00  1.17572547E+00 -2.67454584E+00
 -1.16623065E+00  1.17572547E+00 -2.67454584E+00 -1.10328356E+00  4.02049373E+00
  1.08133619E+00 -1.10328356E+00  4.02049373E+00  1.08133619E+00 -4.18814051E+00
  2.80368070E+00  5.91067146E-01 -4.18814051E+00  2.80368070E+00  5.91067146E-01
 -2.24768517E+00  1.50852403E+00  3.00538632E+00 -2.24768517E+00  1.50852403E+00
  3.00538632E+00 -4.52773760E+00 -1.64528371E+00 -1.01816133E+00 -4.52773760E+00
 -1.64528371E+00 -1.01816133E+00 -2.34183956E+00 -3.00914241E+00  7.16294730E-01
 -2.34183956E+00 -3.00914241E+00  7.16294730E-01  4.78783839E+00  8.51381589E-01
 -2.88052553E-01  4.78783839E+00  8.51381589E-01 -2.88052553E-01
Constraint Structure                       R   N=          39
  3.14503728E+00  1.36062009E+00 -9.75331814E-01  2.03621024E+00 -2.04038199E+00
  1.38329307E+00 -2.64360608E+00 -2.02803445E+00 -9.14040853E-01 -1.22747920E+00
  3.34448486E-01 -7.85231793E-01 -2.24716364E+00  2.29841423E+00  1.09398612E+00
  1.44836635E+00 -3.11369885E-01 -2.18757860E-02 -1.16623065E+00  1.17572547E+00
 -2.67454584E+00 -1.10328356E+00  4.02049373E+00  1.08133619E+00 -4.18814051E+00
  2.80368070E+00  5.91067146E-01 -2.24768517E+00  1.50852403E+00  3.00538632E+00
 -4.52773760E+00 -1.64528371E+00 -1.01816133E+00 -2.34183956E+00 -3.00914241E+00
  7.16294730E-01  4.78783839E+00  8.51381589E-01 -2.88052553E-01
Num ILSW                                   I              100
ILSW                                       I   N=         100
           0           1           0           0           2           0
           0           0           0           0           0          -1
           0           0           0           0           0           0
           0           0           0           0           1           0
           1           0           0           0           0           0
           0           0      100000           0          -1           0
           0           0           0           0           0           0
           0           0           0           1           1           0
           0           0           1           0           0           0
           0           0           4          40           0           0
           0           0           0           0           0           0
           0           0           0           0           0           0
           0           0           0           0           0           0
           0           0           0           0           0           0
           0           0           0           0           0           0
           0           0           0           0           0           0
           0           0           0           0
Num RLSW                                   I               40
RLSW                                       R   N=          40
  1.00000000E+00  1.00000000E+00  1.00000000E+00  1.00000000E+00  1.00000000E+00
  0.00000000E+00  0.00000000E+00  1.00000000E+00  0.00000000E+00  0.00000000E+00
  0.00000000E+00  0.00000000E+00  1.00000000E+00  0.00000000E+00  0.00000000E+00
  0.00000000E+00  0.00000000E+00  1.00000000E+00  0.00000000E+00  0.00000000E+00
  0.00000000E+00  0.00000000E+00  1.00000000E+00  0.00000000E+00  0.00000000E+00
  0.00000000E+00  0.00000000E+00  1.00000000E+00  0.00000000E+00  0.00000000E+00
  0.00000000E+00  0.00000000E+00  0.00000000E+00  0.00000000E+00  0.00000000E+00
  0.00000000E+00  0.00000000E+00  0.00000000E+00  1.00000000E+00  1.00000000E+00
MxBond                                     I                4
NBond                                      I   N=          13
           2           1           3           4           4           3
           1           1           1           1           1           1
           1
IBond                                      I   N=          52
           6          13           0           0           6           0
           0           0           4          11          12           0
           3           5           6           7           4           8
           9          10           1           2           4           0
           4           0           0           0           5           0
           0           0           5           0           0           0
           5           0           0           0           3           0
           0           0           3           0           0           0
           1           0           0           0
RBond                                      R   N=          52
  1.50000000E+00  1.00000000E+00  0.00000000E+00  0.00000000E+00  2.00000000E+00
  0.00000000E+00  0.00000000E+00  0.00000000E+00  1.00000000E+00  1.00000000E+00
  1.00000000E+00  0.00000000E+00  1.00000000E+00  1.00000000E+00  1.00000000E+00
  1.00000000E+00  1.00000000E+00  1.00000000E+00  1.00000000E+00  1.00000000E+00
  1.50000000E+00  2.00000000E+00  1.00000000E+00  0.00000000E+00  1.00000000E+00
  0.00000000E+00  0.00000000E+00  0.00000000E+00  1.00000000E+00  0.00000000E+00
  0.00000000E+00  0.00000000E+00  1.00000000E+00  0.00000000E+00  0.00000000E+00
  0.00000000E+00  1.00000000E+00  0.00000000E+00  0.00000000E+00  0.00000000E+00
  1.00000000E+00  0.00000000E+00  0.00000000E+00  0.00000000E+00  1.00000000E+00
  0.00000000E+00  0.00000000E+00  0.00000000E+00  1.00000000E+00  0.00000000E+00
  0.00000000E+00  0.00000000E+00
Virial Ratio                               R      2.002827107418074E+00
SCF Energy                                 R     -3.218602533654797E+02
MP2 Energy                                 R     -3.227680605310303E+02
Total Energy                               R     -3.227680605310303E+02
Post-SCF wavefunction norm                 R      1.597713300802800E+00
RMS Force                                  R      1.090040840196737E-06
RMS Density                                R      2.911956978275927E-09
External E-field                           R   N=          35
  0.00000000E+00  0.00000000E+00  0.00000000E+00  0.00000000E+00  0.00000000E+00
  0.00000000E+00  0.00000000E+00  0.00000000E+00  0.00000000E+00  0.00000000E+00
  0.00000000E+00  0.00000000E+00  0.00000000E+00  0.00000000E+00  0.00000000E+00
  0.00000000E+00  0.00000000E+00  0.00000000E+00  0.00000000E+00  0.00000000E+00
  0.00000000E+00  0.00000000E+00  0.00000000E+00  0.00000000E+00  0.00000000E+00
  0.00000000E+00  0.00000000E+00  0.00000000E+00  0.00000000E+00  0.00000000E+00
  0.00000000E+00  0.00000000E+00  0.00000000E+00  0.00000000E+00  0.00000000E+00
IOpCl                                      I                0
IROHF                                      I                0
Alpha Orbital Energies                     R   N=         104
 -2.06256245E+01 -2.05617219E+01 -1.55510906E+01 -1.13931522E+01 -1.12799544E+01
 -1.12360470E+01 -1.46223938E+00 -1.35867342E+00 -1.19673712E+00 -1.02199342E+00
 -9.11483540E-01 -7.89594943E-01 -7.20912147E-01 -7.01768293E-01 -6.42036798E-01
 -6.24406874E-01 -6.08406829E-01 -5.80870742E-01 -5.74893385E-01 -5.41615234E-01
 -5.18553440E-01 -4.78944038E-01 -4.49115342E-01 -3.98457481E-01  1.76171961E-01
  2.17732281E-01  2.27283845E-01  2.81013308E-01  2.87948036E-01  3.06452740E-01
  3.14679489E-01  3.41032114E-01  3.88138581E-01  4.00740521E-01  4.64725943E-01
  5.04106522E-01  5.54504427E-01  7.28187009E-01  7.47492515E-01  7.59995767E-01
  7.77242730E-01  8.46566914E-01  8.49699369E-01  9.21269571E-01  9.39334117E-01
  9.69089272E-01  9.99411571E-01  1.02899637E+00  1.06174021E+00  1.07015607E+00
  1.09502249E+00  1.13862585E+00  1.15781305E+00  1.17930889E+00  1.20112566E+00
  1.20763794E+00  1.21608020E+00  1.22978834E+00  1.24473815E+00  1.29864278E+00
  1.33528298E+00  1.35967838E+00  1.39323108E+00  1.47759124E+00  1.59545073E+00
  1.64868270E+00  1.67056942E+00  1.74919158E+00  1.80725436E+00  1.91469442E+00
  1.94107112E+00  1.98807798E+00  2.03860003E+00  2.08042188E+00  2.09604500E+00
  2.12360857E+00  2.13964373E+00  2.22968940E+00  2.27318490E+00  2.29648166E+00
  2.32680522E+00  2.37650495E+00  2.43975339E+00  2.44579393E+00  2.50829675E+00
  2.61028658E+00  2.67124033E+00  2.67778608E+00  2.74341093E+00  2.78956592E+00
  2.88589152E+00  2.95828079E+00  3.00678770E+00  3.04319778E+00  3.11829666E+00
  3.21697650E+00  3.34874618E+00  3.45445239E+00  4.19226817E+00  4.28717967E+00
  4.55516639E+00  4.65458568E+00  4.72404317E+00  5.02162927E+00
Alpha MO coefficients                      R   N=       10816
  9.94639738E-01  2.11797234E-02  2.23580353E-04 -9.76447750E-04  7.92365091E-04
  4.01446524E-03 -2.49309026E-04  4.64300866E-04 -4.02772335E-04 -4.15082306E-03
 -4.03328563E-03 -3.99963124E-03 -2.44126605E-05 -2.56844358E-05  7.25346678E-05
 -2.65234870E-04  4.07959348E-05 -2.26033790E-05 -2.76768195E-05  2.14720617E-05
 -3.62475216E-04 -5.54502229E-05 -1.04089692E-04  4.81783994E-05  4.56886953E-05
 -3.01244697E-05 -2.73576233E-06 -3.67938389E-05  3.84190419E-05  2.00798735E-05
  6.91251502E-06  3.64500576E-05 -7.25873462E-06 -9.13868137E-07 -2.24123755E-06
 -3.58436964E-04 -6.76317218E-05 -1.55208627E-04 -1.05386743E-05  5.26575210E-06
  5.71372452E-06  1.29964037E-05 -1.07756719E-05 -5.90607878E-06 -2.01475583E-06
 -1.00393192E-05 -1.01334476E-05  7.51835587E-06  1.44445995E-05  3.40609212E-06
  6.78041596E-04 -8.77969270E-05 -3.10999812E-04  4.79758234E-05 -7.46573963E-05
  3.65142545E-06 -3.04706880E-05 -8.15833144E-06  5.15932916E-06  1.85663762E-06
 -1.35892428E-06 -1.17734209E-05  1.64827041E-05 -1.06405629E-05  6.21967210E-06
  6.67803920E-05  1.50851627E-05  1.49614844E-04 -4.07715982E-05  1.90333408E-05
 -1.85875563E-05 -1.13652318E-06 -1.50197126E-07 -6.74534493E-06 -6.39803478E-06
 -2.27176549E-06  3.90646867E-04  2.08638399E-04  2.03759051E-04 -1.18931094E-04
 -1.37921847E-04  3.77021974E-04 -2.42336684E-04  2.96848740E-04 -4.64659171E-05
 -5.62541319E-05 -4.83150482E-05 -4.67793197E-05  3.20891311E-05 -5.05547594E-06
  3.83679812E-05 -1.14073669E-04  2.20492441E-05 -1.42690691E-04 -1.03225877E-05
 -3.05460131E-05  9.94940514E-06  3.03826318E-05  1.32125139E-05  9.99216015E-06
  1.23589539E-05 -3.97979790E-05  4.35078084E-04 -2.55964150E-04  2.65822550E-04
 -5.04178460E-05 -8.80488820E-07  3.11919251E-05 -2.30274143E-05  2.08271090E-04
 -4.63507069E-05 -7.53132263E-05  3.96606886E-05  5.29412642E-05 -8.24992882E-05
 -8.62406327E-05  3.83010227E-05 -1.97408842E-06  1.66875539E-05  9.94694421E-01
  2.10018487E-02 -3.75911621E-04  1.19516892E-03 -9.50744449E-04  4.40644812E-03
  3.30131931E-05 -4.71657071E-05  1.81992128E-05 -3.88912289E-03 -3.80340873E-03
 -3.92077629E-03 -4.97133830E-05  8.27632363E-05 -2.84739903E-04  2.18539508E-06
  1.38947077E-05  1.37692856E-05  3.33302693E-06 -5.57688130E-06 -3.31722395E-05
 -7.32404761E-05 -8.69920523E-05  2.94399367E-05  2.45095351E-06 -1.20789963E-05
  1.16158988E-05 -5.27199438E-06 -9.71112763E-06  7.27741613E-07 -2.63613172E-06
 -1.33545019E-05 -5.57763074E-06  1.60778913E-05 -1.47074936E-05  2.20294739E-05
 -1.46787499E-04 -2.09385893E-05 -2.03181241E-05  3.01656522E-05 -1.94991486E-05
 -2.82289477E-05  4.63156611E-05 -2.42312016E-05  2.00345168E-05  5.68133775E-06
  1.56369612E-05  1.65347826E-05 -5.81250400E-06 -1.06374051E-06 -9.56457779E-05
 -6.77277877E-05  4.60196566E-05  1.64505066E-05  1.19857355E-05  9.63039441E-06
  1.13043231E-05 -2.18328908E-06  2.96515335E-06 -4.31810041E-06 -6.04513677E-06
  4.80834686E-04 -6.60960423E-06  3.63387698E-05 -3.58477308E-05 -3.16679559E-04
 -3.06446292E-04  2.97871313E-04 -2.31365808E-04 -1.04531255E-04 -4.87775495E-04
 -3.30745683E-04  1.47115779E-04 -1.25227776E-04  4.16934429E-04  2.75626194E-06
 -4.90008882E-05  1.15753232E-05  6.60655610E-06 -2.78502975E-06 -3.50404560E-05
  1.28373666E-05  7.70064133E-06 -1.07030278E-05 -2.01798104E-05  1.77603807E-05
 -1.28668162E-04 -1.93177630E-05 -1.13550779E-05 -6.89669446E-06 -2.36093660E-05
  7.70503917E-06 -4.61672204E-06 -2.01097330E-06  8.66280086E-05 -5.93357673E-05
 -1.05936649E-05  2.16826008E-05 -1.39595710E-05 -1.48785679E-05 -2.26700363E-05
  1.05195188E-05 -6.68281927E-06 -4.93496908E-06 -9.65628335E-06 -4.86616388E-05
  1.21708882E-06 -1.74908243E-06  9.03254444E-06  3.56393296E-04 -1.25476270E-05
  1.25370683E-04 -9.26370340E-05 -5.16261230E-05 -7.76635129E-06 -2.11140512E-05
 -1.15647696E-05  7.39809681E-06 -1.72724642E-05  9.95038837E-01  2.49111731E-02
 -4.10260415E-04  9.00903801E-04  1.14521593E-03 -2.80277132E-03  1.25238851E-04
 -9.82505775E-04 -9.06300267E-04 -3.35009535E-03 -3.36991116E-03 -3.21976627E-03
 -7.36075017E-05 -8.03395681E-05  7.05183199E-05 -2.72219352E-05  1.55854135E-04
 -1.20017198E-04 -2.08462945E-04 -4.80667861E-05  1.80680001E-03 -3.77065575E-04
 -6.12776726E-04  4.17050099E-04 -1.19934792E-04 -1.86590966E-04 -1.15726035E-04
 -6.24254055E-05 -9.87156542E-06 -3.81087280E-06 -2.51143097E-05 -6.61223185E-05
  2.01037181E-05  1.18515212E-04  4.43900883E-05  1.63772218E-05 -1.96580585E-04
 -4.49990681E-05  2.63620046E-05 -5.64316426E-05 -9.33305453E-05 -5.72011519E-05
  1.01692983E-05 -1.41039777E-05 -7.11350332E-06 -6.67315667E-06 -1.71697751E-05
  3.72299771E-05  7.31886311E-06 -2.83773225E-06 -5.37274969E-04  1.27199729E-04
  1.62635504E-04 -1.49251156E-04 -4.59488476E-05 -1.33970386E-05 -3.71444443E-05
  1.55412412E-05  4.71126982E-06  1.67930189E-05 -4.21563854E-05  1.01292699E-05
  9.07265038E-06  1.42052249E-04 -1.82682585E-05 -1.76906784E-04 -2.75161093E-05
 -8.00348211E-05  3.16464307E-04  6.05441227E-04  3.12632710E-04  5.84323104E-04
  5.94322561E-06 -3.87502614E-07 -1.10454407E-04  5.38748509E-04  6.94247129E-06
 -1.31743267E-04  9.46493835E-05 -9.73764518E-04  5.51441757E-05  1.36363293E-03
 -9.13924699E-04 -1.82955535E-04 -2.08823883E-04  1.97161080E-04 -4.54654378E-04
  1.99290390E-04  4.60740609E-04 -2.93626617E-04  5.72623472E-04 -9.14474503E-06
  2.06203141E-04 -1.91886355E-04 -2.91178760E-03 -3.79888313E-04 -1.32365554E-03
  1.15313339E-03  2.22992947E-04  9.39153029E-05  1.70733563E-04 -1.26904916E-04
  5.76719879E-05  2.35982594E-04 -2.77104437E-05 -1.77874349E-04 -8.21570313E-05
 -6.51375927E-06 -1.24191949E-05  4.64517978E-04  4.01475670E-04  1.77518541E-04
  2.60678824E-04  8.05708926E-06 -2.32863296E-05 -1.01084885E-04  2.64767429E-05
  8.78057636E-05  1.15325839E-05  2.72025189E-03  2.30001121E-04  3.04667865E-05
  1.25227945E-05  4.91772786E-05  3.21849567E-03  2.40280284E-03 -4.57821988E-04
 -4.46239686E-04 -3.70546285E-04 -2.23648200E-04 -1.44912241E-04  5.45750336E-05
 -7.70159353E-05 -3.75088864E-05 -9.57887528E-05 -3.97855226E-04 -1.68804750E-04
  6.68680079E-05 -1.66639680E-05  1.41687931E-03  1.08259305E-03 -8.03480418E-04
 -4.58662545E-05 -4.39876721E-05 -3.78851673E-05 -1.01367837E-04 -7.27998989E-05
 -2.77209637E-05  4.91670902E-05  9.95924997E-01  2.61055207E-02  8.62555509E-04
  3.82015642E-04 -2.18106031E-06 -6.99755518E-03  3.94726347E-03 -2.04183519E-03
  1.72444855E-03 -1.15190529E-03 -1.05062963E-03 -1.57586874E-03  8.66184144E-05
  1.04538237E-04 -9.80625725E-04 -1.90430941E-04 -8.29637023E-05 -1.55863741E-04
 -1.32404925E-05  2.60911856E-05  6.16218165E-04 -1.72964753E-04 -1.82819319E-04
  4.03164779E-05  2.54308147E-04 -8.93215932E-05  3.28030557E-06  3.05764486E-04
  9.60548018E-05 -7.99354560E-05 -4.72767510E-04  1.24944331E-04  5.71736137E-05
 -2.82996601E-05  1.98572369E-03 -6.23245588E-04 -5.80639952E-04  3.91201763E-04
 -1.23752854E-04 -2.17605758E-04 -3.01009291E-04  5.33799791E-05 -3.73935432E-05
 -1.20857422E-04 -4.01342225E-05 -2.37032804E-04  3.42430760E-05 -4.83500472E-05
  4.97369295E-06  6.12317661E-04  4.19521274E-04  4.56010023E-04 -1.52863310E-04
 -1.06744307E-04 -6.25063470E-05 -1.77076685E-04  1.92133748E-05 -3.03820055E-05
 -1.74668146E-04 -2.40401477E-04 -6.44736938E-05  6.96884611E-05  2.96219887E-05
  3.68883641E-05  4.31490845E-03  5.84373639E-04  1.52335736E-03  2.72248736E-04
 -2.98260115E-04 -4.91925595E-04 -9.97788635E-05 -2.53833224E-04  2.00252807E-05
  4.58789566E-05  9.96002749E-01  2.87274843E-02  1.82691590E-04 -3.31635347E-04
  3.23387231E-04 -2.12034443E-02 -8.24119571E-04  7.95784942E-04 -2.16682720E-03
 -1.32223810E-03 -1.30859025E-03 -1.26814845E-03  5.26253234E-05  6.15549545E-06
 -4.60092641E-05  6.42672333E-03  8.31571711E-05  1.01888757E-04 -1.14545027E-04
 -1.10915012E-04  5.39427950E-03  7.44209450E-04 -2.05524095E-03 -1.23085971E-03
 -2.06921538E-04 -2.12457182E-04 -3.14712992E-04  4.79007755E-05  8.16364971E-05
 -1.79998524E-04 -3.03060328E-03  1.09296103E-06 -2.09748965E-04  6.83677098E-05
 -1.82564338E-05  4.25547744E-03 -4.00196993E-03 -3.30252120E-04 -3.52384042E-04
 -5.10148492E-04 -2.50740483E-04 -2.02330453E-04  2.81510627E-05 -1.35560759E-04
  9.04554399E-05  3.14424364E-04  2.47928045E-03 -1.54144968E-04  9.74451581E-05
 -1.98700524E-04 -1.07525966E-04 -2.47442115E-04 -2.06769456E-04 -1.47977900E-04
 -1.04293543E-04 -9.42878969E-05  2.34000866E-04 -3.47793818E-05  4.21047899E-04
  4.28766887E-05  2.04821646E-04 -3.50836231E-05  3.23768493E-06  3.46513332E-06
 -1.09920110E-03  4.52789555E-04  8.07755782E-05 -1.58059450E-04  5.39475136E-05
  1.59004731E-04  1.23552504E-04 -1.82781383E-05  2.57454960E-05 -6.20718952E-06