
    -----------------------------------------------------------------------
          Psi4: An Open-Source Ab Initio Electronic Structure Package
                               Psi4 1.4a3.dev225 

                         Git: Rev {master} 7105e37 


    D. G. A. Smith, L. A. Burns, A. C. Simmonett, R. M. Parrish,
    M. C. Schieber, R. Galvelis, P. Kraus, H. Kruse, R. Di Remigio,
    A. Alenaizan, A. M. James, S. Lehtola, J. P. Misiewicz, M. Scheurer,
    R. A. Shaw, J. B. Schriber, Y. Xie, Z. L. Glick, D. A. Sirianni,
    J. S. O'Brien, J. M. Waldrop, A. Kumar, E. G. Hohenstein,
    B. P. Pritchard, B. R. Brooks, H. F. Schaefer III, A. Yu. Sokolov,
    K. Patkowski, A. E. DePrince III, U. Bozkaya, R. A. King,
    F. A. Evangelista, J. M. Turney, T. D. Crawford, C. D. Sherrill,
    J. Chem. Phys. 152(18) 184108 (2020). https://doi.org/10.1063/5.0006002

                            Additional Code Authors
    E. T. Seidl, C. L. Janssen, E. F. Valeev, M. L. Leininger,
    J. F. Gonthier, R. M. Richard, H. R. McAlexander, M. Saitow, X. Wang,
    P. Verma, and M. H. Lechner

             Previous Authors, Complete List of Code Contributors,
                       and Citations for Specific Modules
    https://github.com/psi4/psi4/blob/master/codemeta.json
    https://github.com/psi4/psi4/graphs/contributors
    http://psicode.org/psi4manual/master/introduction.html#citing-psifour

    -----------------------------------------------------------------------


    Psi4 started on: Saturday, 06 March 2021 07:23PM

    Process ID: 180631
    Host:       c420-011.stampede2.tacc.utexas.edu
    PSIDATADIR: /home1/07844/xy3866/miniconda3/envs/p4env/share/psi4
    Memory:     500.0 MiB
    Threads:    32
    
  ==> Input File <==

--------------------------------------------------------------------------
#psi4
#
memory 32 gb

molecule  {
-2 1
  P        1.2274490    -0.0222580     0.0433940
  O       -0.3905570    -0.3882050    -0.6807720
  O        2.1423100    -0.5208960    -1.0789140
  O        1.1898850    -0.8529840     1.3405840
  O        1.1572260     1.5080110     0.2493660
  C       -1.4468750    -0.0662350     0.1787580
  C       -1.9094950     1.3730130    -0.0649580
  C       -2.5751013    -1.0216181    -0.2140854
  H       -1.1173450    -0.1582630     1.2256300
  H       -2.7054590     1.6884420     0.6308980
  H       -1.0118930     1.9864150     0.0562940
  H       -2.2859860     1.4684620    -1.0931860
  H       -3.4570710    -0.8823980     0.5599660
  H       -2.1978010    -2.0840550     0.1452650
  H       -2.8699830    -1.0350880    -1.1185900
units angstrom
no_reorient  #important for SAPT in psi4, default
symmetry c1  #important for SAPT in psi4, default
}

set PROPERTIES_ORIGIN ["COM"]
properties('MP2/aug-cc-pvtz', properties = ['dipole'])
--------------------------------------------------------------------------

  Memory set to  29.802 GiB by Python driver.
    SCF Algorithm Type (re)set to DF.

*** tstart() called on c420-011.stampede2.tacc.utexas.edu
*** at Sat Mar  6 19:23:20 2021

   => Loading Basis Set <=

    Name: AUG-CC-PVTZ
    Role: ORBITAL
    Keyword: BASIS
    atoms 1    entry P          line   824 file /home1/07844/xy3866/miniconda3/envs/p4env/share/psi4/basis/aug-cc-pvtz.gbs 
    atoms 2-5  entry O          line   331 file /home1/07844/xy3866/miniconda3/envs/p4env/share/psi4/basis/aug-cc-pvtz.gbs 
    atoms 6-8  entry C          line   239 file /home1/07844/xy3866/miniconda3/envs/p4env/share/psi4/basis/aug-cc-pvtz.gbs 
    atoms 9-15 entry H          line    40 file /home1/07844/xy3866/miniconda3/envs/p4env/share/psi4/basis/aug-cc-pvtz.gbs 


         ---------------------------------------------------------
                                   SCF
               by Justin Turney, Rob Parrish, Andy Simmonett
                          and Daniel G. A. Smith
                              RHF Reference
                       32 Threads,  30517 MiB Core
         ---------------------------------------------------------

  ==> Geometry <==

    Molecular point group: c1
    Full point group: C1

    Geometry (in Angstrom), charge = -2, multiplicity = 1:

       Center              X                  Y                   Z               Mass       
    ------------   -----------------  -----------------  -----------------  -----------------
         P            1.106919401126    -0.019793102221     0.059080068918    30.973761998420
         O           -0.511086598874    -0.385740102221    -0.665085931082    15.994914619570
         O            2.021780401126    -0.518431102221    -1.063227931082    15.994914619570
         O            1.069355401126    -0.850519102221     1.356270068918    15.994914619570
         O            1.036696401126     1.510475897779     0.265052068918    15.994914619570
         C           -1.567404598874    -0.063770102221     0.194444068918    12.000000000000
         C           -2.030024598874     1.375477897779    -0.049271931082    12.000000000000
         C           -2.695630898874    -1.019153202221    -0.198399331082    12.000000000000
         H           -1.237874598874    -0.155798102221     1.241316068918     1.007825032230
         H           -2.825988598874     1.690906897779     0.646584068918     1.007825032230
         H           -1.132422598874     1.988879897779     0.071980068918     1.007825032230
         H           -2.406515598874     1.470926897779    -1.077499931082     1.007825032230
         H           -3.577600598874    -0.879933102221     0.575652068918     1.007825032230
         H           -2.318330598874    -2.081590102221     0.160951068918     1.007825032230
         H           -2.990512598874    -1.032623102221    -1.102903931082     1.007825032230

  Running in c1 symmetry.

  Rotational constants: A =      0.10114  B =      0.04066  C =      0.03676 [cm^-1]
  Rotational constants: A =   3032.21892  B =   1218.96323  C =   1101.97525 [MHz]
  Nuclear repulsion =  503.921573300342914

  Charge       = -2
  Multiplicity = 1
  Electrons    = 74
  Nalpha       = 37
  Nbeta        = 37

  ==> Algorithm <==

  SCF Algorithm Type is DF.
  DIIS enabled.
  MOM disabled.
  Fractional occupation disabled.
  Guess Type is SAD.
  Energy threshold   = 1.00e-10
  Density threshold  = 1.00e-10
  Integral threshold = 1.00e-12

  ==> Primary Basis <==

  Basis Set: AUG-CC-PVTZ
    Blend: AUG-CC-PVTZ
    Number of shells: 177
    Number of basis functions: 533
    Number of Cartesian functions: 619
    Spherical Harmonics?: true
    Max angular momentum: 3

   => Loading Basis Set <=

    Name: (AUG-CC-PVTZ AUX)
    Role: JKFIT
    Keyword: DF_BASIS_SCF
    atoms 1    entry P          line   644 file /home1/07844/xy3866/miniconda3/envs/p4env/share/psi4/basis/aug-cc-pvtz-jkfit.gbs 
    atoms 2-5  entry O          line   286 file /home1/07844/xy3866/miniconda3/envs/p4env/share/psi4/basis/aug-cc-pvtz-jkfit.gbs 
    atoms 6-8  entry C          line   162 file /home1/07844/xy3866/miniconda3/envs/p4env/share/psi4/basis/aug-cc-pvtz-jkfit.gbs 
    atoms 9-15 entry H          line    70 file /home1/07844/xy3866/miniconda3/envs/p4env/share/psi4/basis/aug-cc-pvtz-jkfit.gbs 

  ==> Integral Setup <==

  DFHelper Memory: AOs need 2.513 GiB; user supplied 22.352 GiB. Using in-core AOs.

  ==> MemDFJK: Density-Fitted J/K Matrices <==

    J tasked:                   Yes
    K tasked:                   Yes
    wK tasked:                   No
    OpenMP threads:              32
    Memory [MiB]:             22888
    Algorithm:                 Core
    Schwarz Cutoff:           1E-12
    Mask sparsity (%):       6.1016
    Fitting Condition:        1E-10

   => Auxiliary Basis Set <=

  Basis Set: (AUG-CC-PVTZ AUX)
    Blend: AUG-CC-PVTZ-JKFIT
    Number of shells: 350
    Number of basis functions: 1196
    Number of Cartesian functions: 1482
    Spherical Harmonics?: true
    Max angular momentum: 4

  Minimum eigenvalue in the overlap matrix is 8.6048879448E-06.
  Reciprocal condition number of the overlap matrix is 4.7653746105E-07.
    Using symmetric orthogonalization.

  ==> Pre-Iterations <==

  SCF Guess: Superposition of Atomic Densities via on-the-fly atomic UHF (no occupation information).

   -------------------------
    Irrep   Nso     Nmo    
   -------------------------
     A        533     533 
   -------------------------
    Total     533     533
   -------------------------

  ==> Iterations <==

                           Total Energy        Delta E     RMS |[F,P]|

   @DF-RHF iter SAD:  -756.61516435246222   -7.56615e+02   0.00000e+00 
   @DF-RHF iter   1:  -757.54715211321593   -9.31988e-01   1.93710e-03 DIIS
   @DF-RHF iter   2:  -757.86861928112000   -3.21467e-01   1.28477e-03 DIIS
   @DF-RHF iter   3:  -758.02641993239399   -1.57801e-01   1.26516e-04 DIIS
   @DF-RHF iter   4:  -758.02973730701319   -3.31737e-03   4.80136e-05 DIIS
   @DF-RHF iter   5:  -758.03018975957207   -4.52453e-04   1.25133e-05 DIIS
   @DF-RHF iter   6:  -758.03022239684560   -3.26373e-05   4.38761e-06 DIIS
   @DF-RHF iter   7:  -758.03022645231749   -4.05547e-06   1.44092e-06 DIIS
   @DF-RHF iter   8:  -758.03022694199581   -4.89678e-07   4.54638e-07 DIIS
   @DF-RHF iter   9:  -758.03022700039423   -5.83984e-08   1.54339e-07 DIIS
   @DF-RHF iter  10:  -758.03022700832867   -7.93443e-09   4.45454e-08 DIIS
   @DF-RHF iter  11:  -758.03022700901363   -6.84963e-10   1.33727e-08 DIIS
   @DF-RHF iter  12:  -758.03022700905899   -4.53610e-11   6.39160e-09 DIIS
   @DF-RHF iter  13:  -758.03022700906558   -6.59384e-12   1.70641e-09 DIIS
   @DF-RHF iter  14:  -758.03022700906854   -2.95586e-12   5.90138e-10 DIIS
   @DF-RHF iter  15:  -758.03022700906729    1.25056e-12   1.84212e-10 DIIS
   @DF-RHF iter  16:  -758.03022700906820   -9.09495e-13   6.49171e-11 DIIS
  Energy and wave function converged.


  ==> Post-Iterations <==

    Orbital Energies [Eh]
    ---------------------

    Doubly Occupied:                                                      

       1A    -79.675383     2A    -20.202023     3A    -20.119195  
       4A    -20.119174     5A    -20.116509     6A    -10.982967  
       7A    -10.965479     8A    -10.934883     9A     -7.189624  
      10A     -5.089084    11A     -5.086622    12A     -5.086562  
      13A     -1.016170    14A     -0.929932    15A     -0.860765  
      16A     -0.860342    17A     -0.752296    18A     -0.667420  
      19A     -0.509157    20A     -0.394522    21A     -0.342635  
      22A     -0.323372    23A     -0.293777    24A     -0.287754  
      25A     -0.247790    26A     -0.234489    27A     -0.211190  
      28A     -0.185792    29A     -0.183499    30A     -0.167842  
      31A     -0.113442    32A     -0.095065    33A     -0.092208  
      34A     -0.082417    35A     -0.058019    36A     -0.050405  
      37A     -0.027128  

    Virtual:                                                              

      38A      0.184653    39A      0.196733    40A      0.199453  
      41A      0.213582    42A      0.222386    43A      0.239303  
      44A      0.242777    45A      0.276354    46A      0.286815  
      47A      0.296411    48A      0.306813    49A      0.313966  
      50A      0.315548    51A      0.326016    52A      0.332306  
      53A      0.343648    54A      0.351563    55A      0.356800  
      56A      0.360970    57A      0.389088    58A      0.396752  
      59A      0.410579    60A      0.421452    61A      0.428792  
      62A      0.439872    63A      0.444899    64A      0.468263  
      65A      0.472516    66A      0.478424    67A      0.494148  
      68A      0.498622    69A      0.509254    70A      0.512476  
      71A      0.516503    72A      0.525707    73A      0.531274  
      74A      0.534933    75A      0.536622    76A      0.545816  
      77A      0.550450    78A      0.552784    79A      0.563271  
      80A      0.571819    81A      0.572471    82A      0.579528  
      83A      0.589916    84A      0.593605    85A      0.601464  
      86A      0.610916    87A      0.613559    88A      0.620863  
      89A      0.625859    90A      0.633063    91A      0.637802  
      92A      0.649303    93A      0.657939    94A      0.661370  
      95A      0.672058    96A      0.676886    97A      0.683888  
      98A      0.689602    99A      0.696968   100A      0.705815  
     101A      0.716927   102A      0.722388   103A      0.728032  
     104A      0.731273   105A      0.744453   106A      0.750857  
     107A      0.753408   108A      0.761430   109A      0.765259  
     110A      0.770753   111A      0.777708   112A      0.791218  
     113A      0.796694   114A      0.802534   115A      0.807948  
     116A      0.811642   117A      0.822277   118A      0.832872  
     119A      0.834080   120A      0.837374   121A      0.847636  
     122A      0.857118   123A      0.857868   124A      0.872199  
     125A      0.881454   126A      0.884126   127A      0.899894  
     128A      0.925480   129A      0.948782   130A      0.955362  
     131A      0.984939   132A      0.994490   133A      1.011632  
     134A      1.018102   135A      1.027770   136A      1.033720  
     137A      1.044118   138A      1.060943   139A      1.065283  
     140A      1.075697   141A      1.079398   142A      1.089730  
     143A      1.097303   144A      1.102571   145A      1.109543  
     146A      1.123221   147A      1.133523   148A      1.138008  
     149A      1.144290   150A      1.152115   151A      1.156832  
     152A      1.161024   153A      1.175412   154A      1.182000  
     155A      1.189281   156A      1.198748   157A      1.209228  
     158A      1.212310   159A      1.219624   160A      1.223356  
     161A      1.233403   162A      1.240817   163A      1.247213  
     164A      1.253492   165A      1.255729   166A      1.260547  
     167A      1.279548   168A      1.284728   169A      1.297577  
     170A      1.301508   171A      1.314230   172A      1.321027  
     173A      1.324951   174A      1.331335   175A      1.335792  
     176A      1.346963   177A      1.355625   178A      1.366423  
     179A      1.372405   180A      1.381443   181A      1.393099  
     182A      1.401282   183A      1.405054   184A      1.416647  
     185A      1.423962   186A      1.428500   187A      1.433420  
     188A      1.444593   189A      1.455338   190A      1.457073  
     191A      1.473573   192A      1.476014   193A      1.489163  
     194A      1.495636   195A      1.499180   196A      1.508898  
     197A      1.518589   198A      1.524075   199A      1.535394  
     200A      1.547582   201A      1.553572   202A      1.560747  
     203A      1.579892   204A      1.600605   205A      1.604888  
     206A      1.616002   207A      1.627489   208A      1.632147  
     209A      1.644416   210A      1.656030   211A      1.664839  
     212A      1.675370   213A      1.678115   214A      1.689529  
     215A      1.715292   216A      1.726446   217A      1.731042  
     218A      1.743922   219A      1.755241   220A      1.772470  
     221A      1.778989   222A      1.796829   223A      1.799017  
     224A      1.821523   225A      1.831381   226A      1.841604  
     227A      1.852998   228A      1.875538   229A      1.883643  
     230A      1.896540   231A      1.905837   232A      1.911975  
     233A      1.919737   234A      1.935406   235A      1.945899  
     236A      1.952929   237A      1.959586   238A      1.962779  
     239A      1.969798   240A      1.987878   241A      1.991826  
     242A      2.006396   243A      2.011177   244A      2.028520  
     245A      2.048619   246A      2.059658   247A      2.075081  
     248A      2.086030   249A      2.107858   250A      2.116569  
     251A      2.128978   252A      2.134300   253A      2.150714  
     254A      2.166236   255A      2.170164   256A      2.183794  
     257A      2.195618   258A      2.210455   259A      2.221408  
     260A      2.238921   261A      2.243836   262A      2.251395  
     263A      2.271175   264A      2.275609   265A      2.298308  
     266A      2.309084   267A      2.333488   268A      2.336432  
     269A      2.354759   270A      2.366876   271A      2.373834  
     272A      2.387685   273A      2.397204   274A      2.408335  
     275A      2.424293   276A      2.441250   277A      2.446659  
     278A      2.462218   279A      2.471729   280A      2.475371  
     281A      2.493179   282A      2.510124   283A      2.522936  
     284A      2.540952   285A      2.548930   286A      2.558560  
     287A      2.570374   288A      2.579600   289A      2.599730  
     290A      2.602804   291A      2.615849   292A      2.630992  
     293A      2.640263   294A      2.660771   295A      2.676528  
     296A      2.689730   297A      2.696281   298A      2.706046  
     299A      2.717587   300A      2.737150   301A      2.744427  
     302A      2.775425   303A      2.783544   304A      2.797770  
     305A      2.816429   306A      2.823356   307A      2.839792  
     308A      2.865214   309A      2.866765   310A      2.887846  
     311A      2.890944   312A      2.909417   313A      2.938498  
     314A      2.962175   315A      2.974397   316A      2.985168  
     317A      2.989908   318A      3.019889   319A      3.033172  
     320A      3.037629   321A      3.057547   322A      3.080363  
     323A      3.096404   324A      3.106552   325A      3.108951  
     326A      3.124662   327A      3.155172   328A      3.175158  
     329A      3.184961   330A      3.222308   331A      3.250757  
     332A      3.293262   333A      3.299749   334A      3.325037  
     335A      3.389983   336A      3.402690   337A      3.409601  
     338A      3.418549   339A      3.450053   340A      3.492858  
     341A      3.504296   342A      3.553870   343A      3.558578  
     344A      3.583391   345A      3.615045   346A      3.621110  
     347A      3.651130   348A      3.671721   349A      3.708703  
     350A      3.727055   351A      3.745352   352A      3.755478  
     353A      3.779956   354A      3.781585   355A      3.800403  
     356A      3.811225   357A      3.829795   358A      3.852871  
     359A      3.892363   360A      3.903841   361A      3.907450  
     362A      3.922079   363A      3.937728   364A      3.947637  
     365A      3.955273   366A      3.978473   367A      3.988763  
     368A      4.019614   369A      4.022428   370A      4.054565  
     371A      4.056952   372A      4.070655   373A      4.082168  
     374A      4.092312   375A      4.111362   376A      4.126108  
     377A      4.129438   378A      4.157075   379A      4.189680  
     380A      4.198512   381A      4.211583   382A      4.252102  
     383A      4.257753   384A      4.270745   385A      4.280493  
     386A      4.294179   387A      4.353032   388A      4.367130  
     389A      4.386476   390A      4.397452   391A      4.406778  
     392A      4.438327   393A      4.455902   394A      4.465175  
     395A      4.487689   396A      4.506686   397A      4.523820  
     398A      4.559076   399A      4.572229   400A      4.586296  
     401A      4.622162   402A      4.648284   403A      4.652113  
     404A      4.668461   405A      4.698343   406A      4.746853  
     407A      4.782192   408A      4.819736   409A      4.844687  
     410A      4.859247   411A      4.873458   412A      4.910431  
     413A      4.939395   414A      4.994010   415A      5.003095  
     416A      5.010919   417A      5.034121   418A      5.053797  
     419A      5.071846   420A      5.101100   421A      5.131164  
     422A      5.152977   423A      5.169370   424A      5.181584  
     425A      5.195276   426A      5.249009   427A      5.257886  
     428A      5.271772   429A      5.312586   430A      5.321101  
     431A      5.334215   432A      5.381691   433A      5.403732  
     434A      5.415226   435A      5.448120   436A      5.464269  
     437A      5.494217   438A      5.507768   439A      5.539034  
     440A      5.560036   441A      5.579579   442A      5.595437  
     443A      5.634993   444A      5.665294   445A      5.669792  
     446A      5.697097   447A      5.721589   448A      5.758445  
     449A      5.771660   450A      5.829640   451A      5.835935  
     452A      5.857625   453A      5.913505   454A      5.944156  
     455A      5.982785   456A      5.999110   457A      6.023974  
     458A      6.027873   459A      6.063889   460A      6.102027  
     461A      6.121578   462A      6.128905   463A      6.270569  
     464A      6.363849   465A      6.395742   466A      6.416636  
     467A      6.480304   468A      6.507533   469A      6.540955  
     470A      6.608535   471A      6.766268   472A      6.909819  
     473A      6.986518   474A      7.032002   475A      7.042550  
     476A      7.070012   477A      7.082670   478A      7.083538  
     479A      7.122782   480A      7.132315   481A      7.158393  
     482A      7.171921   483A      7.183574   484A      7.212453  
     485A      7.226590   486A      7.268165   487A      7.273589  
     488A      7.282175   489A      7.284098   490A      7.303578  
     491A      7.317640   492A      7.323460   493A      7.334251  
     494A      7.349990   495A      7.366434   496A      7.384696  
     497A      7.424059   498A      7.437543   499A      7.449002  
     500A      7.496686   501A      7.535360   502A      7.551077  
     503A      7.609443   504A      7.632726   505A      7.649656  
     506A      7.682328   507A      7.691495   508A      7.708714  
     509A      7.719643   510A      7.763375   511A      7.798207  
     512A      7.852549   513A      7.917238   514A      7.944982  
     515A      7.966462   516A      7.994605   517A      8.038951  
     518A      8.045303   519A      8.059931   520A      8.090526  
     521A      8.144586   522A      8.191739   523A      8.253322  
     524A      8.456741   525A      8.464975   526A     10.758947  
     527A     12.530761   528A     12.753340   529A     13.954340  
     530A     16.045598   531A     18.326391   532A     18.641643  
     533A     19.301318  

    Final Occupation by Irrep:
              A 
    DOCC [    37 ]

  @DF-RHF Final Energy:  -758.03022700906820

   => Energetics <=

    Nuclear Repulsion Energy =            503.9215733003429136
    One-Electron Energy =               -2074.7937367814784011
    Two-Electron Energy =                 812.8419364720672320
    Total Energy =                       -758.0302270090681986

Computation Completed

*** tstop() called on c420-011.stampede2.tacc.utexas.edu at Sat Mar  6 19:23:47 2021
Module time:
	user time   =     412.50 seconds =       6.88 minutes
	system time =      33.98 seconds =       0.57 minutes
	total time  =         27 seconds =       0.45 minutes
Total time:
	user time   =     412.50 seconds =       6.88 minutes
	system time =      33.98 seconds =       0.57 minutes
	total time  =         27 seconds =       0.45 minutes
   => Loading Basis Set <=

    Name: (AUG-CC-PVTZ AUX)
    Role: RIFIT
    Keyword: DF_BASIS_MP2
    atoms 1    entry P          line   590 file /home1/07844/xy3866/miniconda3/envs/p4env/share/psi4/basis/aug-cc-pvtz-ri.gbs 
    atoms 2-5  entry O          line   264 file /home1/07844/xy3866/miniconda3/envs/p4env/share/psi4/basis/aug-cc-pvtz-ri.gbs 
    atoms 6-8  entry C          line   148 file /home1/07844/xy3866/miniconda3/envs/p4env/share/psi4/basis/aug-cc-pvtz-ri.gbs 
    atoms 9-15 entry H          line    30 file /home1/07844/xy3866/miniconda3/envs/p4env/share/psi4/basis/aug-cc-pvtz-ri.gbs 


*** tstart() called on c420-011.stampede2.tacc.utexas.edu
*** at Sat Mar  6 19:23:47 2021


  //>>>>>>>>>>>>>>>>>>>>>>>>>>>>>>>>>>>//
  //               DFMP2               //
  //<<<<<<<<<<<<<<<<<<<<<<<<<<<<<<<<<<<//

	 --------------------------------------------------------
	                          DF-MP2                         
	      2nd-Order Density-Fitted Moller-Plesset Theory     
	              RMP2 Wavefunction,  32 Threads             
	                                                         
	        Rob Parrish, Justin Turney, Andy Simmonett,      
	           Ed Hohenstein, and C. David Sherrill          
	 --------------------------------------------------------

   => Auxiliary Basis Set <=

  Basis Set: (AUG-CC-PVTZ AUX)
    Blend: AUG-CC-PVTZ-RI
    Number of shells: 331
    Number of basis functions: 1211
    Number of Cartesian functions: 1528
    Spherical Harmonics?: true
    Max angular momentum: 4

	 --------------------------------------------------------
	                 NBF =   533, NAUX =  1211
	 --------------------------------------------------------
	   CLASS    FOCC     OCC    AOCC    AVIR     VIR    FVIR
	   PAIRS       0      37      37     496     496       0
	 --------------------------------------------------------

  DFHelper Memory: AOs need 2.569 GiB; user supplied 22.352 GiB. Using in-core AOs.


         ------------------------------------------------------------
                                     CPHF                           
                                  Rob Parrish                       
         ------------------------------------------------------------

  ==> Geometry <==

    Molecular point group: c1
    Full point group: C1

    Geometry (in Angstrom), charge = -2, multiplicity = 1:

       Center              X                  Y                   Z               Mass       
    ------------   -----------------  -----------------  -----------------  -----------------
         P            1.106919401126    -0.019793102221     0.059080068918    30.973761998420
         O           -0.511086598874    -0.385740102221    -0.665085931082    15.994914619570
         O            2.021780401126    -0.518431102221    -1.063227931082    15.994914619570
         O            1.069355401126    -0.850519102221     1.356270068918    15.994914619570
         O            1.036696401126     1.510475897779     0.265052068918    15.994914619570
         C           -1.567404598874    -0.063770102221     0.194444068918    12.000000000000
         C           -2.030024598874     1.375477897779    -0.049271931082    12.000000000000
         C           -2.695630898874    -1.019153202221    -0.198399331082    12.000000000000
         H           -1.237874598874    -0.155798102221     1.241316068918     1.007825032230
         H           -2.825988598874     1.690906897779     0.646584068918     1.007825032230
         H           -1.132422598874     1.988879897779     0.071980068918     1.007825032230
         H           -2.406515598874     1.470926897779    -1.077499931082     1.007825032230
         H           -3.577600598874    -0.879933102221     0.575652068918     1.007825032230
         H           -2.318330598874    -2.081590102221     0.160951068918     1.007825032230
         H           -2.990512598874    -1.032623102221    -1.102903931082     1.007825032230

  Nuclear repulsion =  503.921573300342914
  Reference energy  = -758.030227009068199

  ==> Basis Set <==

  Basis Set: AUG-CC-PVTZ
    Blend: AUG-CC-PVTZ
    Number of shells: 177
    Number of basis functions: 533
    Number of Cartesian functions: 619
    Spherical Harmonics?: true
    Max angular momentum: 3

  ==> CGRSolver (by Rob Parrish) <==

   Number of roots    =         1
   Preconditioning    =    JACOBI
   Convergence cutoff =     1E-06
   Maximum iterations =       100

  ==> CPHFRHamiltonian (by Rob Parrish) <== 

  ==> MemDFJK: Density-Fitted J/K Matrices <==

    J tasked:                   Yes
    K tasked:                   Yes
    wK tasked:                   No
    OpenMP threads:              32
    Memory [MiB]:             22888
    Algorithm:                 Core
    Schwarz Cutoff:           1E-12
    Mask sparsity (%):       3.8636
    Fitting Condition:        1E-10

   => Auxiliary Basis Set <=

  Basis Set: (AUG-CC-PVTZ AUX)
    Blend: AUG-CC-PVTZ-JKFIT
    Number of shells: 350
    Number of basis functions: 1196
    Number of Cartesian functions: 1482
    Spherical Harmonics?: true
    Max angular momentum: 4

  ==> CPHF Iterations <==

  => Iterations <=

             Iter  Converged  Remaining    Residual
  CGR           1          0          1   8.794E-02
  CGR           2          0          1   1.865E-02
  CGR           3          0          1   7.291E-03
  CGR           4          0          1   2.239E-03
  CGR           5          0          1   7.317E-04
  CGR           6          0          1   2.334E-04
  CGR           7          0          1   7.219E-05
  CGR           8          0          1   2.728E-05
  CGR           9          0          1   7.929E-06
  CGR          10          0          1   2.185E-06
  CGR          11          1          0   8.535E-07

    CGRSolver converged.

	-----------------------------------------------------------
	 ==================> DF-MP2 Energies <==================== 
	-----------------------------------------------------------
	 Reference Energy          =    -758.0302270090681986 [Eh]
	 Singles Energy            =      -0.0000000000000000 [Eh]
	 Same-Spin Energy          =      -0.4700243911022733 [Eh]
	 Opposite-Spin Energy      =      -1.4044127307842080 [Eh]
	 Correlation Energy        =      -1.8744371218864813 [Eh]
	 Total Energy              =    -759.9046641309546430 [Eh]
	-----------------------------------------------------------
	 ================> DF-SCS-MP2 Energies <================== 
	-----------------------------------------------------------
	 SCS Same-Spin Scale       =       0.3333333333333333 [-]
	 SCS Opposite-Spin Scale   =       1.2000000000000000 [-]
	 SCS Same-Spin Energy      =      -0.1566747970340911 [Eh]
	 SCS Opposite-Spin Energy  =      -1.6852952769410496 [Eh]
	 SCS Correlation Energy    =      -1.8419700739751408 [Eh]
	 SCS Total Energy          =    -759.8721970830433747 [Eh]
	-----------------------------------------------------------



Properties will be evaluated at  -0.000000,   0.000000,   0.000000 [a0]

Properties computed using the MP2 density matrix

  Nuclear Dipole Moment: [e a0]
     X:   -16.4592      Y:     0.9552      Z:     0.4289

  Electronic Dipole Moment: [e a0]
     X:    13.2532      Y:    -0.8898      Z:    -0.5061

  Dipole Moment: [e a0]
     X:    -3.2060      Y:     0.0655      Z:    -0.0772     Total:     3.2076

  Dipole Moment: [D]
     X:    -8.1489      Y:     0.1664      Z:    -0.1962     Total:     8.1530


*** tstop() called on c420-011.stampede2.tacc.utexas.edu at Sat Mar  6 19:26:44 2021
Module time:
	user time   =    1134.37 seconds =      18.91 minutes
	system time =      46.83 seconds =       0.78 minutes
	total time  =        177 seconds =       2.95 minutes
Total time:
	user time   =    1547.62 seconds =      25.79 minutes
	system time =      80.82 seconds =       1.35 minutes
	total time  =        204 seconds =       3.40 minutes

    Psi4 stopped on: Saturday, 06 March 2021 07:26PM
    Psi4 wall time for execution: 0:03:24.41

*** Psi4 exiting successfully. Buy a developer a beer!
