
    -----------------------------------------------------------------------
          Psi4: An Open-Source Ab Initio Electronic Structure Package
                               Psi4 1.4a3.dev225 

                         Git: Rev {master} 7105e37 


    D. G. A. Smith, L. A. Burns, A. C. Simmonett, R. M. Parrish,
    M. C. Schieber, R. Galvelis, P. Kraus, H. Kruse, R. Di Remigio,
    A. Alenaizan, A. M. James, S. Lehtola, J. P. Misiewicz, M. Scheurer,
    R. A. Shaw, J. B. Schriber, Y. Xie, Z. L. Glick, D. A. Sirianni,
    J. S. O'Brien, J. M. Waldrop, A. Kumar, E. G. Hohenstein,
    B. P. Pritchard, B. R. Brooks, H. F. Schaefer III, A. Yu. Sokolov,
    K. Patkowski, A. E. DePrince III, U. Bozkaya, R. A. King,
    F. A. Evangelista, J. M. Turney, T. D. Crawford, C. D. Sherrill,
    J. Chem. Phys. 152(18) 184108 (2020). https://doi.org/10.1063/5.0006002

                            Additional Code Authors
    E. T. Seidl, C. L. Janssen, E. F. Valeev, M. L. Leininger,
    J. F. Gonthier, R. M. Richard, H. R. McAlexander, M. Saitow, X. Wang,
    P. Verma, and M. H. Lechner

             Previous Authors, Complete List of Code Contributors,
                       and Citations for Specific Modules
    https://github.com/psi4/psi4/blob/master/codemeta.json
    https://github.com/psi4/psi4/graphs/contributors
    http://psicode.org/psi4manual/master/introduction.html#citing-psifour

    -----------------------------------------------------------------------


    Psi4 started on: Saturday, 06 March 2021 04:37PM

    Process ID: 145688
    Host:       c420-011.stampede2.tacc.utexas.edu
    PSIDATADIR: /home1/07844/xy3866/miniconda3/envs/p4env/share/psi4
    Memory:     500.0 MiB
    Threads:    32
    
  ==> Input File <==

--------------------------------------------------------------------------
#psi4
#
memory 32 gb

molecule  {
-2 1
  P        1.2274490    -0.0222580     0.0433940
  O       -0.4048104    -0.3267569    -0.6772214
  O        2.1423100    -0.5208960    -1.0789140
  O        1.1898850    -0.8529840     1.3405840
  O        1.1572260     1.5080110     0.2493660
  C       -1.4468750    -0.0662350     0.1787580
  C       -1.9094950     1.3730130    -0.0649580
  C       -2.5698170    -1.0762850    -0.0636830
  H       -1.1173450    -0.1582630     1.2256300
  H       -2.7054590     1.6884420     0.6308980
  H       -1.0118930     1.9864150     0.0562940
  H       -2.2859860     1.4684620    -1.0931860
  H       -3.4570710    -0.8823980     0.5599660
  H       -2.1978010    -2.0840550     0.1452650
  H       -2.8699830    -1.0350880    -1.1185900
units angstrom
no_reorient  #important for SAPT in psi4, default
symmetry c1  #important for SAPT in psi4, default
}

set PROPERTIES_ORIGIN ["COM"]
properties('MP2/aug-cc-pvtz', properties = ['dipole'])
--------------------------------------------------------------------------

  Memory set to  29.802 GiB by Python driver.
    SCF Algorithm Type (re)set to DF.

*** tstart() called on c420-011.stampede2.tacc.utexas.edu
*** at Sat Mar  6 16:37:29 2021

   => Loading Basis Set <=

    Name: AUG-CC-PVTZ
    Role: ORBITAL
    Keyword: BASIS
    atoms 1    entry P          line   824 file /home1/07844/xy3866/miniconda3/envs/p4env/share/psi4/basis/aug-cc-pvtz.gbs 
    atoms 2-5  entry O          line   331 file /home1/07844/xy3866/miniconda3/envs/p4env/share/psi4/basis/aug-cc-pvtz.gbs 
    atoms 6-8  entry C          line   239 file /home1/07844/xy3866/miniconda3/envs/p4env/share/psi4/basis/aug-cc-pvtz.gbs 
    atoms 9-15 entry H          line    40 file /home1/07844/xy3866/miniconda3/envs/p4env/share/psi4/basis/aug-cc-pvtz.gbs 


         ---------------------------------------------------------
                                   SCF
               by Justin Turney, Rob Parrish, Andy Simmonett
                          and Daniel G. A. Smith
                              RHF Reference
                       32 Threads,  30517 MiB Core
         ---------------------------------------------------------

  ==> Geometry <==

    Molecular point group: c1
    Full point group: C1

    Geometry (in Angstrom), charge = -2, multiplicity = 1:

       Center              X                  Y                   Z               Mass       
    ------------   -----------------  -----------------  -----------------  -----------------
         P            1.108111868828    -0.022161471081     0.045590867539    30.973761998420
         O           -0.524147531172    -0.326660371081    -0.675024532461    15.994914619570
         O            2.022972868828    -0.520799471081    -1.076717132461    15.994914619570
         O            1.070547868828    -0.852887471081     1.342780867539    15.994914619570
         O            1.037888868828     1.508107528919     0.251562867539    15.994914619570
         C           -1.566212131172    -0.066138471081     0.180954867539    12.000000000000
         C           -2.028832131172     1.373109528919    -0.062761132461    12.000000000000
         C           -2.689154131172    -1.076188471081    -0.061486132461    12.000000000000
         H           -1.236682131172    -0.158166471081     1.227826867539     1.007825032230
         H           -2.824796131172     1.688538528919     0.633094867539     1.007825032230
         H           -1.131230131172     1.986511528919     0.058490867539     1.007825032230
         H           -2.405323131172     1.468558528919    -1.090989132461     1.007825032230
         H           -3.576408131172    -0.882301471081     0.562162867539     1.007825032230
         H           -2.317138131172    -2.083958471081     0.147461867539     1.007825032230
         H           -2.989320131172    -1.034991471081    -1.116393132461     1.007825032230

  Running in c1 symmetry.

  Rotational constants: A =      0.10101  B =      0.04072  C =      0.03673 [cm^-1]
  Rotational constants: A =   3028.20258  B =   1220.64966  C =   1101.01669 [MHz]
  Nuclear repulsion =  504.219125821164369

  Charge       = -2
  Multiplicity = 1
  Electrons    = 74
  Nalpha       = 37
  Nbeta        = 37

  ==> Algorithm <==

  SCF Algorithm Type is DF.
  DIIS enabled.
  MOM disabled.
  Fractional occupation disabled.
  Guess Type is SAD.
  Energy threshold   = 1.00e-10
  Density threshold  = 1.00e-10
  Integral threshold = 1.00e-12

  ==> Primary Basis <==

  Basis Set: AUG-CC-PVTZ
    Blend: AUG-CC-PVTZ
    Number of shells: 177
    Number of basis functions: 533
    Number of Cartesian functions: 619
    Spherical Harmonics?: true
    Max angular momentum: 3

   => Loading Basis Set <=

    Name: (AUG-CC-PVTZ AUX)
    Role: JKFIT
    Keyword: DF_BASIS_SCF
    atoms 1    entry P          line   644 file /home1/07844/xy3866/miniconda3/envs/p4env/share/psi4/basis/aug-cc-pvtz-jkfit.gbs 
    atoms 2-5  entry O          line   286 file /home1/07844/xy3866/miniconda3/envs/p4env/share/psi4/basis/aug-cc-pvtz-jkfit.gbs 
    atoms 6-8  entry C          line   162 file /home1/07844/xy3866/miniconda3/envs/p4env/share/psi4/basis/aug-cc-pvtz-jkfit.gbs 
    atoms 9-15 entry H          line    70 file /home1/07844/xy3866/miniconda3/envs/p4env/share/psi4/basis/aug-cc-pvtz-jkfit.gbs 

  ==> Integral Setup <==

  DFHelper Memory: AOs need 2.513 GiB; user supplied 22.352 GiB. Using in-core AOs.

  ==> MemDFJK: Density-Fitted J/K Matrices <==

    J tasked:                   Yes
    K tasked:                   Yes
    wK tasked:                   No
    OpenMP threads:              32
    Memory [MiB]:             22888
    Algorithm:                 Core
    Schwarz Cutoff:           1E-12
    Mask sparsity (%):       6.0967
    Fitting Condition:        1E-10

   => Auxiliary Basis Set <=

  Basis Set: (AUG-CC-PVTZ AUX)
    Blend: AUG-CC-PVTZ-JKFIT
    Number of shells: 350
    Number of basis functions: 1196
    Number of Cartesian functions: 1482
    Spherical Harmonics?: true
    Max angular momentum: 4

  Minimum eigenvalue in the overlap matrix is 8.4294612839E-06.
  Reciprocal condition number of the overlap matrix is 4.6660233206E-07.
    Using symmetric orthogonalization.

  ==> Pre-Iterations <==

  SCF Guess: Superposition of Atomic Densities via on-the-fly atomic UHF (no occupation information).

   -------------------------
    Irrep   Nso     Nmo    
   -------------------------
     A        533     533 
   -------------------------
    Total     533     533
   -------------------------

  ==> Iterations <==

                           Total Energy        Delta E     RMS |[F,P]|

   @DF-RHF iter SAD:  -756.67745308760414   -7.56677e+02   0.00000e+00 
   @DF-RHF iter   1:  -757.58721671385308   -9.09764e-01   1.92708e-03 DIIS
   @DF-RHF iter   2:  -757.90403828982483   -3.16822e-01   1.27181e-03 DIIS
   @DF-RHF iter   3:  -758.05766265064392   -1.53624e-01   1.26276e-04 DIIS
   @DF-RHF iter   4:  -758.06083165566065   -3.16901e-03   4.80262e-05 DIIS
   @DF-RHF iter   5:  -758.06126521971419   -4.33564e-04   1.22385e-05 DIIS
   @DF-RHF iter   6:  -758.06129383018992   -2.86105e-05   4.38432e-06 DIIS
   @DF-RHF iter   7:  -758.06129754971107   -3.71952e-06   1.26282e-06 DIIS
   @DF-RHF iter   8:  -758.06129793639650   -3.86685e-07   4.07010e-07 DIIS
   @DF-RHF iter   9:  -758.06129798150994   -4.51134e-08   1.39880e-07 DIIS
   @DF-RHF iter  10:  -758.06129798813618   -6.62624e-09   4.07906e-08 DIIS
   @DF-RHF iter  11:  -758.06129798870018   -5.64000e-10   1.50697e-08 DIIS
   @DF-RHF iter  12:  -758.06129798874406   -4.38831e-11   5.90434e-09 DIIS
   @DF-RHF iter  13:  -758.06129798875099   -6.93490e-12   1.35587e-09 DIIS
   @DF-RHF iter  14:  -758.06129798875122   -2.27374e-13   5.15568e-10 DIIS
   @DF-RHF iter  15:  -758.06129798875236   -1.13687e-12   1.66419e-10 DIIS
   @DF-RHF iter  16:  -758.06129798875122    1.13687e-12   5.76251e-11 DIIS
  Energy and wave function converged.


  ==> Post-Iterations <==

    Orbital Energies [Eh]
    ---------------------

    Doubly Occupied:                                                      

       1A    -79.676291     2A    -20.200463     3A    -20.120561  
       4A    -20.118514     5A    -20.116609     6A    -10.978525  
       7A    -10.961312     8A    -10.932786     9A     -7.190470  
      10A     -5.089962    11A     -5.087463    12A     -5.087370  
      13A     -1.023480    14A     -0.931367    15A     -0.862015  
      16A     -0.859426    17A     -0.747916    18A     -0.664665  
      19A     -0.500048    20A     -0.396765    21A     -0.334717  
      22A     -0.319227    23A     -0.303085    24A     -0.275889  
      25A     -0.247612    26A     -0.244751    27A     -0.225298  
      28A     -0.189397    29A     -0.183881    30A     -0.159309  
      31A     -0.113021    32A     -0.095808    33A     -0.092617  
      34A     -0.083119    35A     -0.059308    36A     -0.049009  
      37A     -0.027264  

    Virtual:                                                              

      38A      0.183759    39A      0.196563    40A      0.202457  
      41A      0.213345    42A      0.221439    43A      0.239841  
      44A      0.243954    45A      0.275213    46A      0.287523  
      47A      0.295821    48A      0.307542    49A      0.314105  
      50A      0.315563    51A      0.324061    52A      0.336450  
      53A      0.344395    54A      0.354269    55A      0.355351  
      56A      0.358590    57A      0.389599    58A      0.398108  
      59A      0.411745    60A      0.421856    61A      0.425387  
      62A      0.438801    63A      0.444323    64A      0.469579  
      65A      0.474058    66A      0.479253    67A      0.495387  
      68A      0.497925    69A      0.509851    70A      0.511413  
      71A      0.516608    72A      0.525772    73A      0.531812  
      74A      0.535904    75A      0.538883    76A      0.544528  
      77A      0.554460    78A      0.556091    79A      0.562172  
      80A      0.569269    81A      0.572626    82A      0.581650  
      83A      0.589962    84A      0.596366    85A      0.599825  
      86A      0.609725    87A      0.617644    88A      0.624592  
      89A      0.629729    90A      0.637187    91A      0.644193  
      92A      0.650583    93A      0.662354    94A      0.666981  
      95A      0.671664    96A      0.673109    97A      0.682526  
      98A      0.690110    99A      0.696264   100A      0.706952  
     101A      0.716026   102A      0.721351   103A      0.729041  
     104A      0.731031   105A      0.742408   106A      0.746916  
     107A      0.757458   108A      0.760072   109A      0.763912  
     110A      0.773544   111A      0.776555   112A      0.792335  
     113A      0.794095   114A      0.799300   115A      0.806705  
     116A      0.814794   117A      0.822997   118A      0.829852  
     119A      0.833862   120A      0.836369   121A      0.850327  
     122A      0.855571   123A      0.861901   124A      0.871262  
     125A      0.882707   126A      0.886467   127A      0.903756  
     128A      0.927391   129A      0.940528   130A      0.960639  
     131A      0.985968   132A      0.999309   133A      1.013184  
     134A      1.019582   135A      1.026141   136A      1.032530  
     137A      1.050997   138A      1.062184   139A      1.068391  
     140A      1.077111   141A      1.084860   142A      1.092623  
     143A      1.097227   144A      1.102836   145A      1.114718  
     146A      1.120084   147A      1.129923   148A      1.143803  
     149A      1.145848   150A      1.151362   151A      1.160841  
     152A      1.162317   153A      1.172957   154A      1.179801  
     155A      1.191466   156A      1.200358   157A      1.210613  
     158A      1.215612   159A      1.216224   160A      1.220952  
     161A      1.228003   162A      1.242028   163A      1.246454  
     164A      1.251173   165A      1.255533   166A      1.261617  
     167A      1.270082   168A      1.282945   169A      1.299714  
     170A      1.301589   171A      1.311717   172A      1.319502  
     173A      1.328262   174A      1.333183   175A      1.336939  
     176A      1.353009   177A      1.359973   178A      1.369003  
     179A      1.372763   180A      1.382770   181A      1.390134  
     182A      1.396133   183A      1.407859   184A      1.419020  
     185A      1.421997   186A      1.428338   187A      1.433134  
     188A      1.440988   189A      1.451591   190A      1.458307  
     191A      1.474191   192A      1.478845   193A      1.486854  
     194A      1.491327   195A      1.497276   196A      1.508715  
     197A      1.516605   198A      1.525147   199A      1.535771  
     200A      1.544324   201A      1.556210   202A      1.560554  
     203A      1.587805   204A      1.602399   205A      1.605144  
     206A      1.616453   207A      1.629963   208A      1.634961  
     209A      1.648517   210A      1.653360   211A      1.664877  
     212A      1.677562   213A      1.684334   214A      1.691233  
     215A      1.712991   216A      1.729273   217A      1.732799  
     218A      1.741829   219A      1.754638   220A      1.778124  
     221A      1.788469   222A      1.791833   223A      1.798154  
     224A      1.821409   225A      1.828091   226A      1.844902  
     227A      1.856926   228A      1.869205   229A      1.885139  
     230A      1.900212   231A      1.907428   232A      1.919513  
     233A      1.922581   234A      1.934586   235A      1.942114  
     236A      1.953841   237A      1.966321   238A      1.968694  
     239A      1.977669   240A      1.995003   241A      1.999663  
     242A      2.009816   243A      2.016685   244A      2.026924  
     245A      2.054523   246A      2.057289   247A      2.071538  
     248A      2.088232   249A      2.102633   250A      2.116465  
     251A      2.132416   252A      2.145227   253A      2.152587  
     254A      2.166220   255A      2.170556   256A      2.180131  
     257A      2.197554   258A      2.221507   259A      2.234687  
     260A      2.238483   261A      2.241083   262A      2.252540  
     263A      2.265459   264A      2.275464   265A      2.307898  
     266A      2.314145   267A      2.326558   268A      2.341846  
     269A      2.352251   270A      2.376151   271A      2.385700  
     272A      2.396719   273A      2.413830   274A      2.417692  
     275A      2.430289   276A      2.437112   277A      2.452834  
     278A      2.465556   279A      2.474550   280A      2.485230  
     281A      2.500592   282A      2.514348   283A      2.516964  
     284A      2.531025   285A      2.542443   286A      2.554887  
     287A      2.565757   288A      2.573439   289A      2.595752  
     290A      2.602587   291A      2.620344   292A      2.637754  
     293A      2.645045   294A      2.648841   295A      2.673598  
     296A      2.679066   297A      2.696590   298A      2.712889  
     299A      2.723691   300A      2.741559   301A      2.756327  
     302A      2.777076   303A      2.785088   304A      2.794195  
     305A      2.814982   306A      2.820313   307A      2.842011  
     308A      2.850835   309A      2.871824   310A      2.881778  
     311A      2.889565   312A      2.900242   313A      2.933493  
     314A      2.968633   315A      2.976605   316A      2.979216  
     317A      2.994715   318A      3.015084   319A      3.024685  
     320A      3.043622   321A      3.070806   322A      3.077393  
     323A      3.094247   324A      3.102750   325A      3.113190  
     326A      3.139715   327A      3.150024   328A      3.178672  
     329A      3.194954   330A      3.221651   331A      3.253006  
     332A      3.291835   333A      3.316986   334A      3.349312  
     335A      3.393675   336A      3.400654   337A      3.420265  
     338A      3.435296   339A      3.453869   340A      3.503927  
     341A      3.511869   342A      3.554806   343A      3.568650  
     344A      3.600211   345A      3.613029   346A      3.631334  
     347A      3.666898   348A      3.697702   349A      3.707038  
     350A      3.723917   351A      3.742177   352A      3.749636  
     353A      3.777244   354A      3.786755   355A      3.806842  
     356A      3.822082   357A      3.824618   358A      3.830864  
     359A      3.880323   360A      3.903429   361A      3.910290  
     362A      3.926493   363A      3.942484   364A      3.957662  
     365A      3.965637   366A      3.982409   367A      3.993525  
     368A      4.017539   369A      4.029378   370A      4.036789  
     371A      4.057877   372A      4.064125   373A      4.080171  
     374A      4.103428   375A      4.114068   376A      4.123914  
     377A      4.143041   378A      4.162950   379A      4.185623  
     380A      4.210510   381A      4.218892   382A      4.232965  
     383A      4.251411   384A      4.278684   385A      4.286082  
     386A      4.301269   387A      4.364170   388A      4.368716  
     389A      4.384369   390A      4.397369   391A      4.420656  
     392A      4.437203   393A      4.468974   394A      4.473300  
     395A      4.498187   396A      4.521060   397A      4.538410  
     398A      4.555600   399A      4.576496   400A      4.588435  
     401A      4.622140   402A      4.654019   403A      4.675714  
     404A      4.683356   405A      4.695319   406A      4.756228  
     407A      4.795277   408A      4.837639   409A      4.849174  
     410A      4.861440   411A      4.877153   412A      4.924657  
     413A      4.949589   414A      5.004053   415A      5.030966  
     416A      5.040808   417A      5.058667   418A      5.074039  
     419A      5.093263   420A      5.112341   421A      5.136573  
     422A      5.155583   423A      5.163885   424A      5.186075  
     425A      5.194743   426A      5.229654   427A      5.261436  
     428A      5.282096   429A      5.326278   430A      5.327273  
     431A      5.369508   432A      5.400921   433A      5.402058  
     434A      5.421489   435A      5.461258   436A      5.466429  
     437A      5.497471   438A      5.517137   439A      5.555818  
     440A      5.569602   441A      5.588637   442A      5.602806  
     443A      5.627676   444A      5.652249   445A      5.706593  
     446A      5.707647   447A      5.733739   448A      5.744020  
     449A      5.773048   450A      5.800182   451A      5.823076  
     452A      5.852088   453A      5.912109   454A      5.930945  
     455A      5.986870   456A      5.991020   457A      6.017253  
     458A      6.031790   459A      6.061475   460A      6.076550  
     461A      6.124004   462A      6.176893   463A      6.284547  
     464A      6.350472   465A      6.364405   466A      6.396893  
     467A      6.415785   468A      6.466329   469A      6.506813  
     470A      6.580864   471A      6.603391   472A      6.789448  
     473A      6.936690   474A      7.024923   475A      7.050326  
     476A      7.072349   477A      7.083131   478A      7.095322  
     479A      7.125929   480A      7.137311   481A      7.162912  
     482A      7.169756   483A      7.186007   484A      7.210115  
     485A      7.225413   486A      7.265569   487A      7.274507  
     488A      7.281848   489A      7.285043   490A      7.305921  
     491A      7.317960   492A      7.324078   493A      7.339509  
     494A      7.351629   495A      7.365063   496A      7.382504  
     497A      7.422936   498A      7.443323   499A      7.447514  
     500A      7.506761   501A      7.547490   502A      7.566111  
     503A      7.617006   504A      7.630186   505A      7.651871  
     506A      7.685884   507A      7.689761   508A      7.717482  
     509A      7.723486   510A      7.762658   511A      7.797868  
     512A      7.866226   513A      7.923806   514A      7.959967  
     515A      7.984068   516A      7.998018   517A      8.036237  
     518A      8.041640   519A      8.064541   520A      8.093385  
     521A      8.145293   522A      8.194124   523A      8.292210  
     524A      8.446646   525A      8.461298   526A     10.730301  
     527A     12.527471   528A     12.765157   529A     13.953737  
     530A     16.411287   531A     18.264340   532A     18.472365  
     533A     19.288009  

    Final Occupation by Irrep:
              A 
    DOCC [    37 ]

  @DF-RHF Final Energy:  -758.06129798875122

   => Energetics <=

    Nuclear Repulsion Energy =            504.2191258211643685
    One-Electron Energy =               -2075.4622093496250272
    Two-Electron Energy =                 813.1817855397093808
    Total Energy =                       -758.0612979887512211

Computation Completed

*** tstop() called on c420-011.stampede2.tacc.utexas.edu at Sat Mar  6 16:37:55 2021
Module time:
	user time   =     412.19 seconds =       6.87 minutes
	system time =      34.49 seconds =       0.57 minutes
	total time  =         26 seconds =       0.43 minutes
Total time:
	user time   =     412.19 seconds =       6.87 minutes
	system time =      34.49 seconds =       0.57 minutes
	total time  =         26 seconds =       0.43 minutes
   => Loading Basis Set <=

    Name: (AUG-CC-PVTZ AUX)
    Role: RIFIT
    Keyword: DF_BASIS_MP2
    atoms 1    entry P          line   590 file /home1/07844/xy3866/miniconda3/envs/p4env/share/psi4/basis/aug-cc-pvtz-ri.gbs 
    atoms 2-5  entry O          line   264 file /home1/07844/xy3866/miniconda3/envs/p4env/share/psi4/basis/aug-cc-pvtz-ri.gbs 
    atoms 6-8  entry C          line   148 file /home1/07844/xy3866/miniconda3/envs/p4env/share/psi4/basis/aug-cc-pvtz-ri.gbs 
    atoms 9-15 entry H          line    30 file /home1/07844/xy3866/miniconda3/envs/p4env/share/psi4/basis/aug-cc-pvtz-ri.gbs 


*** tstart() called on c420-011.stampede2.tacc.utexas.edu
*** at Sat Mar  6 16:37:56 2021


  //>>>>>>>>>>>>>>>>>>>>>>>>>>>>>>>>>>>//
  //               DFMP2               //
  //<<<<<<<<<<<<<<<<<<<<<<<<<<<<<<<<<<<//

	 --------------------------------------------------------
	                          DF-MP2                         
	      2nd-Order Density-Fitted Moller-Plesset Theory     
	              RMP2 Wavefunction,  32 Threads             
	                                                         
	        Rob Parrish, Justin Turney, Andy Simmonett,      
	           Ed Hohenstein, and C. David Sherrill          
	 --------------------------------------------------------

   => Auxiliary Basis Set <=

  Basis Set: (AUG-CC-PVTZ AUX)
    Blend: AUG-CC-PVTZ-RI
    Number of shells: 331
    Number of basis functions: 1211
    Number of Cartesian functions: 1528
    Spherical Harmonics?: true
    Max angular momentum: 4

	 --------------------------------------------------------
	                 NBF =   533, NAUX =  1211
	 --------------------------------------------------------
	   CLASS    FOCC     OCC    AOCC    AVIR     VIR    FVIR
	   PAIRS       0      37      37     496     496       0
	 --------------------------------------------------------

  DFHelper Memory: AOs need 2.570 GiB; user supplied 22.352 GiB. Using in-core AOs.


         ------------------------------------------------------------
                                     CPHF                           
                                  Rob Parrish                       
         ------------------------------------------------------------

  ==> Geometry <==

    Molecular point group: c1
    Full point group: C1

    Geometry (in Angstrom), charge = -2, multiplicity = 1:

       Center              X                  Y                   Z               Mass       
    ------------   -----------------  -----------------  -----------------  -----------------
         P            1.108111868828    -0.022161471081     0.045590867539    30.973761998420
         O           -0.524147531172    -0.326660371081    -0.675024532461    15.994914619570
         O            2.022972868828    -0.520799471081    -1.076717132461    15.994914619570
         O            1.070547868828    -0.852887471081     1.342780867539    15.994914619570
         O            1.037888868828     1.508107528919     0.251562867539    15.994914619570
         C           -1.566212131172    -0.066138471081     0.180954867539    12.000000000000
         C           -2.028832131172     1.373109528919    -0.062761132461    12.000000000000
         C           -2.689154131172    -1.076188471081    -0.061486132461    12.000000000000
         H           -1.236682131172    -0.158166471081     1.227826867539     1.007825032230
         H           -2.824796131172     1.688538528919     0.633094867539     1.007825032230
         H           -1.131230131172     1.986511528919     0.058490867539     1.007825032230
         H           -2.405323131172     1.468558528919    -1.090989132461     1.007825032230
         H           -3.576408131172    -0.882301471081     0.562162867539     1.007825032230
         H           -2.317138131172    -2.083958471081     0.147461867539     1.007825032230
         H           -2.989320131172    -1.034991471081    -1.116393132461     1.007825032230

  Nuclear repulsion =  504.219125821164369
  Reference energy  = -758.061297988751221

  ==> Basis Set <==

  Basis Set: AUG-CC-PVTZ
    Blend: AUG-CC-PVTZ
    Number of shells: 177
    Number of basis functions: 533
    Number of Cartesian functions: 619
    Spherical Harmonics?: true
    Max angular momentum: 3

  ==> CGRSolver (by Rob Parrish) <==

   Number of roots    =         1
   Preconditioning    =    JACOBI
   Convergence cutoff =     1E-06
   Maximum iterations =       100

  ==> CPHFRHamiltonian (by Rob Parrish) <== 

  ==> MemDFJK: Density-Fitted J/K Matrices <==

    J tasked:                   Yes
    K tasked:                   Yes
    wK tasked:                   No
    OpenMP threads:              32
    Memory [MiB]:             22888
    Algorithm:                 Core
    Schwarz Cutoff:           1E-12
    Mask sparsity (%):       3.8516
    Fitting Condition:        1E-10

   => Auxiliary Basis Set <=

  Basis Set: (AUG-CC-PVTZ AUX)
    Blend: AUG-CC-PVTZ-JKFIT
    Number of shells: 350
    Number of basis functions: 1196
    Number of Cartesian functions: 1482
    Spherical Harmonics?: true
    Max angular momentum: 4

  ==> CPHF Iterations <==

  => Iterations <=

             Iter  Converged  Remaining    Residual
  CGR           1          0          1   8.710E-02
  CGR           2          0          1   1.850E-02
  CGR           3          0          1   7.140E-03
  CGR           4          0          1   2.183E-03
  CGR           5          0          1   7.542E-04
  CGR           6          0          1   2.212E-04
  CGR           7          0          1   6.514E-05
  CGR           8          0          1   2.445E-05
  CGR           9          0          1   7.157E-06
  CGR          10          0          1   1.911E-06
  CGR          11          1          0   7.789E-07

    CGRSolver converged.

	-----------------------------------------------------------
	 ==================> DF-MP2 Energies <==================== 
	-----------------------------------------------------------
	 Reference Energy          =    -758.0612979887512211 [Eh]
	 Singles Energy            =      -0.0000000000000000 [Eh]
	 Same-Spin Energy          =      -0.4695962712973331 [Eh]
	 Opposite-Spin Energy      =      -1.4024597565488015 [Eh]
	 Correlation Energy        =      -1.8720560278461345 [Eh]
	 Total Energy              =    -759.9333540165973773 [Eh]
	-----------------------------------------------------------
	 ================> DF-SCS-MP2 Energies <================== 
	-----------------------------------------------------------
	 SCS Same-Spin Scale       =       0.3333333333333333 [-]
	 SCS Opposite-Spin Scale   =       1.2000000000000000 [-]
	 SCS Same-Spin Energy      =      -0.1565320904324443 [Eh]
	 SCS Opposite-Spin Energy  =      -1.6829517078585619 [Eh]
	 SCS Correlation Energy    =      -1.8394837982910062 [Eh]
	 SCS Total Energy          =    -759.9007817870422059 [Eh]
	-----------------------------------------------------------



Properties will be evaluated at  -0.000000,  -0.000000,  -0.000000 [a0]

Properties computed using the MP2 density matrix

  Nuclear Dipole Moment: [e a0]
     X:   -16.4525      Y:     0.9421      Z:     0.3526

  Electronic Dipole Moment: [e a0]
     X:    13.2627      Y:    -0.9564      Z:    -0.3408

  Dipole Moment: [e a0]
     X:    -3.1898      Y:    -0.0143      Z:     0.0118     Total:     3.1899

  Dipole Moment: [D]
     X:    -8.1077      Y:    -0.0364      Z:     0.0300     Total:     8.1078


*** tstop() called on c420-011.stampede2.tacc.utexas.edu at Sat Mar  6 16:40:57 2021
Module time:
	user time   =    1139.27 seconds =      18.99 minutes
	system time =      47.74 seconds =       0.80 minutes
	total time  =        181 seconds =       3.02 minutes
Total time:
	user time   =    1552.21 seconds =      25.87 minutes
	system time =      82.25 seconds =       1.37 minutes
	total time  =        208 seconds =       3.47 minutes

    Psi4 stopped on: Saturday, 06 March 2021 04:40PM
    Psi4 wall time for execution: 0:03:28.18

*** Psi4 exiting successfully. Buy a developer a beer!
