opt=Tight                                                               
Freq      RMP2-FC                                                     6-31G(d)            
Number of atoms                            I                5
Info1-9                                    I   N=           9
          14          14        1002           0           0         100
           6           2           1
Charge                                     I               -1
Multiplicity                               I                1
Number of electrons                        I               26
Number of alpha electrons                  I               13
Number of beta electrons                   I               13
Number of basis functions                  I               40
Number of independent functions            I               40
Number of point charges in /Mol/           I                0
Number of translation vectors              I                0
Atomic numbers                             I   N=           5
          16           6           1           1           1
Nuclear charges                            R   N=           5
  1.60000000E+01  6.00000000E+00  1.00000000E+00  1.00000000E+00  1.00000000E+00
Current cartesian coordinates              R   N=          15
  1.33861102E+00 -1.15422207E-07  8.60801542E-07 -2.11348923E+00  9.04786898E-07
 -1.80976324E-06 -2.91227090E+00  1.68119086E+00 -9.27004687E-01 -2.91227242E+00
 -1.64341025E+00 -9.92446398E-01 -2.91229767E+00 -3.77841847E-02  1.91944817E+00
Force Field                                I                0
Int Atom Types                             I   N=           5
           0           0           0           0           0
MM charges                                 R   N=           5
  0.00000000E+00  0.00000000E+00  0.00000000E+00  0.00000000E+00  0.00000000E+00
Integer atomic weights                     I   N=           5
          32          12           1           1           1
Real atomic weights                        R   N=           5
  3.19720718E+01  1.20000000E+01  1.00782504E+00  1.00782504E+00  1.00782504E+00
Atom fragment info                         I   N=           5
           0           0           0           0           0
Atom residue num                           I   N=           5
           0           0           0           0           0
Nuclear spins                              I   N=           5
           0           0           1           1           1
Nuclear ZEff                               R   N=           5
 -1.36000000E+01 -3.60000000E+00 -1.00000000E+00 -1.00000000E+00 -1.00000000E+00
Nuclear QMom                               R   N=           5
  0.00000000E+00  0.00000000E+00  0.00000000E+00  0.00000000E+00  0.00000000E+00
Nuclear GFac                               R   N=           5
  0.00000000E+00  0.00000000E+00  2.79284600E+00  2.79284600E+00  2.79284600E+00
MicOpt                                     I   N=           5
          -1          -1          -1          -1          -1
Number of contracted shells                I               15
Number of primitive shells                 I               40
Pure/Cartesian d shells                    I                1
Pure/Cartesian f shells                    I                0
Highest angular momentum                   I                2
Largest degree of contraction              I                6
Shell types                                I   N=          15
           0          -1          -1          -1           2           0
          -1          -1           2           0           0           0
           0           0           0
Number of primitives per shell             I   N=          15
           6           6           3           1           1           6
           3           1           1           3           1           3
           1           3           1
Shell to atom map                          I   N=          15
           1           1           1           1           1           2
           2           2           2           3           3           4
           4           5           5
Primitive exponents                        R   N=          40
  2.19171000E+04  3.30149000E+03  7.54146000E+02  2.12711000E+02  6.79896000E+01
  2.30515000E+01  4.23735000E+02  1.00710000E+02  3.21599000E+01  1.18079000E+01
  4.63110000E+00  1.87025000E+00  2.61584000E+00  9.22167000E-01  3.41287000E-01
  1.17167000E-01  6.50000000E-01  3.04752488E+03  4.57369518E+02  1.03948685E+02
  2.92101553E+01  9.28666296E+00  3.16392696E+00  7.86827235E+00  1.88128854E+00
  5.44249258E-01  1.68714478E-01  8.00000000E-01  1.87311370E+01  2.82539436E+00
  6.40121692E-01  1.61277759E-01  1.87311370E+01  2.82539436E+00  6.40121692E-01
  1.61277759E-01  1.87311370E+01  2.82539436E+00  6.40121692E-01  1.61277759E-01
Contraction coefficients                   R   N=          40
  1.86924085E-03  1.42303065E-02  6.96962317E-02  2.38487108E-01  4.83307220E-01
  3.38074154E-01 -2.37677050E-03 -3.16930067E-02 -1.13317024E-01  5.60900118E-02
  5.92255124E-01  4.55006095E-01 -2.50373114E-01  6.69567631E-02  1.05450627E+00
  1.00000000E+00  1.00000000E+00  1.83473713E-03  1.40373228E-02  6.88426223E-02
  2.32184443E-01  4.67941348E-01  3.62311985E-01 -1.19332420E-01 -1.60854152E-01
  1.14345644E+00  1.00000000E+00  1.00000000E+00  3.34946043E-02  2.34726953E-01
  8.13757326E-01  1.00000000E+00  3.34946043E-02  2.34726953E-01  8.13757326E-01
  1.00000000E+00  3.34946043E-02  2.34726953E-01  8.13757326E-01  1.00000000E+00
P(S=P) Contraction coefficients            R   N=          40
  0.00000000E+00  0.00000000E+00  0.00000000E+00  0.00000000E+00  0.00000000E+00
  0.00000000E+00  4.06100998E-03  3.06812999E-02  1.30451999E-01  3.27204999E-01
  4.52850998E-01  2.56041999E-01 -1.45104895E-02  3.10262776E-01  7.54482456E-01
  1.00000000E+00  0.00000000E+00  0.00000000E+00  0.00000000E+00  0.00000000E+00
  0.00000000E+00  0.00000000E+00  0.00000000E+00  6.89990666E-02  3.16423961E-01
  7.44308291E-01  1.00000000E+00  0.00000000E+00  0.00000000E+00  0.00000000E+00
  0.00000000E+00  0.00000000E+00  0.00000000E+00  0.00000000E+00  0.00000000E+00
  0.00000000E+00  0.00000000E+00  0.00000000E+00  0.00000000E+00  0.00000000E+00
Coordinates of each shell                  R   N=          45
  1.33861102E+00 -1.15422207E-07  8.60801542E-07  1.33861102E+00 -1.15422207E-07
  8.60801542E-07  1.33861102E+00 -1.15422207E-07  8.60801542E-07  1.33861102E+00
 -1.15422207E-07  8.60801542E-07  1.33861102E+00 -1.15422207E-07  8.60801542E-07
 -2.11348923E+00  9.04786898E-07 -1.80976324E-06 -2.11348923E+00  9.04786898E-07
 -1.80976324E-06 -2.11348923E+00  9.04786898E-07 -1.80976324E-06 -2.11348923E+00
  9.04786898E-07 -1.80976324E-06 -2.91227090E+00  1.68119086E+00 -9.27004687E-01
 -2.91227090E+00  1.68119086E+00 -9.27004687E-01 -2.91227242E+00 -1.64341025E+00
 -9.92446398E-01 -2.91227242E+00 -1.64341025E+00 -9.92446398E-01 -2.91229767E+00
 -3.77841847E-02  1.91944817E+00 -2.91229767E+00 -3.77841847E-02  1.91944817E+00
Constraint Structure                       R   N=          15
  1.33861102E+00 -1.15422207E-07  8.60801542E-07 -2.11348923E+00  9.04786898E-07
 -1.80976324E-06 -2.91227090E+00  1.68119086E+00 -9.27004687E-01 -2.91227242E+00
 -1.64341025E+00 -9.92446398E-01 -2.91229767E+00 -3.77841847E-02  1.91944817E+00
Num ILSW                                   I              100
ILSW                                       I   N=         100
           0           1           0           0           2           0
           0           0           0           0           0          -1
           0           0           0           0           0           0
           0           0           0           0           1           0
           1           0           0           0           0           0
           0           0      100000           0          -1           0
           0           0           0           0           0           0
           0           0           0           1           1           0
           0           0           1           0           0           0
           0           0           4          40           0           0
           0           0           0           0           0           0
           0           0           0           0           0           0
           0           0           0           0           0           0
           0           0           0           0           0           0
           0           0           0           0           0           0
           0           0           0           0           0           0
           0           0           0           0
Num RLSW                                   I               40
RLSW                                       R   N=          40
  1.00000000E+00  1.00000000E+00  1.00000000E+00  1.00000000E+00  1.00000000E+00
  0.00000000E+00  0.00000000E+00  1.00000000E+00  0.00000000E+00  0.00000000E+00
  0.00000000E+00  0.00000000E+00  1.00000000E+00  0.00000000E+00  0.00000000E+00
  0.00000000E+00  0.00000000E+00  1.00000000E+00  0.00000000E+00  0.00000000E+00
  0.00000000E+00  0.00000000E+00  1.00000000E+00  0.00000000E+00  0.00000000E+00
  0.00000000E+00  0.00000000E+00  1.00000000E+00  0.00000000E+00  0.00000000E+00
  0.00000000E+00  0.00000000E+00  0.00000000E+00  0.00000000E+00  0.00000000E+00
  0.00000000E+00  0.00000000E+00  0.00000000E+00  1.00000000E+00  1.00000000E+00
MxBond                                     I                4
NBond                                      I   N=           5
           1           4           1           1           1
IBond                                      I   N=          20
           2           0           0           0           1           3
           4           5           2           0           0           0
           2           0           0           0           2           0
           0           0
RBond                                      R   N=          20
  1.00000000E+00  0.00000000E+00  0.00000000E+00  0.00000000E+00  1.00000000E+00
  1.00000000E+00  1.00000000E+00  1.00000000E+00  1.00000000E+00  0.00000000E+00
  0.00000000E+00  0.00000000E+00  1.00000000E+00  0.00000000E+00  0.00000000E+00
  0.00000000E+00  1.00000000E+00  0.00000000E+00  0.00000000E+00  0.00000000E+00
Virial Ratio                               R      2.000515626834238E+00
SCF Energy                                 R     -4.371146776368590E+02
MP2 Energy                                 R     -4.373659538719750E+02
Total Energy                               R     -4.373659538719750E+02
Post-SCF wavefunction norm                 R      1.481314705582371E+00
RMS Force                                  R      5.994545735602728E-06
RMS Density                                R      4.451876850558707E-10
External E-field                           R   N=          35
  0.00000000E+00  0.00000000E+00  0.00000000E+00  0.00000000E+00  0.00000000E+00
  0.00000000E+00  0.00000000E+00  0.00000000E+00  0.00000000E+00  0.00000000E+00
  0.00000000E+00  0.00000000E+00  0.00000000E+00  0.00000000E+00  0.00000000E+00
  0.00000000E+00  0.00000000E+00  0.00000000E+00  0.00000000E+00  0.00000000E+00
  0.00000000E+00  0.00000000E+00  0.00000000E+00  0.00000000E+00  0.00000000E+00
  0.00000000E+00  0.00000000E+00  0.00000000E+00  0.00000000E+00  0.00000000E+00
  0.00000000E+00  0.00000000E+00  0.00000000E+00  0.00000000E+00  0.00000000E+00
IOpCl                                      I                0
IROHF                                      I                0
Alpha Orbital Energies                     R   N=          40
 -9.16266032E+01 -1.10360228E+01 -8.63319170E+00 -6.31719915E+00 -6.31383089E+00
 -6.31383089E+00 -7.64874660E-01 -5.59283926E-01 -3.55683295E-01 -3.55680777E-01
 -2.16084205E-01 -6.19572014E-02 -6.19571587E-02  4.18223489E-01  4.96343945E-01
  4.96344644E-01  4.98347690E-01  7.49748181E-01  8.13669128E-01  8.27350486E-01
  8.27350756E-01  9.61445053E-01  9.61445482E-01  1.04657236E+00  1.32812358E+00
  1.32812537E+00  1.38314393E+00  1.38314472E+00  1.39823252E+00  1.43720669E+00
  1.43720788E+00  1.51958418E+00  1.68503913E+00  2.22320869E+00  2.22320899E+00
  2.69466206E+00  2.78342504E+00  2.78342676E+00  4.61876053E+00  4.83244076E+00
Alpha MO coefficients                      R   N=        1600
  9.96259756E-01  1.42549391E-02 -7.16138753E-05  1.99782103E-11  4.18966180E-11
 -1.98850724E-02  9.44522924E-05 -1.47859812E-11  2.69927890E-10  2.51003464E-03
 -1.50206235E-04  8.04320753E-11 -3.87589067E-10  6.90437209E-03  6.91160118E-03
  6.91160103E-03 -1.96300727E-11 -8.53748826E-11 -2.29478174E-12 -8.48678009E-06
  2.22974820E-05  1.22389544E-04  5.74430905E-11  2.62915591E-10  3.10304283E-04
 -1.59986371E-04 -1.49315029E-10 -2.36003758E-09 -2.45586466E-05 -2.05992304E-05
 -2.06004146E-05  9.27960897E-12 -1.40451704E-10 -4.51677195E-11 -2.17433326E-05
 -2.07464071E-04 -2.17433544E-05 -2.07463759E-04 -2.17429083E-05 -2.07460037E-04
  1.96701579E-06 -1.99195463E-05  5.02053620E-05 -3.43182248E-12  1.16589985E-10
  3.62902613E-04 -4.44540288E-04  6.01748826E-11 -1.09674377E-09  1.86814273E-03
 -1.24085217E-03 -2.14192311E-10  5.41624806E-09 -9.38374959E-05 -1.31821212E-04
 -1.31819826E-04  2.31704088E-10 -2.13604080E-09  8.40507191E-11  9.95810233E-01
  2.76095223E-02 -1.99444020E-04 -2.29398141E-10  1.38506998E-09 -1.31048221E-02
  1.02740695E-04  2.61045964E-09 -4.84746594E-09 -1.89518457E-03 -1.73083894E-03
 -1.73084548E-03 -1.50793890E-09  4.41292402E-10 -2.01763973E-09  6.14080537E-05
  2.33800085E-03  6.14108442E-05  2.33799582E-03  6.14114878E-05  2.33799556E-03
 -2.81819474E-01  1.03031231E+00 -5.06984677E-03  1.60046745E-09  7.12559158E-09
  2.32726407E-02 -1.24803717E-03  3.63778648E-10 -1.18133069E-09 -5.66508255E-03
  6.95820307E-04 -2.82565641E-10  5.79642018E-10 -7.47482044E-04 -1.49877770E-03
 -1.49877702E-03 -1.83439609E-10  6.67123946E-10 -4.77124050E-12 -6.78794238E-05
  6.56228752E-04 -2.18000144E-04 -1.59873908E-10 -8.56340809E-10 -1.11099724E-03
  1.87899222E-04  4.12715007E-10  1.28644867E-08 -6.03080771E-04  9.27039524E-05
  9.27074793E-05  1.96306788E-10 -7.22667465E-10  1.45033845E-11 -1.82667031E-05
  6.65319936E-04 -1.82665521E-05  6.65318976E-04 -1.82680969E-05  6.65298487E-04
 -1.65459787E-03  6.30881437E-03  9.92920653E-01 -2.41179089E-07  8.46828145E-08
 -3.75074074E-03  2.37039144E-02 -5.67919634E-09  1.06710414E-09 -5.19293149E-04
 -5.16984358E-03  1.37667041E-09  1.24084059E-09 -2.14903585E-04  1.50578397E-03
  1.50578324E-03  4.95453429E-10 -2.32509541E-09  6.46003482E-12  2.83979715E-05
 -1.26801484E-03  5.79136935E-04  3.40892441E-10  1.12919574E-09  3.27420099E-03
  9.87731532E-04 -1.28233542E-09 -1.98176086E-08  1.09812912E-03 -2.27538111E-04
 -2.27546234E-04 -4.65365978E-10  1.53938920E-09 -1.88552617E-10 -1.70199564E-04
 -9.79852828E-04 -1.70199716E-04 -9.79851661E-04 -1.70192248E-04 -9.79822941E-04
  2.04566525E-09 -8.06856042E-09 -9.19562095E-08 -3.39875306E-02  9.93225033E-01
  3.67875902E-09 -2.69127557E-09 -7.03655448E-04  2.05630761E-02 -3.42288238E-09
  3.22844949E-09  1.63865620E-04 -4.78868851E-03 -3.31473670E-09  6.11735831E-06
 -6.12098385E-06  1.55596080E-05 -4.54697597E-04  1.75681768E-07 -4.43188927E-10
 -3.00410466E-09 -1.06159401E-09 -2.45091982E-08  7.07663088E-07  1.27168257E-08
  7.75467684E-09  1.46445377E-05 -4.27890424E-04  2.03985765E-10  3.68452773E-05
 -3.68458212E-05  8.62993838E-06 -2.52197783E-04  1.05697965E-06  2.71630431E-05
 -4.60639284E-04  2.58300502E-05 -4.38026689E-04 -5.29981643E-05  8.98660256E-04
  1.89237720E-10 -7.49251962E-10  2.38344940E-07  9.93225033E-01  3.39875306E-02
  3.54256092E-10  5.02767318E-09  2.05630756E-02  7.03655375E-04  5.23965208E-11
 -1.26384834E-09 -4.78868702E-03 -1.63866096E-04 -3.49197353E-10 -1.51973396E-07
  1.51842127E-07 -4.54698927E-04 -1.55593658E-05  7.06595328E-06 -9.59416078E-11
 -3.40637797E-10  1.26479589E-12  7.09876704E-07  2.39975276E-08  8.80305835E-10
 -2.82181510E-10 -4.27912099E-04 -1.46404820E-05 -3.64893696E-10 -9.15506563E-07
  9.15419858E-07 -2.52196325E-04 -8.63010804E-06  4.25479860E-05 -4.55069285E-05
  7.71750511E-04  4.62765575E-05 -7.84802940E-04 -7.70050854E-07  1.30512958E-05
  3.13102838E-02 -1.47238791E-01  4.43431435E-02 -1.79569147E-08  7.30870116E-08
  2.67806499E-01 -9.97007544E-02  3.99544202E-08 -1.69668324E-07  1.04741922E-01
  1.13828509E-03  1.25207876E-08 -5.33639844E-08  3.42967825E-02 -7.72007945E-03
 -7.72009062E-03 -2.15339740E-08  5.23167784E-08 -1.09714198E-09 -1.76399471E-01
  3.29588946E-01  1.21016916E-03  2.31473127E-07 -4.39781715E-07  3.26971012E-01
 -6.29356644E-03 -5.12240818E-09 -3.51943323E-08  1.08716657E-02  8.03742525E-03
  8.03700494E-03 -1.62944289E-08 -1.63685829E-07 -5.51722153E-08  1.19668082E-01
  3.70198157E-02  1.19667637E-01  3.70197329E-02  1.19667262E-01  3.70197135E-02
  6.26322804E-02 -2.97631884E-01  5.57560059E-03  5.61885487E-09  5.50933783E-08
  5.64248763E-01 -1.06312681E-02 -1.37382004E-08 -1.50387971E-07  3.30812013E-01
  8.23463696E-03 -5.05024142E-09 -4.56972333E-08  1.08855882E-02 -2.12891483E-03
 -2.12892083E-03  9.25954948E-10  2.18965810E-08 -2.81602640E-10  6.75532075E-02
 -1.27638510E-01  2.05610317E-01 -3.45844297E-07 -1.31589664E-07 -1.40132776E-01
  9.38132616E-02 -6.79672824E-08 -1.18812993E-07  1.49044858E-02 -1.11419903E-02
 -1.11418649E-02  1.30362418E-08  2.32965056E-07  4.94676776E-08 -9.57006062E-02
 -5.61215858E-02 -9.57001376E-02 -5.61213775E-02 -9.57013136E-02 -5.61220522E-02
 -1.67013332E-08  7.79963669E-08  2.14469566E-08 -4.11063523E-02  5.08586044E-03
 -1.62327768E-07 -4.21303880E-08  1.00581711E-01 -1.24444155E-02 -1.73983858E-07
  1.01724004E-08  3.52415006E-02 -4.36025274E-03  2.58338308E-10  1.18057861E-04
 -1.18062336E-04 -1.66175550E-02  2.05599902E-03 -7.40159223E-04 -1.72100337E-08
  1.59653803E-07  3.71886899E-07  4.17837015E-01 -5.16969189E-02 -3.06479627E-07
  2.90761731E-07  2.01800226E-01 -2.49676570E-02 -6.76645238E-08  4.20146878E-03
 -4.20147204E-03 -2.36480408E-02  2.92590486E-03 -2.63400982E-02  2.47292734E-01
  2.39112842E-01 -2.09388689E-01 -2.02462733E-01 -3.79044716E-02 -3.66508204E-02
  3.29394812E-07 -1.58257658E-06 -7.68500803E-07 -5.08593697E-03 -4.11066675E-02
  3.08988946E-06  1.78855833E-06  1.24446084E-02  1.00582521E-01  3.10551660E-06
  3.07489447E-07  4.36033923E-03  3.52422283E-02 -2.44438109E-07 -6.40854179E-04
  6.41067497E-04 -2.05601537E-03 -1.66175859E-02 -1.36321642E-04  3.70811261E-07
 -7.39648001E-07 -2.86925281E-06  5.16966927E-02  4.17836439E-01 -1.29554399E-06
 -1.42145219E-06  2.49678836E-02  2.01801160E-01  3.32766651E-07 -2.28112050E-02
  2.28109477E-02 -2.92582622E-03 -2.36482691E-02 -4.85147025E-03 -9.90062770E-02
 -9.57320564E-02 -1.64658273E-01 -1.59212958E-01  2.63664913E-01  2.54946014E-01
  2.27508397E-02 -1.13085421E-01 -1.81008057E-01  7.71855450E-08  5.51284803E-07
  2.17026884E-01  4.44452238E-01 -1.93747169E-07 -1.36298344E-06  3.49907236E-01
  1.41624775E-01 -7.24973546E-08 -8.27995511E-07 -6.65429577E-02  2.27206705E-02
  2.27206277E-02  3.21552906E-08  1.90682716E-07 -6.01204711E-10  4.13540537E-02
 -7.16164183E-02 -3.66230586E-01  1.01201694E-07 -3.66461850E-06 -2.35116175E-01
 -2.88822559E-01  4.69103533E-08 -2.48180484E-06 -2.04719161E-02  8.58163977E-03
  8.58139153E-03  1.52902429E-09 -3.62818196E-08  4.31912125E-10  5.90228804E-02
  7.78665960E-02  5.90228885E-02  7.78666994E-02  5.90215023E-02  7.78644637E-02
  1.10109261E-09 -1.03084828E-08  2.17959665E-07 -1.97979516E-01  1.33951745E-01
 -7.53007203E-09 -5.71638130E-07  5.07588416E-01 -3.43431259E-01  2.08512537E-08
 -4.28362889E-07  4.31066295E-01 -2.91656706E-01  1.72872450E-08 -8.13627404E-04
  8.13619228E-04 -4.63999598E-03  3.13944479E-03  1.22586056E-03  1.19202008E-07
 -1.79079911E-07  2.25536180E-07 -6.12308599E-02  4.14283197E-02 -7.60567928E-07
  5.16956161E-07 -1.03598526E-02  7.00921123E-03  1.43378492E-07 -4.25228193E-03
  4.25219964E-03  2.03022149E-02 -1.37364170E-02  6.40700806E-03 -8.78294007E-02
 -1.72678428E-01  3.69792312E-02  7.27037145E-02  5.08501244E-02  9.99753654E-02
 -4.34936568E-09  1.81697314E-08 -4.39449575E-07 -1.33951790E-01 -1.97979413E-01
 -4.75838238E-08  1.14132423E-06  3.43431377E-01  5.07588158E-01  1.33523422E-07
  7.76492888E-07  2.91656980E-01  4.31065899E-01 -4.86320039E-08  1.06169988E-03
 -1.06167447E-03 -3.13938663E-03 -4.64005813E-03  9.39461954E-04 -1.09886145E-07
  1.10384224E-07 -3.39717140E-07 -4.14284840E-02 -6.12307246E-02  9.28945073E-07
 -8.60079143E-07 -7.00957837E-03 -1.03597898E-02 -1.85022524E-07  5.54870972E-03
 -5.54857479E-03  1.37363628E-02  2.03022977E-02  4.91008309E-03 -8.00785577E-03
 -1.57439595E-02  8.00668382E-02  1.57416858E-01 -7.20587042E-02 -1.41673035E-01
 -5.45954573E-03  4.82880007E-02 -7.18919621E-02 -3.93510867E-08  2.59667686E-07
  1.39826657E-02  1.74479542E-01  9.09403106E-08 -5.10608936E-07 -5.87251282E-01
  7.86375724E-01  4.42951368E-07 -2.79212878E-06  4.93452792E-02 -1.88952331E-02
 -1.88950605E-02  7.84926267E-08 -3.41448519E-07 -9.13293612E-10 -1.58408007E-01
  9.84606651E-02  1.03739935E-03 -7.24226510E-07  1.76632957E-06  2.56806614E+00
  5.81805874E-03 -2.45752662E-06  6.09939939E-06 -1.82618792E-02 -1.53725542E-02
 -1.53727604E-02  1.07482809E-08 -1.55360673E-07 -2.78998608E-08  5.68721023E-03
 -9.11020032E-01  5.68699108E-03 -9.11021652E-01  5.68700722E-03 -9.11029119E-01
  4.13857179E-06 -1.74201581E-05  1.39021737E-05 -1.47791881E-04 -7.37554474E-04
  5.12906876E-05 -3.29472637E-05 -3.30696340E-03 -1.64888057E-02  9.32058377E-05
 -1.71462651E-04  6.19109151E-02  3.08723934E-01 -8.68568619E-06 -1.50316931E-02
  1.50442476E-02  9.87521699E-03  4.92437762E-02 -4.56286246E-03 -2.09317648E-06
 -9.10501993E-06 -4.91599975E-05 -6.33301998E-02 -3.15798745E-01  1.21953839E-04
 -1.91706981E-04 -2.91536641E-01 -1.45375461E+00  2.38794804E-06 -5.84001452E-03
  5.83542276E-03 -2.87844062E-04 -1.43551841E-03 -1.77125420E-03 -1.25955455E-02
 -5.52534763E-01 -2.82277276E-02 -1.23819395E+00  4.08193448E-02  1.79032797E+00
  2.06556841E-07 -1.01681399E-06  8.23029737E-07 -7.36614892E-04  1.47837754E-04
  2.08025966E-06 -1.93498745E-06 -1.64914640E-02  3.30689724E-03  8.86620955E-06
 -1.29657217E-05  3.08722332E-01 -6.19117030E-02 -7.40502053E-07  3.95193271E-03
 -3.95105540E-03  4.92431755E-02 -9.87534745E-03 -1.73645140E-02  2.56972642E-07
 -5.92337281E-07 -3.48354477E-06 -3.15798010E-01  6.33301566E-02 -3.88481819E-06
 -1.42916933E-05 -1.45376669E+00  2.91537420E-01  1.28648875E-07  1.53386925E-03
 -1.53394148E-03 -1.43532552E-03  2.87874726E-04 -6.74045815E-03  3.98627338E-02
  1.74852438E+00 -3.08378432E-02 -1.35266604E+00 -9.02509484E-03 -3.95872710E-01
 -2.63787588E-02  1.13278847E-01 -8.93060349E-02  1.01021653E-08  2.52888524E-10
 -3.19679875E-01  2.11002428E-01 -7.45383553E-07 -2.89529841E-06 -6.73290372E-01
  1.17532414E+00  1.17028955E-05  4.78267113E-05  6.14284554E-02 -4.27734902E-02
 -4.27692610E-02  1.88300606E-06  7.54415556E-06 -8.71229333E-07  1.03221684E-02
  5.96932604E-02  3.35284391E-01 -1.23388396E-05 -4.67011665E-05 -7.17089993E-01
  1.34503695E+00 -5.76000153E-05 -2.15663882E-04 -1.44462442E-02  1.36195933E-02
  1.36210184E-02 -2.76767550E-08 -1.94342177E-07 -3.33432252E-07  6.66212801E-03
  8.65906942E-01  6.65919274E-03  8.65772542E-01  6.66794036E-03  8.66245014E-01
 -6.70853175E-02  7.18474783E-02  2.71792718E-02  1.75363073E-08  7.02311228E-07
 -1.49926261E+00 -5.80264691E-02 -8.27474313E-08 -2.68928188E-06  2.20892041E+00
 -5.24038912E-01  2.06363035E-07  2.04903485E-06 -2.19083564E-01 -3.91362396E-02
 -3.91357544E-02  6.95582550E-08 -1.88717085E-09  1.26277794E-08 -1.40014657E-02
  7.10946627E-02 -1.65057869E-01 -1.08339423E-07 -2.35795384E-06 -1.32907782E-01
 -3.84184871E-01  5.20272356E-07 -4.27073745E-06 -5.72042857E-02  2.27378751E-02
  2.27382765E-02  2.39529679E-08 -1.47226528E-07  1.77532784E-08  2.17106446E-03
 -3.32645941E-01  2.17103773E-03 -3.32644553E-01  2.17044208E-03 -3.32633233E-01
  1.35910294E-03 -1.54611879E-02 -3.01787753E-01 -7.63591583E-08  5.20224190E-06
  1.03442808E-02  1.22295019E+00  2.84241369E-07 -2.05754038E-05 -4.62392245E-02
 -1.17339334E+00 -6.74557426E-08  1.82600659E-05 -8.85083873E-02  1.81388469E-02
  1.81389565E-02  1.07098053E-07 -3.03515024E-07 -1.28853375E-08 -2.73731631E-02
  2.09278505E-01 -6.70461979E-02  2.64473178E-07 -4.48797106E-06 -4.97885423E-01
  4.49820453E-01 -8.94057445E-07  4.17096491E-06 -1.02698488E-01  5.51510769E-02
  5.51497962E-02  6.49720098E-08 -2.35225409E-07 -1.91195983E-08  9.12536163E-02
 -4.00146153E-02  9.12531392E-02 -4.00149216E-02  9.12449144E-02 -4.00037788E-02
  1.40634603E-07  1.31642059E-07  4.98986277E-06  1.24749104E-02  3.07529435E-01
  3.62536411E-06 -2.04732612E-05 -5.01514341E-02 -1.23632471E+00 -4.69335569E-06
  2.10271765E-05  5.05088247E-02  1.24513338E+00  1.89660016E-06  4.99941649E-03
 -4.99961385E-03  1.18264484E-03  2.91535098E-02  5.76826769E-04  5.04699589E-07
 -4.03263367E-06  7.81479411E-07  1.59946487E-03  3.94310039E-02  8.16510226E-06
 -7.76198723E-06  5.71135667E-04  1.40856816E-02  1.86320500E-06  1.17141689E-02
 -1.17161746E-02 -4.18891859E-04 -1.03260473E-02  1.35166646E-03  2.29061091E-02
  9.52835077E-02  2.82490870E-02  1.17505776E-01 -5.11609820E-02 -2.12782589E-01
 -3.53051001E-09 -8.19277928E-09 -3.00877602E-07  3.07529397E-01 -1.24749141E-02
 -8.87245630E-08  1.20784374E-06 -1.23632485E+00  5.01514465E-02  1.55240239E-07
 -1.18266078E-06  1.24513530E+00 -5.05087733E-02 -5.43329619E-08 -4.99576169E-04
  4.99552164E-04  2.91541007E-02 -1.18259996E-03  5.77324533E-03 -4.71660545E-08
  9.10160650E-08  1.63707104E-07  3.94348479E-02 -1.59972382E-03  3.96777369E-07
  1.27121376E-07  1.40852067E-02 -5.71615038E-04 -1.54176022E-07 -1.17045747E-03
  1.17057096E-03 -1.03263319E-02  4.18870714E-04  1.35272207E-02 -4.58442696E-02
 -1.90700104E-01  4.27599577E-02  1.77868170E-01  3.08463741E-03  1.28307558E-02
  3.69622865E-07 -7.19329083E-07  4.19687542E-06 -1.93982747E-03  6.08835217E-03
  7.54984270E-06 -1.59922746E-05  1.58634291E-04 -4.89822891E-04 -1.22369395E-05
  1.81774124E-05  1.15217747E-01 -3.61747412E-01 -1.76564717E-06  1.17960613E-02
 -1.17937044E-02  7.34336695E-02 -2.30553346E-01 -3.46765870E-03  8.28523275E-07
 -1.82418290E-06 -8.07791336E-06  2.08101843E-01 -6.53364962E-01  5.86964080E-07
  7.28833707E-06 -4.06020296E-01  1.27473592E+00  2.62131002E-08  7.56353879E-02
 -7.56357773E-02 -2.48852055E-02  7.81312023E-02 -2.22359463E-02  3.77883072E-01
  1.02146478E-02  1.21187488E-01  3.26945756E-03 -4.99062591E-01 -1.34765075E-02
  4.47498833E-08 -6.74977880E-08  5.40452596E-07  6.09003672E-03  1.93909223E-03
  9.35170614E-07 -2.39879914E-06 -4.96855624E-04 -1.55631349E-04  9.23839176E-07
  8.91393507E-07 -3.61741769E-01 -1.15219663E-01  1.90774006E-07  3.00302003E-03
 -3.00296578E-03 -2.30554310E-01 -7.34330103E-02  1.36199777E-02 -1.86494084E-08
 -1.41622947E-06  7.47043284E-07 -6.53364972E-01 -2.08102669E-01  5.05414440E-06
 -5.41824858E-06  1.27475016E+00  4.06012535E-01  9.97212140E-08  1.92569267E-02
 -1.92570780E-02  7.81303304E-02  2.48854114E-02  8.73368483E-02 -3.58100940E-01
 -9.68870630E-03  5.06303968E-01  1.36855576E-02 -1.48204094E-01 -4.00233957E-03
  1.74356620E-02 -2.89583913E-02  1.19077374E-01  6.95891492E-08 -1.89162695E-07
  3.90761104E-01 -3.49168083E-01 -2.11175078E-07  3.18374457E-07 -1.45564521E+00
  1.14082261E+00 -1.64680534E-06  5.71575208E-06 -2.44132620E-01  1.07402331E-01
  1.07401669E-01 -1.46222057E-06  5.92758299E-06 -1.88780581E-08  3.59062567E-02
 -1.13215625E-01 -9.03934458E-01 -2.79496779E-06  4.39227628E-06 -8.82729812E-02
  2.04028690E+00  4.87036676E-06 -1.29206354E-05 -6.63229478E-02  2.08418706E-02
  2.08428403E-02  5.99849293E-07 -2.84852702E-06  2.65182772E-07  2.53026436E-01
  4.62429306E-01  2.53030050E-01  4.62427571E-01  2.53038301E-01  4.62432503E-01
  7.75162481E-08 -3.13143248E-07  5.20508087E-07 -8.19888689E-04 -3.48967171E-03
  1.56720231E-06 -1.26834550E-06  8.11327840E-03  3.45309163E-02 -6.20125989E-06
  5.64742036E-06  2.01646167E-02  8.58207789E-02 -5.02533371E-06 -3.64817197E-01
  3.64821068E-01 -6.34220135E-02 -2.69913922E-01 -1.25628104E-01 -3.19888826E-07
 -6.61489671E-06 -2.88621893E-06  1.96347411E-01  8.35653825E-01  1.85451265E-05
  9.88844996E-06 -2.94977634E-01 -1.25542010E+00 -2.94957267E-06  6.81943685E-02
 -6.81937187E-02  3.48201110E-02  1.48194013E-01  2.34827516E-02  1.65595540E-01
 -3.59388162E-01  4.29118310E-01 -9.31304341E-01 -5.94712445E-01  1.29068514E+00
 -4.54603151E-08  5.48536870E-08 -1.28640559E-07 -3.48923644E-03  8.19901300E-04
 -1.07238003E-06  4.16811178E-07  3.45289472E-02 -8.11328208E-03  3.82937063E-06
 -2.44259772E-06  8.58213538E-02 -2.01650528E-02 -4.06111511E-07  1.08799885E-01
 -1.08799564E-01 -2.69926236E-01  6.34208240E-02 -4.21274344E-01  3.52360338E-07
 -5.36060446E-06  5.38171054E-06  8.35644938E-01 -1.96347120E-01  9.45334758E-06
 -8.75180439E-06 -1.25541408E+00  2.94977240E-01 -4.39204037E-07 -2.03361918E-02
  2.03360854E-02  1.48194022E-01 -3.48203164E-02  7.87406593E-02 -5.91094564E-01
  1.28284460E+00  4.38958018E-01 -9.52661221E-01  1.52147995E-01 -3.30201710E-01
  2.83835488E-08 -1.61709842E-07  2.58248294E-07 -6.44120623E-04 -6.29247103E-03
  1.86767073E-07 -1.42516045E-06  3.80224988E-03  3.71448603E-02  1.12409810E-06
 -6.05789081E-07  2.89514737E-03  2.82860393E-02  6.46445939E-08  7.61774607E-01
 -7.61774273E-01 -3.55169252E-03 -3.47007471E-02  1.42903147E-01 -4.15353324E-07
  1.91780849E-05 -7.98132530E-06  4.53528070E-02  4.43072687E-01 -3.84328693E-05
  1.14444514E-05 -7.22372527E-02 -7.05717088E-01  1.93612450E-06  8.01623300E-02
 -8.01606737E-02  6.13867976E-03  5.99732077E-02  1.50375817E-02  1.29748448E-01
 -3.05785118E-01  1.99487956E-01 -4.70142717E-01 -3.29255716E-01  7.75966074E-01
 -2.15671185E-08 -3.80248277E-08  6.89657713E-08 -6.29241819E-03  6.44100154E-04