V006_Glycerol Gaussian SP Calculation on node73.bme.utexas.edu          
Freq      RMP2-FC                                                     6-31G(d)            
Number of atoms                            I               14
Info1-9                                    I   N=           9
          25          24        1002           0           0         100
           6           2           1
Charge                                     I                0
Multiplicity                               I                1
Number of electrons                        I               50
Number of alpha electrons                  I               25
Number of beta electrons                   I               25
Number of basis functions                  I              106
Number of independent functions            I              106
Number of point charges in /Mol/           I                0
Number of translation vectors              I                0
Atomic numbers                             I   N=          14
           8           8           8           6           6           6
           1           1           1           1           1           1
           1           1
Nuclear charges                            R   N=          14
  8.00000000E+00  8.00000000E+00  8.00000000E+00  6.00000000E+00  6.00000000E+00
  6.00000000E+00  1.00000000E+00  1.00000000E+00  1.00000000E+00  1.00000000E+00
  1.00000000E+00  1.00000000E+00  1.00000000E+00  1.00000000E+00
Current cartesian coordinates              R   N=          42
 -1.28407481E-01  2.41964204E+00  5.50435067E-01 -4.58132785E+00  4.14548851E-02
 -4.38093453E-01  4.39053712E+00  2.32771210E-01 -4.87794298E-01 -2.72537317E-02
 -6.16067093E-02 -5.12107131E-01 -2.43117490E+00 -1.35087114E+00  3.62713588E-01
  2.36963397E+00 -1.36624811E+00  3.45483449E-01 -3.13560010E-02  4.74982597E-02
 -2.58811889E+00 -2.37764820E+00 -1.53537591E+00  2.43361197E+00 -2.59476329E+00
 -3.23906851E+00 -4.62152570E-01  2.51554860E+00 -3.26358538E+00 -4.85705723E-01
  2.35444228E+00 -1.53319572E+00  2.41381732E+00  1.49835964E+00  3.19068896E+00
  1.55886298E-01 -4.21727949E+00  1.78354334E+00  3.81934287E-02  5.93905012E+00
 -3.29094366E-01  3.21550215E-01
Force Field                                I                0
Int Atom Types                             I   N=          14
           0           0           0           0           0           0
           0           0           0           0           0           0
           0           0
MM charges                                 R   N=          14
  0.00000000E+00  0.00000000E+00  0.00000000E+00  0.00000000E+00  0.00000000E+00
  0.00000000E+00  0.00000000E+00  0.00000000E+00  0.00000000E+00  0.00000000E+00
  0.00000000E+00  0.00000000E+00  0.00000000E+00  0.00000000E+00
Integer atomic weights                     I   N=          14
          16          16          16          12          12          12
           1           1           1           1           1           1
           1           1
Real atomic weights                        R   N=          14
  1.59949146E+01  1.59949146E+01  1.59949146E+01  1.20000000E+01  1.20000000E+01
  1.20000000E+01  1.00782504E+00  1.00782504E+00  1.00782504E+00  1.00782504E+00
  1.00782504E+00  1.00782504E+00  1.00782504E+00  1.00782504E+00
Atom fragment info                         I   N=          14
           0           0           0           0           0           0
           0           0           0           0           0           0
           0           0
Atom residue num                           I   N=          14
           0           0           0           0           0           0
           0           0           0           0           0           0
           0           0
Nuclear spins                              I   N=          14
           0           0           0           0           0           0
           1           1           1           1           1           1
           1           1
Nuclear ZEff                               R   N=          14
 -5.60000000E+00 -5.60000000E+00 -5.60000000E+00 -3.60000000E+00 -3.60000000E+00
 -3.60000000E+00 -1.00000000E+00 -1.00000000E+00 -1.00000000E+00 -1.00000000E+00
 -1.00000000E+00 -1.00000000E+00 -1.00000000E+00 -1.00000000E+00
Nuclear QMom                               R   N=          14
  0.00000000E+00  0.00000000E+00  0.00000000E+00  0.00000000E+00  0.00000000E+00
  0.00000000E+00  0.00000000E+00  0.00000000E+00  0.00000000E+00  0.00000000E+00
  0.00000000E+00  0.00000000E+00  0.00000000E+00  0.00000000E+00
Nuclear GFac                               R   N=          14
  0.00000000E+00  0.00000000E+00  0.00000000E+00  0.00000000E+00  0.00000000E+00
  0.00000000E+00  2.79284600E+00  2.79284600E+00  2.79284600E+00  2.79284600E+00
  2.79284600E+00  2.79284600E+00  2.79284600E+00  2.79284600E+00
MicOpt                                     I   N=          14
          -1          -1          -1          -1          -1          -1
          -1          -1          -1          -1          -1          -1
          -1          -1
Number of contracted shells                I               40
Number of primitive shells                 I               98
Pure/Cartesian d shells                    I                1
Pure/Cartesian f shells                    I                0
Highest angular momentum                   I                2
Largest degree of contraction              I                6
Shell types                                I   N=          40
           0          -1          -1           2           0          -1
          -1           2           0          -1          -1           2
           0          -1          -1           2           0          -1
          -1           2           0          -1          -1           2
           0           0           0           0           0           0
           0           0           0           0           0           0
           0           0           0           0
Number of primitives per shell             I   N=          40
           6           3           1           1           6           3
           1           1           6           3           1           1
           6           3           1           1           6           3
           1           1           6           3           1           1
           3           1           3           1           3           1
           3           1           3           1           3           1
           3           1           3           1
Shell to atom map                          I   N=          40
           1           1           1           1           2           2
           2           2           3           3           3           3
           4           4           4           4           5           5
           5           5           6           6           6           6
           7           7           8           8           9           9
          10          10          11          11          12          12
          13          13          14          14
Primitive exponents                        R   N=          98
  5.48467166E+03  8.25234946E+02  1.88046958E+02  5.29645000E+01  1.68975704E+01
  5.79963534E+00  1.55396162E+01  3.59993359E+00  1.01376175E+00  2.70005823E-01
  8.00000000E-01  5.48467166E+03  8.25234946E+02  1.88046958E+02  5.29645000E+01
  1.68975704E+01  5.79963534E+00  1.55396162E+01  3.59993359E+00  1.01376175E+00
  2.70005823E-01  8.00000000E-01  5.48467166E+03  8.25234946E+02  1.88046958E+02
  5.29645000E+01  1.68975704E+01  5.79963534E+00  1.55396162E+01  3.59993359E+00
  1.01376175E+00  2.70005823E-01  8.00000000E-01  3.04752488E+03  4.57369518E+02
  1.03948685E+02  2.92101553E+01  9.28666296E+00  3.16392696E+00  7.86827235E+00
  1.88128854E+00  5.44249258E-01  1.68714478E-01  8.00000000E-01  3.04752488E+03
  4.57369518E+02  1.03948685E+02  2.92101553E+01  9.28666296E+00  3.16392696E+00
  7.86827235E+00  1.88128854E+00  5.44249258E-01  1.68714478E-01  8.00000000E-01
  3.04752488E+03  4.57369518E+02  1.03948685E+02  2.92101553E+01  9.28666296E+00
  3.16392696E+00  7.86827235E+00  1.88128854E+00  5.44249258E-01  1.68714478E-01
  8.00000000E-01  1.87311370E+01  2.82539436E+00  6.40121692E-01  1.61277759E-01
  1.87311370E+01  2.82539436E+00  6.40121692E-01  1.61277759E-01  1.87311370E+01
  2.82539436E+00  6.40121692E-01  1.61277759E-01  1.87311370E+01  2.82539436E+00
  6.40121692E-01  1.61277759E-01  1.87311370E+01  2.82539436E+00  6.40121692E-01
  1.61277759E-01  1.87311370E+01  2.82539436E+00  6.40121692E-01  1.61277759E-01
  1.87311370E+01  2.82539436E+00  6.40121692E-01  1.61277759E-01  1.87311370E+01
  2.82539436E+00  6.40121692E-01  1.61277759E-01
Contraction coefficients                   R   N=          98
  1.83107443E-03  1.39501722E-02  6.84450781E-02  2.32714336E-01  4.70192898E-01
  3.58520853E-01 -1.10777550E-01 -1.48026263E-01  1.13076702E+00  1.00000000E+00
  1.00000000E+00  1.83107443E-03  1.39501722E-02  6.84450781E-02  2.32714336E-01
  4.70192898E-01  3.58520853E-01 -1.10777550E-01 -1.48026263E-01  1.13076702E+00
  1.00000000E+00  1.00000000E+00  1.83107443E-03  1.39501722E-02  6.84450781E-02
  2.32714336E-01  4.70192898E-01  3.58520853E-01 -1.10777550E-01 -1.48026263E-01
  1.13076702E+00  1.00000000E+00  1.00000000E+00  1.83473713E-03  1.40373228E-02
  6.88426223E-02  2.32184443E-01  4.67941348E-01  3.62311985E-01 -1.19332420E-01
 -1.60854152E-01  1.14345644E+00  1.00000000E+00  1.00000000E+00  1.83473713E-03
  1.40373228E-02  6.88426223E-02  2.32184443E-01  4.67941348E-01  3.62311985E-01
 -1.19332420E-01 -1.60854152E-01  1.14345644E+00  1.00000000E+00  1.00000000E+00
  1.83473713E-03  1.40373228E-02  6.88426223E-02  2.32184443E-01  4.67941348E-01
  3.62311985E-01 -1.19332420E-01 -1.60854152E-01  1.14345644E+00  1.00000000E+00
  1.00000000E+00  3.34946043E-02  2.34726953E-01  8.13757326E-01  1.00000000E+00
  3.34946043E-02  2.34726953E-01  8.13757326E-01  1.00000000E+00  3.34946043E-02
  2.34726953E-01  8.13757326E-01  1.00000000E+00  3.34946043E-02  2.34726953E-01
  8.13757326E-01  1.00000000E+00  3.34946043E-02  2.34726953E-01  8.13757326E-01
  1.00000000E+00  3.34946043E-02  2.34726953E-01  8.13757326E-01  1.00000000E+00
  3.34946043E-02  2.34726953E-01  8.13757326E-01  1.00000000E+00  3.34946043E-02
  2.34726953E-01  8.13757326E-01  1.00000000E+00
P(S=P) Contraction coefficients            R   N=          98
  0.00000000E+00  0.00000000E+00  0.00000000E+00  0.00000000E+00  0.00000000E+00
  0.00000000E+00  7.08742682E-02  3.39752839E-01  7.27158577E-01  1.00000000E+00
  0.00000000E+00  0.00000000E+00  0.00000000E+00  0.00000000E+00  0.00000000E+00
  0.00000000E+00  0.00000000E+00  7.08742682E-02  3.39752839E-01  7.27158577E-01
  1.00000000E+00  0.00000000E+00  0.00000000E+00  0.00000000E+00  0.00000000E+00
  0.00000000E+00  0.00000000E+00  0.00000000E+00  7.08742682E-02  3.39752839E-01
  7.27158577E-01  1.00000000E+00  0.00000000E+00  0.00000000E+00  0.00000000E+00
  0.00000000E+00  0.00000000E+00  0.00000000E+00  0.00000000E+00  6.89990666E-02
  3.16423961E-01  7.44308291E-01  1.00000000E+00  0.00000000E+00  0.00000000E+00
  0.00000000E+00  0.00000000E+00  0.00000000E+00  0.00000000E+00  0.00000000E+00
  6.89990666E-02  3.16423961E-01  7.44308291E-01  1.00000000E+00  0.00000000E+00
  0.00000000E+00  0.00000000E+00  0.00000000E+00  0.00000000E+00  0.00000000E+00
  0.00000000E+00  6.89990666E-02  3.16423961E-01  7.44308291E-01  1.00000000E+00
  0.00000000E+00  0.00000000E+00  0.00000000E+00  0.00000000E+00  0.00000000E+00
  0.00000000E+00  0.00000000E+00  0.00000000E+00  0.00000000E+00  0.00000000E+00
  0.00000000E+00  0.00000000E+00  0.00000000E+00  0.00000000E+00  0.00000000E+00
  0.00000000E+00  0.00000000E+00  0.00000000E+00  0.00000000E+00  0.00000000E+00
  0.00000000E+00  0.00000000E+00  0.00000000E+00  0.00000000E+00  0.00000000E+00
  0.00000000E+00  0.00000000E+00  0.00000000E+00  0.00000000E+00  0.00000000E+00
  0.00000000E+00  0.00000000E+00  0.00000000E+00
Coordinates of each shell                  R   N=         120
 -1.28407481E-01  2.41964204E+00  5.50435067E-01 -1.28407481E-01  2.41964204E+00
  5.50435067E-01 -1.28407481E-01  2.41964204E+00  5.50435067E-01 -1.28407481E-01
  2.41964204E+00  5.50435067E-01 -4.58132785E+00  4.14548851E-02 -4.38093453E-01
 -4.58132785E+00  4.14548851E-02 -4.38093453E-01 -4.58132785E+00  4.14548851E-02
 -4.38093453E-01 -4.58132785E+00  4.14548851E-02 -4.38093453E-01  4.39053712E+00
  2.32771210E-01 -4.87794298E-01  4.39053712E+00  2.32771210E-01 -4.87794298E-01
  4.39053712E+00  2.32771210E-01 -4.87794298E-01  4.39053712E+00  2.32771210E-01
 -4.87794298E-01 -2.72537317E-02 -6.16067093E-02 -5.12107131E-01 -2.72537317E-02
 -6.16067093E-02 -5.12107131E-01 -2.72537317E-02 -6.16067093E-02 -5.12107131E-01
 -2.72537317E-02 -6.16067093E-02 -5.12107131E-01 -2.43117490E+00 -1.35087114E+00
  3.62713588E-01 -2.43117490E+00 -1.35087114E+00  3.62713588E-01 -2.43117490E+00
 -1.35087114E+00  3.62713588E-01 -2.43117490E+00 -1.35087114E+00  3.62713588E-01
  2.36963397E+00 -1.36624811E+00  3.45483449E-01  2.36963397E+00 -1.36624811E+00
  3.45483449E-01  2.36963397E+00 -1.36624811E+00  3.45483449E-01  2.36963397E+00
 -1.36624811E+00  3.45483449E-01 -3.13560010E-02  4.74982597E-02 -2.58811889E+00
 -3.13560010E-02  4.74982597E-02 -2.58811889E+00 -2.37764820E+00 -1.53537591E+00
  2.43361197E+00 -2.37764820E+00 -1.53537591E+00  2.43361197E+00 -2.59476329E+00
 -3.23906851E+00 -4.62152570E-01 -2.59476329E+00 -3.23906851E+00 -4.62152570E-01
  2.51554860E+00 -3.26358538E+00 -4.85705723E-01  2.51554860E+00 -3.26358538E+00
 -4.85705723E-01  2.35444228E+00 -1.53319572E+00  2.41381732E+00  2.35444228E+00
 -1.53319572E+00  2.41381732E+00  1.49835964E+00  3.19068896E+00  1.55886298E-01
  1.49835964E+00  3.19068896E+00  1.55886298E-01 -4.21727949E+00  1.78354334E+00
  3.81934287E-02 -4.21727949E+00  1.78354334E+00  3.81934287E-02  5.93905012E+00
 -3.29094366E-01  3.21550215E-01  5.93905012E+00 -3.29094366E-01  3.21550215E-01
Constraint Structure                       R   N=          42
 -1.28407481E-01  2.41964204E+00  5.50435067E-01 -4.58132785E+00  4.14548851E-02
 -4.38093453E-01  4.39053712E+00  2.32771210E-01 -4.87794298E-01 -2.72537317E-02
 -6.16067093E-02 -5.12107131E-01 -2.43117490E+00 -1.35087114E+00  3.62713588E-01
  2.36963397E+00 -1.36624811E+00  3.45483449E-01 -3.13560010E-02  4.74982597E-02
 -2.58811889E+00 -2.37764820E+00 -1.53537591E+00  2.43361197E+00 -2.59476329E+00
 -3.23906851E+00 -4.62152570E-01  2.51554860E+00 -3.26358538E+00 -4.85705723E-01
  2.35444228E+00 -1.53319572E+00  2.41381732E+00  1.49835964E+00  3.19068896E+00
  1.55886298E-01 -4.21727949E+00  1.78354334E+00  3.81934287E-02  5.93905012E+00
 -3.29094366E-01  3.21550215E-01
Num ILSW                                   I              100
ILSW                                       I   N=         100
           0           1           0           0           2           0
           0           0           0           0           0          -1
           0           0           0           0           0           0
           0           0           0           0           1           0
           1           0           0           0           0           0
           0           0      100000           0          -1           0
           0           0           0           0           0           0
           0           0           0           1           1           0
           0           0           1           0           0           0
           0           0           4          40           0           0
           0           0           0           0           0           0
           0           0           0           0           0           0
           0           0           0           0           0           0
           0           0           0           0           0           0
           0           0           0           0           0           0
           0           0           0           0           0           0
           0           0           0           0
Num RLSW                                   I               40
RLSW                                       R   N=          40
  1.00000000E+00  1.00000000E+00  1.00000000E+00  1.00000000E+00  1.00000000E+00
  0.00000000E+00  0.00000000E+00  1.00000000E+00  0.00000000E+00  0.00000000E+00
  0.00000000E+00  0.00000000E+00  1.00000000E+00  0.00000000E+00  0.00000000E+00
  0.00000000E+00  0.00000000E+00  1.00000000E+00  0.00000000E+00  0.00000000E+00
  0.00000000E+00  0.00000000E+00  1.00000000E+00  0.00000000E+00  0.00000000E+00
  0.00000000E+00  0.00000000E+00  1.00000000E+00  0.00000000E+00  0.00000000E+00
  0.00000000E+00  0.00000000E+00  0.00000000E+00  0.00000000E+00  0.00000000E+00
  0.00000000E+00  0.00000000E+00  0.00000000E+00  1.00000000E+00  1.00000000E+00
MxBond                                     I                4
NBond                                      I   N=          14
           2           2           2           4           4           4
           1           1           1           1           1           1
           1           1
IBond                                      I   N=          56
           4          12           0           0           5          13
           0           0           6          14           0           0
           1           5           6           7           2           4
           8           9           3           4          10          11
           4           0           0           0           5           0
           0           0           5           0           0           0
           6           0           0           0           6           0
           0           0           1           0           0           0
           2           0           0           0           3           0
           0           0
RBond                                      R   N=          56
  1.00000000E+00  1.00000000E+00  0.00000000E+00  0.00000000E+00  1.00000000E+00
  1.00000000E+00  0.00000000E+00  0.00000000E+00  1.00000000E+00  1.00000000E+00
  0.00000000E+00  0.00000000E+00  1.00000000E+00  1.00000000E+00  1.00000000E+00
  1.00000000E+00  1.00000000E+00  1.00000000E+00  1.00000000E+00  1.00000000E+00
  1.00000000E+00  1.00000000E+00  1.00000000E+00  1.00000000E+00  1.00000000E+00
  0.00000000E+00  0.00000000E+00  0.00000000E+00  1.00000000E+00  0.00000000E+00
  0.00000000E+00  0.00000000E+00  1.00000000E+00  0.00000000E+00  0.00000000E+00
  0.00000000E+00  1.00000000E+00  0.00000000E+00  0.00000000E+00  0.00000000E+00
  1.00000000E+00  0.00000000E+00  0.00000000E+00  0.00000000E+00  1.00000000E+00
  0.00000000E+00  0.00000000E+00  0.00000000E+00  1.00000000E+00  0.00000000E+00
  0.00000000E+00  0.00000000E+00  1.00000000E+00  0.00000000E+00  0.00000000E+00
  0.00000000E+00
Virial Ratio                               R      2.002588251225826E+00
SCF Energy                                 R     -3.428106597502683E+02
MP2 Energy                                 R     -3.437411227217913E+02
Total Energy                               R     -3.437411227217913E+02
Post-SCF wavefunction norm                 R      1.594135350094571E+00
RMS Force                                  R      6.000785210277249E-07
RMS Density                                R      1.572007052050432E-09
External E-field                           R   N=          35
  0.00000000E+00  0.00000000E+00  0.00000000E+00  0.00000000E+00  0.00000000E+00
  0.00000000E+00  0.00000000E+00  0.00000000E+00  0.00000000E+00  0.00000000E+00
  0.00000000E+00  0.00000000E+00  0.00000000E+00  0.00000000E+00  0.00000000E+00
  0.00000000E+00  0.00000000E+00  0.00000000E+00  0.00000000E+00  0.00000000E+00
  0.00000000E+00  0.00000000E+00  0.00000000E+00  0.00000000E+00  0.00000000E+00
  0.00000000E+00  0.00000000E+00  0.00000000E+00  0.00000000E+00  0.00000000E+00
  0.00000000E+00  0.00000000E+00  0.00000000E+00  0.00000000E+00  0.00000000E+00
IOpCl                                      I                0
IROHF                                      I                0
Alpha Orbital Energies                     R   N=         106
 -2.05852704E+01 -2.05658414E+01 -2.05509398E+01 -1.12924243E+01 -1.12825715E+01
 -1.12744850E+01 -1.38605188E+00 -1.35960704E+00 -1.33379536E+00 -1.03738992E+00
 -9.16229338E-01 -8.12153350E-01 -7.38755933E-01 -6.94441347E-01 -6.62613796E-01
 -6.54884431E-01 -6.06021965E-01 -5.90170451E-01 -5.72546060E-01 -5.40166305E-01
 -5.23717275E-01 -4.88207353E-01 -4.66895513E-01 -4.48254705E-01 -4.31984066E-01
  2.01243222E-01  2.42622727E-01  2.50099203E-01  2.74631901E-01  3.04516656E-01
  3.14113782E-01  3.18372832E-01  3.46254248E-01  3.58709580E-01  4.06757696E-01
  4.10474796E-01  4.59420870E-01  4.80878360E-01  7.50995363E-01  7.73702022E-01
  8.02972302E-01  8.19327217E-01  8.35795292E-01  8.48152357E-01  9.35942969E-01
  9.44794188E-01  1.00063070E+00  1.06864143E+00  1.07103215E+00  1.07980186E+00
  1.09008969E+00  1.12304832E+00  1.15227296E+00  1.16037696E+00  1.16661970E+00
  1.19472290E+00  1.21676045E+00  1.25381889E+00  1.27682669E+00  1.30684430E+00
  1.34931448E+00  1.36585288E+00  1.44416370E+00  1.46308136E+00  1.55815579E+00
  1.59254028E+00  1.60196376E+00  1.65673802E+00  1.68316483E+00  1.80959783E+00
  1.86618776E+00  1.91414990E+00  1.94479694E+00  2.00295709E+00  2.04844031E+00
  2.05038667E+00  2.08424070E+00  2.14943017E+00  2.19946955E+00  2.23875994E+00
  2.27136129E+00  2.36209951E+00  2.40257253E+00  2.41847474E+00  2.44697086E+00
  2.46429826E+00  2.51348072E+00  2.62250083E+00  2.67009150E+00  2.72898354E+00
  2.74207851E+00  2.78959977E+00  2.84630293E+00  2.90016480E+00  2.90476338E+00
  2.93468304E+00  3.07995540E+00  3.22028714E+00  3.23798889E+00  3.28614108E+00
  4.13404949E+00  4.19716227E+00  4.25810139E+00  4.66524357E+00  4.76161033E+00
  4.96224775E+00
Alpha MO coefficients                      R   N=       11236
 -1.30947284E-04 -3.61774548E-05 -3.10109810E-06 -2.32403433E-05  5.73058677E-06
  2.41164993E-04  9.77785382E-05  1.11643447E-04 -4.18912569E-05 -2.75152295E-05
 -3.88492282E-05 -1.26594634E-05  1.28020597E-05 -9.37724341E-06 -7.76006307E-06
 -7.13101543E-06 -7.31500256E-06  1.46195782E-06  1.96639775E-06 -4.57952658E-07
  6.77607719E-05  2.29312695E-05 -2.83864186E-05  5.55939849E-06 -4.16798018E-06
 -1.10709974E-06 -1.25477033E-06 -8.29036568E-06  3.32854176E-06  1.95510147E-06
  9.94648704E-01  2.11390572E-02  1.75228619E-04 -9.48852858E-04  8.19710807E-04
  3.94816750E-03 -1.31976742E-04  5.35062797E-04 -4.20512490E-04 -4.20773395E-03
 -4.03708903E-03 -3.97737320E-03 -9.59436664E-05 -2.02420445E-05  1.27521657E-04
 -1.45012827E-06  3.39984709E-05  1.30886798E-05  2.91593675E-05 -6.48484637E-06
  2.31909961E-04 -3.72632906E-04 -1.75595490E-04  1.09581920E-04 -6.41943440E-05
  5.02418683E-06 -1.57384220E-05 -7.87562905E-07 -1.29506867E-05  2.02214334E-06
  6.21360157E-06  3.57904635E-05 -1.21989045E-05 -8.38338081E-06 -1.66911234E-06
 -4.38943886E-04 -8.91834082E-05 -7.10101840E-05  9.64775382E-05 -4.57348719E-06
  7.35727993E-06  9.59192300E-06  2.97417354E-06 -2.17398973E-06  2.16419926E-06
 -2.60693347E-05  1.88053320E-04  2.41944061E-04  2.03033204E-04 -1.22039631E-04
  2.17723777E-04  1.27503605E-04 -1.70919241E-05  1.16111153E-04  3.61974435E-05
 -1.85309460E-05 -4.92233712E-05  6.77725820E-05 -2.97984766E-05 -3.26790921E-05
  3.56727341E-05 -1.45543576E-05  4.28934799E-06  5.11464380E-06  1.36100481E-05
  4.25480080E-05 -2.44215108E-05 -4.89379638E-05 -4.82427039E-05 -1.10282171E-04
 -9.90955829E-06 -2.68835517E-04  3.52570044E-06  4.76752851E-06  4.29280785E-04
 -2.20941290E-04  9.94649695E-01  2.11753039E-02  9.63654492E-04 -4.72268127E-04
 -6.27519637E-04  3.84412995E-03 -5.78516459E-04  2.84148542E-04  3.37329407E-04
 -4.05971306E-03 -4.18762183E-03 -3.94565776E-03 -6.44737360E-05  7.25663170E-05
 -1.18360278E-04 -1.54023813E-04 -4.07748822E-05  1.69303668E-05 -2.13271015E-05
 -8.39840002E-06  2.58621305E-04 -4.11476950E-05  1.72861024E-04  5.75746551E-05
 -5.33262975E-05 -2.27945203E-05 -1.39434695E-05  6.90683881E-06 -2.34068360E-06
  8.62043279E-06  1.20966516E-04  6.40568759E-06  5.55378977E-07 -8.52084568E-06
 -5.44269162E-06  7.19559900E-06  2.36624922E-05  2.07881676E-05  3.77256724E-06
 -2.39928597E-05 -1.32906149E-06 -6.34317519E-06  3.92191557E-06 -1.30739372E-06
  3.87282103E-06 -3.08999973E-05  1.64144958E-04 -3.13560797E-05  3.12529096E-04
  1.44549481E-04  3.84440192E-04  2.33695904E-04  7.94846721E-05  1.79545566E-05
 -4.87316700E-05  5.39215637E-05 -5.20512739E-05  5.33615281E-06  5.80631568E-06
  5.94683126E-05  5.39573896E-06  5.93989000E-05 -1.97248690E-05  1.56857853E-05
  1.47117432E-05  3.41685731E-05 -8.37110800E-05 -2.26572977E-04 -1.97622775E-04
 -1.42835638E-06 -3.71120611E-05 -3.06564332E-06 -4.21614804E-05  1.29967943E-06
 -6.22341459E-08 -6.12142584E-06  1.82656200E-05  3.26930515E-05 -4.17564772E-05
 -7.66819870E-06 -7.52119906E-05  6.59060122E-05 -2.84567820E-05  8.05208177E-05
 -2.88447325E-05 -5.40189389E-05 -2.97316521E-05  3.29808481E-05 -8.90856954E-08
 -1.04434892E-06 -4.15821616E-05 -7.67813154E-05  4.61284385E-05  4.85264602E-05
 -2.40340550E-05 -1.52577417E-04  7.83670753E-06  2.16232457E-05  7.21669389E-06
 -8.19193920E-05  4.40956638E-04 -2.45778367E-04 -1.53975872E-05 -3.22326665E-04
  3.63828285E-06 -1.35920429E-05  1.42412454E-04  1.74003762E-06  6.53504466E-06
 -4.39144272E-06  7.04070537E-07  6.64447324E-05  5.25102738E-06 -1.12787440E-05
  2.26142575E-05 -1.41439491E-05 -4.65463532E-06 -1.23699979E-05 -1.83734916E-05
  2.99941125E-06 -6.25175191E-06  9.94663038E-01  2.11668530E-02  1.06867354E-03
  4.52057036E-04  6.03567514E-04  3.87644481E-03 -5.41992262E-04 -2.33452517E-04
 -3.01306457E-04 -4.06699686E-03 -4.11722626E-03 -3.88209934E-03  9.08140397E-05
 -1.19948500E-04 -1.10255245E-05  1.22813110E-05  2.88999520E-05 -2.79521202E-06
 -1.22551758E-06  1.40775991E-06 -1.62009033E-04  5.47934121E-05  2.32139479E-05
 -2.08935718E-05  1.00818009E-05  2.16536322E-05  1.69968895E-05 -5.93536644E-06
  2.40520792E-06  1.31537856E-06  2.74460065E-06  6.63045269E-05  5.44228379E-05
 -7.25813476E-07  2.32800937E-05 -4.25920735E-04 -4.71889015E-05  1.33276423E-04
 -3.47175646E-04 -7.20372369E-05 -8.81277487E-06 -1.67455374E-05  2.46813362E-06
  5.25759087E-06  7.23044124E-06 -2.73869517E-05  2.20323990E-04 -3.07860123E-04
  1.74391465E-04 -1.32510898E-04  3.47526046E-04  3.67468798E-04  2.34883713E-04
  2.43232421E-04  8.07975605E-06 -3.39198926E-05 -6.02676895E-05 -3.73489546E-05
  1.16164683E-05 -3.36872068E-05 -4.94128180E-06 -3.58141160E-05 -1.46988883E-05
  6.75207736E-06 -3.75566805E-06  3.33460136E-04 -6.28987992E-05  1.50152557E-04
 -1.19705638E-05  1.60530268E-05  8.27729331E-06 -7.57468639E-06 -9.63960390E-06
 -2.02728412E-06 -6.33198095E-06 -7.48056092E-06 -1.65354678E-04 -7.06809691E-05
 -1.60705896E-04  1.42778235E-05  5.33767881E-05 -4.11896469E-06  2.93934420E-05
 -8.77389635E-06 -2.29627148E-05  8.40230372E-06 -9.07601461E-06  4.09992697E-04
 -2.51393421E-04  4.30647097E-06  1.46748349E-06 -5.68464389E-05 -2.91132904E-04
 -6.53762154E-05  7.86829498E-05 -5.58886919E-06  9.67555870E-04  2.03124540E-04
 -3.21390492E-04 -6.91254131E-05 -8.58388429E-05 -1.21814851E-04 -2.46521651E-04
 -8.57526426E-05  4.42437605E-05  1.89502398E-05 -4.45208612E-05 -1.95223835E-04
 -3.97140116E-05  2.08120566E-05  7.75259825E-06  9.38737515E-04  3.78037164E-04
 -1.68933090E-04  8.76839395E-06 -6.47296394E-05 -1.31849364E-04 -1.58133709E-04
 -1.79872841E-05  5.84762378E-06 -4.23204162E-06 -1.63056682E-04  3.85105608E-05
 -7.83502581E-05 -7.43340573E-05  5.12481214E-05  2.00381499E-03 -1.25345417E-04
  2.03019488E-05 -2.89090103E-05 -5.17727096E-04 -3.29457004E-04 -7.19370969E-05
 -4.30041874E-04  2.12111216E-04  2.07181837E-04  3.30461369E-02  9.94834220E-04
  6.39434774E-05 -5.74866107E-05  4.85014400E-06  3.14528237E-03  1.68236574E-03
 -1.14187864E-03  3.86335224E-04 -3.51861578E-04 -2.89471915E-04 -1.87736077E-04
  7.03989298E-05 -8.16609503E-05 -7.94351913E-06  2.28271078E-04 -1.58525670E-04
 -4.37225884E-05  1.49152585E-05 -2.00423737E-05  3.43218885E-04  5.15413496E-04
 -3.74560975E-04  3.91553769E-04 -6.43227400E-05 -9.51859223E-05 -7.02954571E-05
  3.02176334E-05 -9.72166667E-06 -1.37926663E-06  9.95331331E-01  2.77106213E-02
  5.26444377E-04  4.91567697E-04 -2.34354961E-04 -1.46161258E-02  1.15254415E-03
 -4.57042155E-04  1.90168029E-04 -1.51692941E-03 -1.47137207E-03 -1.51444549E-03
  8.51865783E-05 -6.37087410E-05 -3.09914693E-07 -1.53202149E-04  2.31979634E-04
 -6.19959026E-05 -3.38208103E-04 -2.12696419E-05 -2.23145143E-04  1.59427157E-04
  2.49603917E-03  1.93699250E-04  2.65215987E-03 -1.10688224E-04  6.60357506E-05
 -4.55059380E-05  1.59080340E-04 -3.52366021E-05  1.86606959E-04 -2.05019119E-04
 -1.58872985E-04  1.83268739E-05 -1.02686965E-04 -5.24472776E-05  3.39798393E-03
  3.43289719E-05 -6.18045502E-04 -7.81848775E-05 -1.99266762E-04 -7.76447413E-04
 -2.29369420E-04 -3.33768959E-06  7.56423531E-06 -3.68187743E-04 -2.21986321E-05
 -1.16724283E-04 -5.15658156E-05  1.04460070E-05  1.12253090E-05  1.65882599E-04
 -8.09675069E-06 -4.88963646E-05 -4.72350610E-05  1.11249144E-05 -6.35491951E-05
 -1.37380586E-04  6.51025341E-05 -4.34397264E-05 -4.25490568E-05  1.03253994E-05
 -6.73092610E-05  7.91616593E-05  1.31629793E-06  2.36082531E-05 -3.69665478E-04
 -2.09308881E-04  7.16553908E-05 -1.85640536E-04  1.51157385E-04  1.26188780E-05
 -8.68999199E-05 -3.12858964E-05  1.91688432E-05 -3.35948914E-05  9.94646978E-01
  2.81062204E-02  1.01345337E-04  5.75337897E-04  4.85210635E-04 -1.84587139E-02
 -3.27297284E-04  6.97070888E-04 -1.68881144E-03 -1.30852262E-03 -1.28784078E-03
 -1.27171150E-03 -5.15172134E-06 -1.64586958E-05  2.83731579E-05  3.99862849E-02