opt=Tight                                                               
Freq      RMP2-FC                                                     6-31G(d)            
Number of atoms                            I                7
Info1-9                                    I   N=           9
          16          16        1002           0           0         100
           6           2           1
Charge                                     I               -1
Multiplicity                               I                1
Number of electrons                        I               32
Number of alpha electrons                  I               16
Number of beta electrons                   I               16
Number of basis functions                  I               66
Number of independent functions            I               66
Number of point charges in /Mol/           I                0
Number of translation vectors              I                0
Atomic numbers                             I   N=           7
           6           6           8           8           1           1
           1
Nuclear charges                            R   N=           7
  6.00000000E+00  6.00000000E+00  8.00000000E+00  8.00000000E+00  1.00000000E+00
  1.00000000E+00  1.00000000E+00
Current cartesian coordinates              R   N=          21
 -2.54514574E+00 -1.17680489E-01 -1.64152041E-07  4.03188921E-01  4.78525348E-03
 -7.26159795E-07  1.29448743E+00  2.22217030E+00  1.63294795E-07  1.53675136E+00
 -2.09664896E+00  1.84384420E-07 -3.28515251E+00  8.71573169E-01  1.66353151E+00
 -3.28515526E+00  8.71600980E-01 -1.66351395E+00 -3.22786162E+00 -2.06997349E+00
 -1.50009138E-05
Force Field                                I                0
Int Atom Types                             I   N=           7
           0           0           0           0           0           0
           0
MM charges                                 R   N=           7
  0.00000000E+00  0.00000000E+00  0.00000000E+00  0.00000000E+00  0.00000000E+00
  0.00000000E+00  0.00000000E+00
Integer atomic weights                     I   N=           7
          12          12          16          16           1           1
           1
Real atomic weights                        R   N=           7
  1.20000000E+01  1.20000000E+01  1.59949146E+01  1.59949146E+01  1.00782504E+00
  1.00782504E+00  1.00782504E+00
Atom fragment info                         I   N=           7
           0           0           0           0           0           0
           0
Atom residue num                           I   N=           7
           0           0           0           0           0           0
           0
Nuclear spins                              I   N=           7
           0           0           0           0           1           1
           1
Nuclear ZEff                               R   N=           7
 -3.60000000E+00 -3.60000000E+00 -5.60000000E+00 -5.60000000E+00 -1.00000000E+00
 -1.00000000E+00 -1.00000000E+00
Nuclear QMom                               R   N=           7
  0.00000000E+00  0.00000000E+00  0.00000000E+00  0.00000000E+00  0.00000000E+00
  0.00000000E+00  0.00000000E+00
Nuclear GFac                               R   N=           7
  0.00000000E+00  0.00000000E+00  0.00000000E+00  0.00000000E+00  2.79284600E+00
  2.79284600E+00  2.79284600E+00
MicOpt                                     I   N=           7
          -1          -1          -1          -1          -1          -1
          -1
Number of contracted shells                I               22
Number of primitive shells                 I               56
Pure/Cartesian d shells                    I                1
Pure/Cartesian f shells                    I                0
Highest angular momentum                   I                2
Largest degree of contraction              I                6
Shell types                                I   N=          22
           0          -1          -1           2           0          -1
          -1           2           0          -1          -1           2
           0          -1          -1           2           0           0
           0           0           0           0
Number of primitives per shell             I   N=          22
           6           3           1           1           6           3
           1           1           6           3           1           1
           6           3           1           1           3           1
           3           1           3           1
Shell to atom map                          I   N=          22
           1           1           1           1           2           2
           2           2           3           3           3           3
           4           4           4           4           5           5
           6           6           7           7
Primitive exponents                        R   N=          56
  3.04752488E+03  4.57369518E+02  1.03948685E+02  2.92101553E+01  9.28666296E+00
  3.16392696E+00  7.86827235E+00  1.88128854E+00  5.44249258E-01  1.68714478E-01
  8.00000000E-01  3.04752488E+03  4.57369518E+02  1.03948685E+02  2.92101553E+01
  9.28666296E+00  3.16392696E+00  7.86827235E+00  1.88128854E+00  5.44249258E-01
  1.68714478E-01  8.00000000E-01  5.48467166E+03  8.25234946E+02  1.88046958E+02
  5.29645000E+01  1.68975704E+01  5.79963534E+00  1.55396162E+01  3.59993359E+00
  1.01376175E+00  2.70005823E-01  8.00000000E-01  5.48467166E+03  8.25234946E+02
  1.88046958E+02  5.29645000E+01  1.68975704E+01  5.79963534E+00  1.55396162E+01
  3.59993359E+00  1.01376175E+00  2.70005823E-01  8.00000000E-01  1.87311370E+01
  2.82539436E+00  6.40121692E-01  1.61277759E-01  1.87311370E+01  2.82539436E+00
  6.40121692E-01  1.61277759E-01  1.87311370E+01  2.82539436E+00  6.40121692E-01
  1.61277759E-01
Contraction coefficients                   R   N=          56
  1.83473713E-03  1.40373228E-02  6.88426223E-02  2.32184443E-01  4.67941348E-01
  3.62311985E-01 -1.19332420E-01 -1.60854152E-01  1.14345644E+00  1.00000000E+00
  1.00000000E+00  1.83473713E-03  1.40373228E-02  6.88426223E-02  2.32184443E-01
  4.67941348E-01  3.62311985E-01 -1.19332420E-01 -1.60854152E-01  1.14345644E+00
  1.00000000E+00  1.00000000E+00  1.83107443E-03  1.39501722E-02  6.84450781E-02
  2.32714336E-01  4.70192898E-01  3.58520853E-01 -1.10777550E-01 -1.48026263E-01
  1.13076702E+00  1.00000000E+00  1.00000000E+00  1.83107443E-03  1.39501722E-02
  6.84450781E-02  2.32714336E-01  4.70192898E-01  3.58520853E-01 -1.10777550E-01
 -1.48026263E-01  1.13076702E+00  1.00000000E+00  1.00000000E+00  3.34946043E-02
  2.34726953E-01  8.13757326E-01  1.00000000E+00  3.34946043E-02  2.34726953E-01
  8.13757326E-01  1.00000000E+00  3.34946043E-02  2.34726953E-01  8.13757326E-01
  1.00000000E+00
P(S=P) Contraction coefficients            R   N=          56
  0.00000000E+00  0.00000000E+00  0.00000000E+00  0.00000000E+00  0.00000000E+00
  0.00000000E+00  6.89990666E-02  3.16423961E-01  7.44308291E-01  1.00000000E+00
  0.00000000E+00  0.00000000E+00  0.00000000E+00  0.00000000E+00  0.00000000E+00
  0.00000000E+00  0.00000000E+00  6.89990666E-02  3.16423961E-01  7.44308291E-01
  1.00000000E+00  0.00000000E+00  0.00000000E+00  0.00000000E+00  0.00000000E+00
  0.00000000E+00  0.00000000E+00  0.00000000E+00  7.08742682E-02  3.39752839E-01
  7.27158577E-01  1.00000000E+00  0.00000000E+00  0.00000000E+00  0.00000000E+00
  0.00000000E+00  0.00000000E+00  0.00000000E+00  0.00000000E+00  7.08742682E-02
  3.39752839E-01  7.27158577E-01  1.00000000E+00  0.00000000E+00  0.00000000E+00
  0.00000000E+00  0.00000000E+00  0.00000000E+00  0.00000000E+00  0.00000000E+00
  0.00000000E+00  0.00000000E+00  0.00000000E+00  0.00000000E+00  0.00000000E+00
  0.00000000E+00
Coordinates of each shell                  R   N=          66
 -2.54514574E+00 -1.17680489E-01 -1.64152041E-07 -2.54514574E+00 -1.17680489E-01
 -1.64152041E-07 -2.54514574E+00 -1.17680489E-01 -1.64152041E-07 -2.54514574E+00
 -1.17680489E-01 -1.64152041E-07  4.03188921E-01  4.78525348E-03 -7.26159795E-07
  4.03188921E-01  4.78525348E-03 -7.26159795E-07  4.03188921E-01  4.78525348E-03
 -7.26159795E-07  4.03188921E-01  4.78525348E-03 -7.26159795E-07  1.29448743E+00
  2.22217030E+00  1.63294795E-07  1.29448743E+00  2.22217030E+00  1.63294795E-07
  1.29448743E+00  2.22217030E+00  1.63294795E-07  1.29448743E+00  2.22217030E+00
  1.63294795E-07  1.53675136E+00 -2.09664896E+00  1.84384420E-07  1.53675136E+00
 -2.09664896E+00  1.84384420E-07  1.53675136E+00 -2.09664896E+00  1.84384420E-07
  1.53675136E+00 -2.09664896E+00  1.84384420E-07 -3.28515251E+00  8.71573169E-01
  1.66353151E+00 -3.28515251E+00  8.71573169E-01  1.66353151E+00 -3.28515526E+00
  8.71600980E-01 -1.66351395E+00 -3.28515526E+00  8.71600980E-01 -1.66351395E+00
 -3.22786162E+00 -2.06997349E+00 -1.50009138E-05 -3.22786162E+00 -2.06997349E+00
 -1.50009138E-05
Constraint Structure                       R   N=          21
 -2.54514574E+00 -1.17680489E-01 -1.64152041E-07  4.03188921E-01  4.78525348E-03
 -7.26159795E-07  1.29448743E+00  2.22217030E+00  1.63294795E-07  1.53675136E+00
 -2.09664896E+00  1.84384420E-07 -3.28515251E+00  8.71573169E-01  1.66353151E+00
 -3.28515526E+00  8.71600980E-01 -1.66351395E+00 -3.22786162E+00 -2.06997349E+00
 -1.50009138E-05
Num ILSW                                   I              100
ILSW                                       I   N=         100
           0           1           0           0           2           0
           0           0           0           0           0          -1
           0           0           0           0           0           0
           0           0           0           0           1           0
           1           0           0           0           0           0
           0           0      100000           0          -1           0
           0           0           0           0           0           0
           0           0           0           1           1           0
           0           0           1           0           0           0
           0           0           4          40           0           0
           0           0           0           0           0           0
           0           0           0           0           0           0
           0           0           0           0           0           0
           0           0           0           0           0           0
           0           0           0           0           0           0
           0           0           0           0           0           0
           0           0           0           0
Num RLSW                                   I               40
RLSW                                       R   N=          40
  1.00000000E+00  1.00000000E+00  1.00000000E+00  1.00000000E+00  1.00000000E+00
  0.00000000E+00  0.00000000E+00  1.00000000E+00  0.00000000E+00  0.00000000E+00
  0.00000000E+00  0.00000000E+00  1.00000000E+00  0.00000000E+00  0.00000000E+00
  0.00000000E+00  0.00000000E+00  1.00000000E+00  0.00000000E+00  0.00000000E+00
  0.00000000E+00  0.00000000E+00  1.00000000E+00  0.00000000E+00  0.00000000E+00
  0.00000000E+00  0.00000000E+00  1.00000000E+00  0.00000000E+00  0.00000000E+00
  0.00000000E+00  0.00000000E+00  0.00000000E+00  0.00000000E+00  0.00000000E+00
  0.00000000E+00  0.00000000E+00  0.00000000E+00  1.00000000E+00  1.00000000E+00
MxBond                                     I                4
NBond                                      I   N=           7
           4           3           1           1           1           1
           1
IBond                                      I   N=          28
           2           5           6           7           1           3
           4           0           2           0           0           0
           2           0           0           0           1           0
           0           0           1           0           0           0
           1           0           0           0
RBond                                      R   N=          28
  1.00000000E+00  1.00000000E+00  1.00000000E+00  1.00000000E+00  1.00000000E+00
  2.00000000E+00  2.00000000E+00  0.00000000E+00  2.00000000E+00  0.00000000E+00
  0.00000000E+00  0.00000000E+00  2.00000000E+00  0.00000000E+00  0.00000000E+00
  0.00000000E+00  1.00000000E+00  0.00000000E+00  0.00000000E+00  0.00000000E+00
  1.00000000E+00  0.00000000E+00  0.00000000E+00  0.00000000E+00  1.00000000E+00
  0.00000000E+00  0.00000000E+00  0.00000000E+00
Virial Ratio                               R      2.002539619226567E+00
SCF Energy                                 R     -2.272221291784711E+02
MP2 Energy                                 R     -2.278391700653021E+02
Total Energy                               R     -2.278391700653021E+02
Post-SCF wavefunction norm                 R      1.541087687843598E+00
RMS Force                                  R      8.293863558605549E-09
RMS Density                                R      9.115092686597353E-10
External E-field                           R   N=          35
  0.00000000E+00  0.00000000E+00  0.00000000E+00  0.00000000E+00  0.00000000E+00
  0.00000000E+00  0.00000000E+00  0.00000000E+00  0.00000000E+00  0.00000000E+00
  0.00000000E+00  0.00000000E+00  0.00000000E+00  0.00000000E+00  0.00000000E+00
  0.00000000E+00  0.00000000E+00  0.00000000E+00  0.00000000E+00  0.00000000E+00
  0.00000000E+00  0.00000000E+00  0.00000000E+00  0.00000000E+00  0.00000000E+00
  0.00000000E+00  0.00000000E+00  0.00000000E+00  0.00000000E+00  0.00000000E+00
  0.00000000E+00  0.00000000E+00  0.00000000E+00  0.00000000E+00  0.00000000E+00
IOpCl                                      I                0
IROHF                                      I                0
Alpha Orbital Energies                     R   N=          66
 -2.02660063E+01 -2.02625526E+01 -1.11167627E+01 -1.10345444E+01 -1.12905542E+00
 -1.03103619E+00 -7.75762049E-01 -4.89784356E-01 -3.96433268E-01 -3.95041829E-01
 -3.87603885E-01 -3.38111036E-01 -2.94063289E-01 -1.75419525E-01 -1.66215252E-01
 -1.59111052E-01  4.28085929E-01  4.34481534E-01  4.89134601E-01  5.32025200E-01
  6.03243953E-01  7.19878641E-01  7.81710279E-01  9.51465744E-01  1.01082475E+00
  1.02508705E+00  1.05661185E+00  1.09781739E+00  1.17432164E+00  1.23093151E+00
  1.31869056E+00  1.32065656E+00  1.36087943E+00  1.39457193E+00  1.43212459E+00
  1.51394597E+00  1.56019075E+00  1.58825099E+00  1.60687156E+00  1.64465406E+00
  1.89476977E+00  1.97059654E+00  2.01967897E+00  2.12084542E+00  2.27686756E+00
  2.31199033E+00  2.33594540E+00  2.38877789E+00  2.41581434E+00  2.44870622E+00
  2.49038798E+00  2.55023965E+00  2.65134192E+00  2.76215061E+00  2.77299166E+00
  2.97418202E+00  3.01181576E+00  3.30261807E+00  3.39544115E+00  3.49265220E+00
  3.53730646E+00  3.71046229E+00  4.49090355E+00  4.74212580E+00  4.79542913E+00
  5.06591903E+00
Alpha MO coefficients                      R   N=        4356
  5.52821651E-07  3.01763026E-05 -2.51454636E-05  2.17155980E-05  1.35121626E-10
 -7.75650075E-05 -1.37211682E-04 -4.12020851E-05 -8.14466144E-10 -5.21791686E-05
 -1.14377885E-05 -1.21613908E-05  4.21074616E-05  2.78509301E-11 -4.91271691E-11
 -7.57165790E-06  5.07317770E-04  4.45367145E-05 -1.35120608E-04  5.36552650E-12
 -2.88587162E-04 -3.05779462E-04  1.93627993E-04  1.49940301E-10 -1.47287075E-04
 -5.32095116E-04 -5.45167216E-05  2.44795329E-04 -1.46031431E-10  1.90590689E-10
 -4.60132723E-03 -1.26991210E-04 -3.14076939E-05  1.14998314E-05 -4.02284607E-12
  1.70657925E-04 -6.60026877E-05 -1.08457557E-04 -1.69799976E-10  6.22627588E-05
 -2.03314601E-05 -3.95796152E-05  1.12141523E-04  1.05435766E-10  1.17192666E-10
  9.94682452E-01  2.09921802E-02 -6.36221632E-04  1.14537813E-03 -5.76535118E-10
  4.20495803E-03  9.56306611E-05 -1.16807493E-04 -9.73945505E-12 -3.84440476E-03
 -3.79336048E-03 -4.03687986E-03 -6.46245776E-05  1.77671065E-10 -4.75553317E-11
  1.06417374E-05 -2.78859923E-05  1.06416652E-05 -2.78868265E-05  9.72154703E-06
 -9.09849228E-05  6.62895217E-07  3.56032498E-05 -2.77953650E-05 -1.28494009E-05
  1.34540784E-10 -9.02540281E-05 -1.39700588E-04 -6.24734443E-05 -8.22430830E-10
 -5.15751420E-05 -1.60766912E-05 -1.82466955E-05 -4.38758826E-05  2.75114152E-11
  7.18981080E-11 -8.10445378E-06  5.10345711E-04  3.03451424E-05  1.41544708E-04
  4.26639412E-12 -2.77486766E-04 -2.96792077E-04 -1.15276549E-04  1.58592109E-10
 -1.03264040E-04 -5.77120603E-04 -5.72077608E-05 -1.86096635E-04 -1.23911132E-10
 -1.94478721E-10  9.94684239E-01  2.10092402E-02 -5.05085983E-04 -1.21196285E-03
 -5.62867932E-10  4.11150341E-03  9.83716075E-05  1.48404763E-04  1.08587917E-11
 -3.85287672E-03 -3.77841627E-03 -4.02282006E-03  5.50656191E-05  1.69351661E-10
  5.52464115E-11  4.58706076E-03  5.39627305E-05 -3.53651164E-05 -5.30173625E-06
 -5.62887031E-12  3.00350786E-04 -9.16866742E-05  1.15625395E-04 -1.96134565E-10
  3.92935549E-05 -8.52114537E-05 -8.47036560E-05 -1.00685380E-04  1.24241359E-10
 -1.06148766E-10  1.71685180E-05 -3.57363503E-05  1.71685142E-05 -3.57373967E-05
  6.41155663E-06 -7.55055881E-05  2.92031236E-03  1.38798101E-04 -8.13955036E-05
  1.55493487E-05  4.71485034E-10  3.94960009E-03  2.15802213E-03 -1.13010567E-05
 -3.02864679E-09 -5.86820513E-04 -1.68485912E-04 -1.51518852E-04 -2.20065415E-05
  5.72484033E-11  1.38881412E-11  9.95939645E-01  2.56162903E-02  7.37848670E-05
 -1.34680912E-06  4.66428321E-10 -6.40351585E-03  3.98262076E-03  1.35768056E-04
  1.97805437E-10 -1.41759799E-03 -2.94784333E-04 -2.15284572E-03 -9.16033091E-05
  3.58799047E-10  5.20469835E-12 -2.21705710E-04  4.27457571E-04  2.22145159E-05
 -2.09191665E-04 -7.75884085E-11 -1.52826000E-03 -1.17007018E-04  1.54462473E-03
  8.32904394E-10  7.90678001E-05 -2.53812151E-04  3.29827132E-04 -1.47264568E-04
 -1.88448711E-10 -4.17284110E-10 -2.20951119E-04  4.43230191E-04 -1.96784551E-07
  2.08424063E-04 -8.50948546E-11 -1.66118361E-03  7.70835484E-05 -1.58562137E-03
  8.95493316E-10  5.65822388E-05 -2.21675894E-04  3.38350013E-04  1.88170930E-04
 -2.37696491E-10  4.14327064E-10 -1.92249419E-04  2.78585801E-04 -1.92248877E-04
  2.78582555E-04 -1.65749315E-04  1.03004374E-04  9.95746426E-01  2.84000098E-02
 -3.76993579E-04  1.03420182E-04  2.93975602E-09 -1.51246696E-02 -5.26543647E-04
 -1.17917717E-04 -4.38066397E-09 -1.90102923E-03 -1.82570293E-03 -1.82484500E-03
  2.03743181E-05  8.49553798E-11 -9.63611983E-11 -3.24279258E-03 -9.26308868E-05
 -1.48969919E-04 -2.44862095E-05 -1.24190428E-11  3.02185105E-03 -2.18796006E-03
 -6.49040334E-04 -1.07922917E-09 -4.45241407E-04 -2.70742275E-04 -1.75929185E-04
 -8.23092285E-06 -1.23876210E-10 -4.68999599E-11 -6.06693161E-05 -3.43544754E-04
  5.93575392E-05  3.37697000E-05 -2.44944520E-10  1.33783036E-03 -1.19575819E-04
 -4.45852964E-04  1.08100597E-09 -1.05569983E-04 -9.68855045E-05 -3.11359138E-04
  4.29996738E-05 -3.90859394E-10  8.20601934E-12 -1.62855494E-05 -1.42735079E-04
  3.07854583E-05 -2.67657607E-05 -2.99355070E-10  1.63298753E-04  1.63060985E-04
  2.62671041E-04  1.34741823E-09 -2.47880879E-05  3.40674284E-05 -1.63418953E-04
 -2.14513797E-05 -4.12936666E-10 -2.41988412E-11  9.72068360E-05  2.65975684E-03
  9.72069980E-05  2.65975395E-03  1.05766857E-04  2.55403057E-03 -2.31435443E-02
  4.51088971E-02  3.16648975E-02  1.58819912E-03  1.73241533E-09  5.52591806E-03
 -4.13955217E-03 -1.53657886E-03 -8.84330058E-09  9.30137211E-03 -2.17254249E-04
  2.55692493E-04  3.42505692E-04 -1.22518531E-09  9.67105323E-10 -1.33109654E-01
  2.56098581E-01  7.88227665E-02  2.25153715E-03  8.32931092E-08  8.15951442E-02
 -3.11412281E-02  5.28018408E-04 -1.16754698E-08 -1.02006749E-02  2.83076840E-02
 -2.09504844E-02 -2.95880701E-03  5.76673168E-09 -1.33380949E-10 -1.29890731E-01
  2.84552800E-01 -3.14502636E-02 -8.72960516E-02 -2.48044464E-08  2.66464224E-01
 -8.44851629E-03 -3.76949954E-02 -9.19326189E-09 -1.04146529E-03  1.31550689E-02
 -5.06211035E-04  5.18895828E-03 -7.18932120E-10  5.04095757E-09 -1.32959153E-01
  2.90808758E-01 -4.17197282E-02  8.46100389E-02 -2.63806771E-08  2.76016813E-01
 -1.34546089E-02  3.74956628E-02 -1.07691940E-08 -8.71826556E-05  1.18248157E-02
 -7.19487728E-04 -7.03664846E-03  4.34074303E-11 -5.36555805E-09  9.65390131E-03
  2.15372313E-03  9.65391251E-03  2.15369395E-03  9.88407503E-03  2.23333334E-04
 -1.09258236E-03  2.49839525E-03  3.90699024E-04  1.35574960E-02  1.55280075E-10
 -3.55962562E-04 -6.64188208E-05  1.16641574E-02 -2.24911175E-09  4.10170193E-05
 -3.24863898E-04  6.98338619E-04  2.25085949E-03  8.13677027E-10 -1.70881562E-08
 -1.39238796E-03  2.71934392E-03 -1.42242813E-02  2.51154985E-01 -5.06970593E-10
  1.53944555E-03  5.05176806E-04 -1.37161590E-02  4.27247347E-10 -2.96730029E-03
  3.41097523E-03 -2.39490430E-04  3.14641144E-02 -1.86558881E-09  2.92728648E-08
 -1.52158132E-01  3.28948815E-01 -4.03149510E-02 -6.42806951E-02 -3.38918306E-08
  3.43830230E-01 -2.09218277E-02 -2.45733542E-02 -1.87046067E-08  8.91594385E-04
  4.95172005E-03 -2.61140599E-03  6.70745969E-03  3.51341051E-09  6.36641262E-09
  1.50163295E-01 -3.24775130E-01  4.63316195E-02 -5.79837900E-02  3.43515697E-08
 -3.39969985E-01  2.32557632E-02 -2.14322603E-02  1.89700099E-08 -2.15448331E-03
 -3.46224196E-03  2.61497071E-03  6.98100742E-03 -4.40505627E-09  6.01612384E-09
  2.70907310E-03  1.29357724E-03  2.70913094E-03  1.29358973E-03 -3.37969409E-03
 -3.22916606E-04 -1.86084749E-01  3.48512971E-01  4.05841652E-04  4.53592828E-03
  1.12658411E-07  3.42731160E-01 -1.49104070E-02 -5.81697628E-03 -7.12981121E-08
  5.91165191E-03  9.25330852E-03  1.04614336E-02 -2.94535314E-04  1.98627231E-09
  2.57706821E-09 -3.49649086E-02  7.46482625E-02 -1.55265440E-01 -8.57292247E-03
 -3.80549628E-09  5.73436510E-02 -2.53717314E-02  7.54753674E-03  3.79495347E-08
  1.97149428E-02 -1.05485387E-02 -1.71364108E-03  1.42669485E-03 -7.56235743E-09
 -4.34620659E-11  3.80614549E-02 -8.03866478E-02 -3.42300445E-02  4.20274488E-03
  8.94308178E-09 -1.16192873E-01 -1.09503204E-02  4.65667716E-03 -8.34309503E-09
  3.17524082E-03 -6.73807190E-04  1.46810179E-03  2.02730056E-03  8.08849440E-10
  4.08581019E-10  3.53284491E-02 -7.77889918E-02 -3.25131307E-02 -7.84473001E-03
  9.56229074E-09 -9.45805576E-02 -1.37007144E-02 -3.03084417E-03 -1.19040229E-08
  2.47653327E-03 -2.32461744E-03  3.00114139E-04 -1.78272195E-03  1.00829624E-09
 -3.31139253E-10  1.29936035E-01  4.07258252E-02  1.29935959E-01  4.07256629E-02
  1.25999265E-01  3.16049228E-02  3.07264903E-02 -5.01993779E-02  2.55691347E-01
  8.80065341E-03 -7.91196526E-08 -7.86094965E-02  1.05692651E-01 -5.24651036E-03
 -2.01163970E-07  1.98296179E-02 -1.32703785E-02 -1.06981985E-02  1.34964194E-03
 -7.27762029E-09  2.75764088E-10 -1.33304139E-01  2.97791505E-01 -1.01619868E-01
 -6.96242624E-03  5.07868058E-09  2.06107545E-01 -7.99619106E-02  4.13136589E-03
  1.41718185E-08  1.93588978E-03 -1.49808928E-03 -1.05247729E-02  7.28834105E-06
 -4.80965115E-09 -1.78953502E-10  7.24769063E-02 -1.57669795E-01 -1.21309317E-01
 -1.77820977E-01 -7.55478933E-08 -2.62273933E-01 -6.26583962E-02 -1.12825999E-01
 -5.62738199E-08  1.77025955E-03  1.40056527E-02 -1.08782513E-03  1.06108898E-02
  2.29216572E-09  8.69637637E-09  7.23896748E-02 -1.60097583E-01 -1.43409518E-01
  1.66020210E-01 -7.92338158E-08 -2.50380407E-01 -7.93369151E-02  1.09135376E-01
 -6.21338329E-08  3.12876846E-03  1.09677957E-02 -1.89360263E-03 -1.22207453E-02
  3.83945118E-09 -8.83324514E-09 -7.81092428E-02 -5.81098934E-02 -7.81093009E-02
 -5.81101430E-02 -8.15835436E-02 -7.15243707E-02  2.20145081E-03 -3.74695279E-03
 -2.37649076E-02  3.41693101E-01  2.39608805E-06 -1.39819515E-02 -1.25631537E-02
  1.85023755E-01  1.21915592E-06 -7.34689263E-04 -1.84061296E-02  1.96797650E-02
 -1.46254998E-02 -7.64043355E-08 -3.62888389E-07 -1.76378121E-03  4.07675236E-03
  1.39681194E-02  2.05568040E-01  1.05897416E-06  8.74280685E-03  6.27574877E-03
 -1.54601166E-02  4.56791984E-07  2.61158813E-04 -1.01107477E-03  1.11169058E-04
 -6.89092377E-03 -1.69391166E-08 -9.49440526E-09  4.27166118E-02 -9.43318154E-02
 -1.43142778E-01 -1.57764169E-01  7.02928265E-07 -1.58313044E-01 -9.44489629E-02
 -1.00675358E-01  4.71160618E-07  3.76746203E-03  9.76526391E-03 -2.08795976E-03
  1.02261103E-02 -2.46552571E-08 -5.42578415E-08 -3.71944190E-02  8.66452572E-02
  1.81263349E-01 -9.85411660E-02  9.71936085E-07  1.24906860E-01  1.24554067E-01
 -6.55880722E-02  6.75993914E-07 -6.07050099E-03 -2.91099898E-03  3.73457493E-03
  1.12098733E-02 -4.74993436E-08  6.94057739E-08  1.11015182E-01  9.48129979E-02
  1.11015611E-01  9.48131971E-02 -2.07949891E-01 -1.73283405E-01  2.61428587E-08
 -6.66474308E-08 -9.15963464E-07 -2.29566818E-06  3.76059139E-01 -2.86431720E-07
 -6.11028542E-07 -1.32214103E-06  1.94779154E-01 -9.60220320E-08 -3.70261698E-07
  4.95645040E-07  1.18021418E-07 -1.60002396E-02  2.53738333E-02 -1.28534875E-07
  3.25080577E-07  1.82508513E-06 -1.35023760E-06  1.68905465E-01  2.25775430E-07
  3.17302931E-07  1.67261373E-07  7.23439775E-02 -3.60427375E-08 -2.22596643E-08
 -3.95506865E-10  4.33492104E-08 -2.80140955E-03  1.27193897E-03 -8.63062542E-08
  2.75208645E-07  1.80015055E-06 -5.06124679E-07  1.38091075E-01  4.61256323E-08
  1.28062027E-06 -2.76097062E-07  9.48399033E-02 -5.67702066E-08  9.21854886E-08
  2.84108967E-08 -9.05606553E-08 -5.15230155E-03 -1.04848045E-02  4.71244027E-07
 -9.96824690E-07 -6.52783215E-07  2.43619454E-06  1.32039726E-01 -1.88962326E-06
 -3.75157561E-07  1.55269261E-06  9.04511727E-02  8.65707955E-09  1.82182067E-07
 -1.61699439E-08 -8.73376460E-08 -6.17465538E-03  9.81273747E-03  2.03284268E-01
  1.82164272E-01 -2.03283114E-01 -1.82163184E-01 -2.25956218E-07 -3.77058813E-07
 -3.40110666E-03  6.95335973E-03 -2.22407094E-01 -2.48030378E-02 -2.03014894E-06
 -2.32868558E-02 -1.55343295E-01 -2.81893249E-02 -1.29974770E-06 -1.15245497E-02
  9.66958265E-03  8.04635677E-03 -3.90874295E-04  9.68584093E-08 -1.14755253E-07
 -3.06849791E-02  7.69003096E-02  3.33600182E-01 -5.41130110E-03 -9.63282447E-07
  4.01160462E-02  5.76087105E-02  1.21625988E-02 -3.99934881E-07 -4.72614524E-03
 -1.24846895E-03 -5.31585587E-03 -2.29819528E-04  2.00653919E-08 -6.53467787E-09
  3.44130208E-02 -6.90225724E-02  1.44426184E-01 -2.61215136E-01 -8.82547823E-07
 -1.56087505E-01  1.06192773E-01 -1.69163890E-01 -6.14036511E-07 -8.52244993E-03
  2.38703232E-02  2.65156835E-04 -3.61110101E-03  2.93147069E-08  7.51241453E-08
  4.23355696E-02 -8.86219993E-02  8.10938274E-02  3.10063802E-01 -8.80710212E-07
 -1.76403266E-01  6.24668713E-02  2.04289163E-01 -6.16078168E-07 -8.12096314E-03
  2.51417446E-02 -9.53083421E-04 -3.16947816E-03  3.86901946E-08 -7.38165681E-08
  4.98866699E-02  3.65931654E-02  4.98888162E-02  3.65948108E-02  6.62088998E-02
  3.29072335E-02 -1.20757821E-03  3.19300094E-03  2.42745282E-03 -2.47057813E-01
  1.30706164E-08  3.10297356E-03 -2.66320984E-03 -1.14518690E-01 -2.50451624E-09
 -7.38139301E-04  1.52544340E-02 -1.42679144E-02  2.03874766E-02 -1.85002132E-08
  3.97134318E-07 -1.84824050E-03  4.89356618E-03 -8.32046484E-03  3.04413068E-01
  2.90705665E-08  6.48306862E-04 -2.14992298E-03  4.01234255E-02  1.72035579E-08
 -1.91216319E-03  2.44311863E-03 -7.20937698E-04  2.22327376E-02 -1.04834326E-09
  3.71167412E-08  3.94033224E-02 -8.26976340E-02 -1.49037759E-01 -2.79557287E-01
 -7.66158578E-08 -1.85859374E-01 -1.01564162E-01 -1.82360493E-01 -4.67082522E-08
  2.90889810E-03  1.62958151E-02 -2.77816458E-03  1.36502764E-02  4.24331271E-09
  1.05631302E-08 -3.60558608E-02  7.39117781E-02  1.83383377E-01 -2.41217786E-01
  1.36695619E-07  1.76488571E-01  1.23290959E-01 -1.53788226E-01  8.62858240E-08
 -6.61403731E-03 -1.24036196E-02  1.82309660E-03  1.45866310E-02 -7.93692577E-09
  1.34124008E-08 -8.53020425E-02 -9.00954366E-02 -8.53044770E-02 -9.00979944E-02
  1.70796037E-01  1.76284704E-01 -3.16576605E-08  2.77690752E-08 -1.55842976E-07
  3.45314105E-08 -1.97141796E-01  2.62639238E-07 -1.81344375E-07  1.51523423E-08
 -1.12224560E-01  1.36490107E-08  3.12320994E-07 -3.37513055E-07 -1.93198510E-08
  1.87036835E-02 -1.44169152E-02  1.26031311E-08 -6.78793011E-09  8.48977970E-09
 -1.43741775E-08  2.68373878E-01 -1.76832777E-07 -6.75644922E-08 -3.23970254E-11
  1.83264342E-01 -6.99745949E-09 -1.37483137E-09  9.51148322E-09 -3.38435703E-09
  1.85695260E-02 -3.47543753E-04  1.36998242E-08 -4.68991249E-08 -1.11583190E-07
 -1.85264192E-07  3.10912516E-01 -1.04840646E-08 -9.85058804E-08 -1.60316269E-07
  2.22220514E-01  1.81944130E-09  1.11000803E-08 -2.77941928E-08  1.44746946E-08
 -9.00644070E-03 -2.07840910E-02  1.49953444E-08 -5.08149606E-08 -1.34409337E-07
  2.20803430E-07  3.20628460E-01 -1.29654056E-08 -1.20314874E-07  1.83079600E-07
  2.30488191E-01  3.47336437E-09  9.87242291E-09 -2.93362215E-08 -1.67670224E-08
 -1.17765915E-02  2.00298074E-02 -1.23758926E-01 -1.27428454E-01  1.23757716E-01
  1.27427062E-01  1.13520913E-06  1.08180207E-06 -4.54226827E-03  6.42325997E-03
  2.71234436E-02 -7.81257470E-02 -8.94495257E-09  3.79970898E-02  1.90847366E-02
 -3.76812945E-02 -4.77519144E-08  4.17155073E-04  4.47747135E-03 -5.70260066E-03
  8.22619694E-03 -7.22525226E-09  1.42823901E-07  2.24153328E-04  1.36945155E-04
 -1.18373434E-02 -5.46382769E-02 -1.22512383E-08 -2.03459956E-03 -1.79470583E-04
  1.21976850E-01  1.84577966E-09  8.34340567E-03 -7.58899094E-03  2.15770283E-04
 -3.75978710E-02  7.55087986E-10  5.06975060E-09  2.71948841E-03  1.69218375E-03
 -3.35440355E-01  2.63385782E-01 -2.80595965E-08 -6.66275138E-02 -2.60922827E-01
  2.26338435E-01  1.23505961E-08  1.56245969E-02 -1.32594402E-02  2.53300570E-03
  7.49719601E-03  4.25665871E-09 -4.91535480E-09 -2.61469726E-03 -2.33035497E-03
  3.68722948E-01  3.04471847E-01  4.45871936E-08  6.52440936E-02  2.84159426E-01
  2.57345009E-01 -4.56512314E-09 -1.76303092E-02  1.40639060E-02 -2.61322792E-03
  5.33985311E-03 -4.36751451E-09 -6.05430646E-09 -3.51104651E-02 -3.94074099E-02
 -3.51113482E-02 -3.94082916E-02  5.68957429E-02  4.41662379E-02 -4.42831581E-02