
    -----------------------------------------------------------------------
          Psi4: An Open-Source Ab Initio Electronic Structure Package
                               Psi4 1.3.2 release

                         Git: Rev {HEAD} ecbda83 


    R. M. Parrish, L. A. Burns, D. G. A. Smith, A. C. Simmonett,
    A. E. DePrince III, E. G. Hohenstein, U. Bozkaya, A. Yu. Sokolov,
    R. Di Remigio, R. M. Richard, J. F. Gonthier, A. M. James,
    H. R. McAlexander, A. Kumar, M. Saitow, X. Wang, B. P. Pritchard,
    P. Verma, H. F. Schaefer III, K. Patkowski, R. A. King, E. F. Valeev,
    F. A. Evangelista, J. M. Turney, T. D. Crawford, and C. D. Sherrill,
    J. Chem. Theory Comput. 13(7) pp 3185--3197 (2017).
    (doi: 10.1021/acs.jctc.7b00174)


                         Additional Contributions by
    P. Kraus, H. Kruse, M. H. Lechner, M. C. Schieber, R. A. Shaw,
    A. Alenaizan, R. Galvelis, Z. L. Glick, S. Lehtola, and J. P. Misiewicz

    -----------------------------------------------------------------------


    Psi4 started on: Wednesday, 04 November 2020 12:41PM

    Process ID: 7265
    Host:       node142.bme.utexas.edu
    PSIDATADIR: /home/xy3866/psi4conda/share/psi4
    Memory:     500.0 MiB
    Threads:    8
    
  ==> Input File <==

--------------------------------------------------------------------------
#psi4
#
memory 32 gb

molecule  {
-1 1
  S        1.4290720    -0.0000060    -0.0599380
  C       -0.3440722    -0.0077035     0.3974644
  C       -1.0685120    -1.2503820    -0.1151110
  C       -1.0684970     1.2504130    -0.1151130
  H       -0.4262000    -0.0000020     1.4870350
  H       -1.0294530    -1.2924530    -1.2089010
  H       -0.5909885    -2.1522095     0.2779693
  H       -2.1238830    -1.2544140     0.1901240
  H       -1.0294410     1.2924540    -1.2089060
  H       -0.5972720     2.1575400     0.2733260
  H       -2.1238650     1.2544300     0.1901270
units angstrom
no_reorient  #important for SAPT in psi4, default
symmetry c1  #important for SAPT in psi4, default
}

set PROPERTIES_ORIGIN ["COM"]
properties('MP2/aug-cc-pvtz', properties = ['dipole'])
--------------------------------------------------------------------------

  Memory set to  29.802 GiB by Python driver.
    SCF Algorithm Type (re)set to DF.

*** tstart() called on node142.bme.utexas.edu
*** at Wed Nov  4 12:41:15 2020

   => Loading Basis Set <=

    Name: AUG-CC-PVTZ
    Role: ORBITAL
    Keyword: BASIS
    atoms 1    entry S          line   902 file /home/xy3866/psi4conda/share/psi4/basis/aug-cc-pvtz.gbs 
    atoms 2-4  entry C          line   235 file /home/xy3866/psi4conda/share/psi4/basis/aug-cc-pvtz.gbs 
    atoms 5-11 entry H          line    36 file /home/xy3866/psi4conda/share/psi4/basis/aug-cc-pvtz.gbs 


         ---------------------------------------------------------
                                   SCF
               by Justin Turney, Rob Parrish, Andy Simmonett
                          and Daniel G. A. Smith
                              RHF Reference
                        8 Threads,  30517 MiB Core
         ---------------------------------------------------------

  ==> Geometry <==

    Molecular point group: c1
    Full point group: C1

    Geometry (in Angstrom), charge = -1, multiplicity = 1:

       Center              X                  Y                   Z               Mass       
    ------------   -----------------  -----------------  -----------------  -----------------
         S            1.323318762383     0.001151912239    -0.061155206390    31.972071174400
         C           -0.449825437617    -0.006545587761     0.396247193610    12.000000000000
         C           -1.174265237617    -1.249224087761    -0.116328206390    12.000000000000
         C           -1.174250237617     1.251570912239    -0.116330206390    12.000000000000
         H           -0.531953237617     0.001155912239     1.485817793610     1.007825032230
         H           -1.135206237617    -1.291295087761    -1.210118206390     1.007825032230
         H           -0.696741737617    -2.151051587761     0.276752093610     1.007825032230
         H           -2.229636237617    -1.253256087761     0.188906793610     1.007825032230
         H           -1.135194237617     1.293611912239    -1.210123206390     1.007825032230
         H           -0.703025237617     2.158697912239     0.272108793610     1.007825032230
         H           -2.229618237617     1.255587912239     0.188909793610     1.007825032230

  Running in c1 symmetry.

  Rotational constants: A =      0.27569  B =      0.14901  C =      0.10614 [cm^-1]
  Rotational constants: A =   8265.04030  B =   4467.27812  C =   3181.91902 [MHz]
  Nuclear repulsion =  158.794559122072542

  Charge       = -1
  Multiplicity = 1
  Electrons    = 42
  Nalpha       = 21
  Nbeta        = 21

  ==> Algorithm <==

  SCF Algorithm Type is DF.
  DIIS enabled.
  MOM disabled.
  Fractional occupation disabled.
  Guess Type is SAD.
  Energy threshold   = 1.00e-10
  Density threshold  = 1.00e-10
  Integral threshold = 0.00e+00

  ==> Primary Basis <==

  Basis Set: AUG-CC-PVTZ
    Blend: AUG-CC-PVTZ
    Number of shells: 121
    Number of basis function: 349
    Number of Cartesian functions: 399
    Spherical Harmonics?: true
    Max angular momentum: 3

   => Loading Basis Set <=

    Name: (AUG-CC-PVTZ AUX)
    Role: JKFIT
    Keyword: DF_BASIS_SCF
    atoms 1    entry S          line   730 file /home/xy3866/psi4conda/share/psi4/basis/aug-cc-pvtz-jkfit.gbs 
    atoms 2-4  entry C          line   162 file /home/xy3866/psi4conda/share/psi4/basis/aug-cc-pvtz-jkfit.gbs 
    atoms 5-11 entry H          line    70 file /home/xy3866/psi4conda/share/psi4/basis/aug-cc-pvtz-jkfit.gbs 

  ==> Pre-Iterations <==

   -------------------------------------------------------
    Irrep   Nso     Nmo     Nalpha   Nbeta   Ndocc  Nsocc
   -------------------------------------------------------
     A        349     349       0       0       0       0
   -------------------------------------------------------
    Total     349     349      21      21      21       0
   -------------------------------------------------------

  ==> Integral Setup <==

  DFHelper Memory: AOs need 0.742 GiB; user supplied 22.352 GiB. Using in-core AOs.

  ==> MemDFJK: Density-Fitted J/K Matrices <==

    J tasked:                   Yes
    K tasked:                   Yes
    wK tasked:                   No
    OpenMP threads:               8
    Memory [MiB]:             22888
    Algorithm:                 Core
    Schwarz Cutoff:           1E-12
    Mask sparsity (%):       0.2545
    Fitting Condition:        1E-10

   => Auxiliary Basis Set <=

  Basis Set: (AUG-CC-PVTZ AUX)
    Blend: AUG-CC-PVTZ-JKFIT
    Number of shells: 230
    Number of basis function: 780
    Number of Cartesian functions: 958
    Spherical Harmonics?: true
    Max angular momentum: 4

  Minimum eigenvalue in the overlap matrix is 1.4110168398E-05.
  Using Symmetric Orthogonalization.

  SCF Guess: Superposition of Atomic Densities via on-the-fly atomic UHF.

  ==> Iterations <==

                           Total Energy        Delta E     RMS |[F,P]|

   @DF-RHF iter SAD:  -514.56357000633875   -5.14564e+02   0.00000e+00 
   @DF-RHF iter   1:  -515.03949806932951   -4.75928e-01   1.72380e-03 DIIS
   @DF-RHF iter   2:  -515.21814015909649   -1.78642e-01   9.30284e-04 DIIS
   @DF-RHF iter   3:  -515.27309560737388   -5.49554e-02   1.67677e-04 DIIS
   @DF-RHF iter   4:  -515.27580232233925   -2.70671e-03   6.58984e-05 DIIS
   @DF-RHF iter   5:  -515.27623556727269   -4.33245e-04   1.08045e-05 DIIS
   @DF-RHF iter   6:  -515.27625542578176   -1.98585e-05   3.21103e-06 DIIS
   @DF-RHF iter   7:  -515.27625757635337   -2.15057e-06   1.14776e-06 DIIS
   @DF-RHF iter   8:  -515.27625789300623   -3.16653e-07   3.29557e-07 DIIS
   @DF-RHF iter   9:  -515.27625791944331   -2.64371e-08   9.64014e-08 DIIS
   @DF-RHF iter  10:  -515.27625792139168   -1.94837e-09   3.07781e-08 DIIS
   @DF-RHF iter  11:  -515.27625792153003   -1.38357e-10   7.20716e-09 DIIS
   @DF-RHF iter  12:  -515.27625792154117   -1.11413e-11   2.04285e-09 DIIS
   @DF-RHF iter  13:  -515.27625792154333   -2.16005e-12   6.38401e-10 DIIS
   @DF-RHF iter  14:  -515.27625792154367   -3.41061e-13   2.50643e-10 DIIS
   @DF-RHF iter  15:  -515.27625792154470   -1.02318e-12   7.84761e-11 DIIS
  Energy and wave function converged.


  ==> Post-Iterations <==

    Orbital Energies [Eh]
    ---------------------

    Doubly Occupied:                                                      

       1A    -91.667075     2A    -11.068816     3A    -11.055719  
       4A    -11.055582     5A     -8.667204     6A     -6.348764  
       7A     -6.347113     8A     -6.347104     9A     -0.896579  
      10A     -0.766995    11A     -0.682981    12A     -0.562145  
      13A     -0.448800    14A     -0.414563    15A     -0.396772  
      16A     -0.376148    17A     -0.316489    18A     -0.312416  
      19A     -0.222707    20A     -0.092621    21A     -0.091783  

    Virtual:                                                              

      22A      0.122427    23A      0.129303    24A      0.136848  
      25A      0.142845    26A      0.151511    27A      0.156186  
      28A      0.159787    29A      0.193848    30A      0.216158  
      31A      0.223753    32A      0.231301    33A      0.243667  
      34A      0.244720    35A      0.254145    36A      0.255571  
      37A      0.260661    38A      0.264289    39A      0.270493  
      40A      0.283595    41A      0.294751    42A      0.319343  
      43A      0.329847    44A      0.340315    45A      0.376099  
      46A      0.385867    47A      0.390016    48A      0.401368  
      49A      0.423955    50A      0.432414    51A      0.442992  
      52A      0.448537    53A      0.457585    54A      0.466013  
      55A      0.476625    56A      0.480351    57A      0.485485  
      58A      0.490291    59A      0.490629    60A      0.494586  
      61A      0.500701    62A      0.513381    63A      0.524932  
      64A      0.534531    65A      0.538620    66A      0.553307  
      67A      0.562649    68A      0.568857    69A      0.571974  
      70A      0.578115    71A      0.582893    72A      0.583865  
      73A      0.591777    74A      0.602791    75A      0.613814  
      76A      0.618374    77A      0.621990    78A      0.627908  
      79A      0.631549    80A      0.637565    81A      0.646039  
      82A      0.658657    83A      0.667919    84A      0.669621  
      85A      0.688117    86A      0.704296    87A      0.710499  
      88A      0.724446    89A      0.740027    90A      0.747776  
      91A      0.753933    92A      0.758733    93A      0.773852  
      94A      0.791416    95A      0.808897    96A      0.871234  
      97A      0.884654    98A      0.905085    99A      0.931491  
     100A      0.932959   101A      0.948091   102A      0.964394  
     103A      0.982332   104A      0.994502   105A      0.996699  
     106A      0.998058   107A      1.002365   108A      1.013937  
     109A      1.024569   110A      1.025098   111A      1.045477  
     112A      1.052012   113A      1.056539   114A      1.066867  
     115A      1.073908   116A      1.078463   117A      1.080368  
     118A      1.090873   119A      1.099539   120A      1.113824  
     121A      1.118457   122A      1.127960   123A      1.141356  
     124A      1.147291   125A      1.181610   126A      1.187693  
     127A      1.192052   128A      1.214901   129A      1.219704  
     130A      1.221033   131A      1.234275   132A      1.245527  
     133A      1.253161   134A      1.261584   135A      1.263807  
     136A      1.284493   137A      1.305913   138A      1.309023  
     139A      1.316330   140A      1.325628   141A      1.339674  
     142A      1.346298   143A      1.364970   144A      1.368592  
     145A      1.372873   146A      1.381757   147A      1.403611  
     148A      1.412927   149A      1.444795   150A      1.470050  
     151A      1.476311   152A      1.487547   153A      1.494970  
     154A      1.497068   155A      1.530059   156A      1.536989  
     157A      1.568554   158A      1.581874   159A      1.584464  
     160A      1.586936   161A      1.609425   162A      1.636504  
     163A      1.643403   164A      1.654463   165A      1.681840  
     166A      1.689150   167A      1.702929   168A      1.729572  
     169A      1.740431   170A      1.757252   171A      1.778000  
     172A      1.779450   173A      1.797427   174A      1.827986  
     175A      1.837094   176A      1.852437   177A      1.852590  
     178A      1.861587   179A      1.882425   180A      1.883595  
     181A      1.890300   182A      1.896961   183A      1.907849  
     184A      1.924329   185A      1.961180   186A      1.992838  
     187A      2.015135   188A      2.017087   189A      2.042372  
     190A      2.068932   191A      2.090726   192A      2.093483  
     193A      2.110381   194A      2.112614   195A      2.131499  
     196A      2.136502   197A      2.151012   198A      2.186147  
     199A      2.205399   200A      2.235432   201A      2.253594  
     202A      2.256488   203A      2.306180   204A      2.323766  
     205A      2.334182   206A      2.356925   207A      2.387376  
     208A      2.389689   209A      2.395147   210A      2.417191  
     211A      2.426190   212A      2.435617   213A      2.466322  
     214A      2.513940   215A      2.516387   216A      2.519977  
     217A      2.554585   218A      2.557901   219A      2.611763  
     220A      2.649054   221A      2.655836   222A      2.713205  
     223A      2.728015   224A      2.779988   225A      2.798186  
     226A      2.817965   227A      2.844901   228A      2.856886  
     229A      2.890265   230A      2.948000   231A      2.976713  
     232A      3.010778   233A      3.050450   234A      3.183573  
     235A      3.240521   236A      3.327810   237A      3.336334  
     238A      3.391310   239A      3.446203   240A      3.534770  
     241A      3.565931   242A      3.613729   243A      3.634492  
     244A      3.637147   245A      3.649419   246A      3.728128  
     247A      3.767484   248A      3.775343   249A      3.798199  
     250A      3.800327   251A      3.819717   252A      3.833626  
     253A      3.850464   254A      3.867931   255A      3.873712  
     256A      3.902500   257A      3.926073   258A      3.950002  
     259A      3.990613   260A      4.004478   261A      4.015555  
     262A      4.021057   263A      4.084166   264A      4.100800  
     265A      4.110572   266A      4.116403   267A      4.128498  
     268A      4.149981   269A      4.176572   270A      4.181082  
     271A      4.199320   272A      4.210207   273A      4.233670  
     274A      4.289851   275A      4.326927   276A      4.364911  
     277A      4.373899   278A      4.383894   279A      4.397996  
     280A      4.413144   281A      4.435053   282A      4.455562  
     283A      4.467348   284A      4.504315   285A      4.521746  
     286A      4.601280   287A      4.627013   288A      4.658657  
     289A      4.702470   290A      4.741858   291A      4.768827  
     292A      4.790571   293A      4.826819   294A      4.839355  
     295A      4.881702   296A      4.894592   297A      4.943769  
     298A      4.973317   299A      4.994089   300A      5.009306  
     301A      5.024764   302A      5.036408   303A      5.061189  
     304A      5.073850   305A      5.119299   306A      5.173149  
     307A      5.179813   308A      5.189055   309A      5.256756  
     310A      5.283183   311A      5.315703   312A      5.371352  
     313A      5.388569   314A      5.394659   315A      5.410887  
     316A      5.490565   317A      5.493490   318A      5.519070  
     319A      5.572110   320A      5.572579   321A      5.599904  
     322A      5.622586   323A      5.635663   324A      5.660742  
     325A      5.784206   326A      5.795016   327A      5.816031  
     328A      5.895635   329A      5.951245   330A      5.978375  
     331A      6.035229   332A      6.050007   333A      6.179328  
     334A      6.234409   335A      6.251899   336A      6.290778  
     337A      6.336205   338A      6.349630   339A      6.448658  
     340A      6.470338   341A      6.633063   342A      6.940216  
     343A      6.941346   344A      6.990789   345A      7.011245  
     346A      7.304368   347A     17.024393   348A     17.823133  
     349A     18.414837  

    Final Occupation by Irrep:
              A 
    DOCC [    21 ]

  @DF-RHF Final Energy:  -515.27625792154470

   => Energetics <=

    Nuclear Repulsion Energy =            158.7945591220725419
    One-Electron Energy =               -1031.8648805483621800
    Two-Electron Energy =                 357.7940635047449405
    Total Energy =                       -515.2762579215446976

Computation Completed

*** tstop() called on node142.bme.utexas.edu at Wed Nov  4 12:41:30 2020
Module time:
	user time   =      78.93 seconds =       1.32 minutes
	system time =       3.52 seconds =       0.06 minutes
	total time  =         15 seconds =       0.25 minutes
Total time:
	user time   =      78.93 seconds =       1.32 minutes
	system time =       3.52 seconds =       0.06 minutes
	total time  =         15 seconds =       0.25 minutes
   => Loading Basis Set <=

    Name: (AUG-CC-PVTZ AUX)
    Role: RIFIT
    Keyword: DF_BASIS_MP2
    atoms 1    entry S          line   666 file /home/xy3866/psi4conda/share/psi4/basis/aug-cc-pvtz-ri.gbs 
    atoms 2-4  entry C          line   148 file /home/xy3866/psi4conda/share/psi4/basis/aug-cc-pvtz-ri.gbs 
    atoms 5-11 entry H          line    30 file /home/xy3866/psi4conda/share/psi4/basis/aug-cc-pvtz-ri.gbs 


*** tstart() called on node142.bme.utexas.edu
*** at Wed Nov  4 12:41:30 2020


  //>>>>>>>>>>>>>>>>>>>>>>>>>>>>>>>>>>>//
  //               DFMP2               //
  //<<<<<<<<<<<<<<<<<<<<<<<<<<<<<<<<<<<//

	 --------------------------------------------------------
	                          DF-MP2                         
	      2nd-Order Density-Fitted Moller-Plesset Theory     
	              RMP2 Wavefunction,   8 Threads             
	                                                         
	        Rob Parrish, Justin Turney, Andy Simmonett,      
	           Ed Hohenstein, and C. David Sherrill          
	 --------------------------------------------------------

   => Auxiliary Basis Set <=

  Basis Set: (AUG-CC-PVTZ AUX)
    Blend: AUG-CC-PVTZ-RI
    Number of shells: 219
    Number of basis function: 787
    Number of Cartesian functions: 984
    Spherical Harmonics?: true
    Max angular momentum: 4

	 --------------------------------------------------------
	                 NBF =   349, NAUX =   787
	 --------------------------------------------------------
	   CLASS    FOCC     OCC    AOCC    AVIR     VIR    FVIR
	   PAIRS       0      21      21     328     328       0
	 --------------------------------------------------------

  DFHelper Memory: AOs need 0.742 GiB; user supplied 22.352 GiB. Using in-core AOs.


         ------------------------------------------------------------
                                     CPHF                           
                                  Rob Parrish                       
         ------------------------------------------------------------

  ==> Geometry <==

    Molecular point group: c1
    Full point group: C1

    Geometry (in Angstrom), charge = -1, multiplicity = 1:

       Center              X                  Y                   Z               Mass       
    ------------   -----------------  -----------------  -----------------  -----------------
         S            1.323318762383     0.001151912239    -0.061155206390    31.972071174400
         C           -0.449825437617    -0.006545587761     0.396247193610    12.000000000000
         C           -1.174265237617    -1.249224087761    -0.116328206390    12.000000000000
         C           -1.174250237617     1.251570912239    -0.116330206390    12.000000000000
         H           -0.531953237617     0.001155912239     1.485817793610     1.007825032230
         H           -1.135206237617    -1.291295087761    -1.210118206390     1.007825032230
         H           -0.696741737617    -2.151051587761     0.276752093610     1.007825032230
         H           -2.229636237617    -1.253256087761     0.188906793610     1.007825032230
         H           -1.135194237617     1.293611912239    -1.210123206390     1.007825032230
         H           -0.703025237617     2.158697912239     0.272108793610     1.007825032230
         H           -2.229618237617     1.255587912239     0.188909793610     1.007825032230

  Nuclear repulsion =  158.794559122072542
  Reference energy  = -515.276257921544698

  ==> Basis Set <==

  Basis Set: AUG-CC-PVTZ
    Blend: AUG-CC-PVTZ
    Number of shells: 121
    Number of basis function: 349
    Number of Cartesian functions: 399
    Spherical Harmonics?: true
    Max angular momentum: 3

  ==> CGRSolver (by Rob Parrish) <==

   Number of roots    =         1
   Preconditioning    =    JACOBI
   Convergence cutoff =     1E-06
   Maximum iterations =       100

  ==> CPHFRHamiltonian (by Rob Parrish) <== 

  ==> MemDFJK: Density-Fitted J/K Matrices <==

    J tasked:                   Yes
    K tasked:                   Yes
    wK tasked:                   No
    OpenMP threads:               8
    Memory [MiB]:             22888
    Algorithm:                 Core
    Schwarz Cutoff:           1E-12
    Mask sparsity (%):       0.2545
    Fitting Condition:        1E-10

   => Auxiliary Basis Set <=

  Basis Set: (AUG-CC-PVTZ AUX)
    Blend: AUG-CC-PVTZ-JKFIT
    Number of shells: 230
    Number of basis function: 780
    Number of Cartesian functions: 958
    Spherical Harmonics?: true
    Max angular momentum: 4

  ==> CPHF Iterations <==

  => Iterations <=

             Iter  Converged  Remaining    Residual
  CGR           1          0          1   1.113E-01
  CGR           2          0          1   2.346E-02
  CGR           3          0          1   1.088E-02
  CGR           4          0          1   3.225E-03
  CGR           5          0          1   7.688E-04
  CGR           6          0          1   2.406E-04
  CGR           7          0          1   6.948E-05
  CGR           8          0          1   1.774E-05
  CGR           9          0          1   6.548E-06
  CGR          10          0          1   2.269E-06
  CGR          11          1          0   5.362E-07

    CGRSolver converged.

	-----------------------------------------------------------
	 ==================> DF-MP2 Energies <==================== 
	-----------------------------------------------------------
	 Reference Energy          =    -515.2762579215446976 [Eh]
	 Singles Energy            =      -0.0000000000000000 [Eh]
	 Same-Spin Energy          =      -0.1881086502160947 [Eh]
	 Opposite-Spin Energy      =      -0.6464403605474066 [Eh]
	 Correlation Energy        =      -0.8345490107635013 [Eh]
	 Total Energy              =    -516.1108069323081509 [Eh]
	-----------------------------------------------------------
	 ================> DF-SCS-MP2 Energies <================== 
	-----------------------------------------------------------
	 SCS Same-Spin Scale       =       0.3333333333333333 [-]
	 SCS Opposite-Spin Scale   =       1.2000000000000000 [-]
	 SCS Same-Spin Energy      =      -0.0627028834053649 [Eh]
	 SCS Opposite-Spin Energy  =      -0.7757284326568880 [Eh]
	 SCS Correlation Energy    =      -0.8384313160622529 [Eh]
	 SCS Total Energy          =    -516.1146892376069673 [Eh]
	-----------------------------------------------------------



Properties will be evaluated at   0.000000,  -0.000000,   0.000000 [a0]

Properties computed using the MP2 density matrix

  Nuclear Dipole Moment: [e a0]
     X:    -8.0849      Y:     0.0126      Z:    -0.0089

  Electronic Dipole Moment: [e a0]
     X:     6.0679      Y:    -0.0157      Z:     0.2321

  Dipole Moment: [e a0]
     X:    -2.0170      Y:    -0.0030      Z:     0.2233     Total:     2.0293

  Dipole Moment: [D]
     X:    -5.1266      Y:    -0.0077      Z:     0.5675     Total:     5.1579


*** tstop() called on node142.bme.utexas.edu at Wed Nov  4 12:42:02 2020
Module time:
	user time   =     201.82 seconds =       3.36 minutes
	system time =       5.80 seconds =       0.10 minutes
	total time  =         32 seconds =       0.53 minutes
Total time:
	user time   =     281.52 seconds =       4.69 minutes
	system time =       9.38 seconds =       0.16 minutes
	total time  =         47 seconds =       0.78 minutes

    Psi4 stopped on: Wednesday, 04 November 2020 12:42PM
    Psi4 wall time for execution: 0:00:47.36

*** Psi4 exiting successfully. Buy a developer a beer!
