
    -----------------------------------------------------------------------
          Psi4: An Open-Source Ab Initio Electronic Structure Package
                               Psi4 1.4a3.dev225 

                         Git: Rev {master} 7105e37 


    D. G. A. Smith, L. A. Burns, A. C. Simmonett, R. M. Parrish,
    M. C. Schieber, R. Galvelis, P. Kraus, H. Kruse, R. Di Remigio,
    A. Alenaizan, A. M. James, S. Lehtola, J. P. Misiewicz, M. Scheurer,
    R. A. Shaw, J. B. Schriber, Y. Xie, Z. L. Glick, D. A. Sirianni,
    J. S. O'Brien, J. M. Waldrop, A. Kumar, E. G. Hohenstein,
    B. P. Pritchard, B. R. Brooks, H. F. Schaefer III, A. Yu. Sokolov,
    K. Patkowski, A. E. DePrince III, U. Bozkaya, R. A. King,
    F. A. Evangelista, J. M. Turney, T. D. Crawford, C. D. Sherrill,
    J. Chem. Phys. 152(18) 184108 (2020). https://doi.org/10.1063/5.0006002

                            Additional Code Authors
    E. T. Seidl, C. L. Janssen, E. F. Valeev, M. L. Leininger,
    J. F. Gonthier, R. M. Richard, H. R. McAlexander, M. Saitow, X. Wang,
    P. Verma, and M. H. Lechner

             Previous Authors, Complete List of Code Contributors,
                       and Citations for Specific Modules
    https://github.com/psi4/psi4/blob/master/codemeta.json
    https://github.com/psi4/psi4/graphs/contributors
    http://psicode.org/psi4manual/master/introduction.html#citing-psifour

    -----------------------------------------------------------------------


    Psi4 started on: Thursday, 01 April 2021 01:20AM

    Process ID: 39387
    Host:       c446-061.stampede2.tacc.utexas.edu
    PSIDATADIR: /home1/07844/xy3866/miniconda3/envs/p4env/share/psi4
    Memory:     500.0 MiB
    Threads:    8
    
  ==> Input File <==

--------------------------------------------------------------------------
#psi4
#
memory 32 gb

molecule  {
0 1
  F        1.4077440     2.3569060     0.0024490
  F        1.4077500    -2.3569030     0.0024500
  C       -1.3651830    -0.0000010    -0.0169560
  C       -0.6574790    -1.2079560    -0.0091570
  C       -0.6574810     1.2079540    -0.0091560
  C       -2.8713810    -0.0000030     0.0124600
  C        0.7312170     1.1805550     0.0005770
  C        0.7312190    -1.1805530     0.0005760
  C        1.4628560     0.0000010     0.0071220
  H       -1.1698750    -2.1658170    -0.0181430
  H       -1.1698790     2.1658150    -0.0181420
  H       -3.2423250     0.0000120     1.0428870
  H       -3.2661083     0.8693861    -0.4776823
  H       -3.2734620    -0.8856090    -0.4867890
  H        2.5469510     0.0000020     0.0101120
units angstrom
no_reorient  #important for SAPT in psi4, default
symmetry c1  #important for SAPT in psi4, default
}

set PROPERTIES_ORIGIN ["COM"]
properties('MP2/aug-cc-pvtz', properties = ['dipole'])
--------------------------------------------------------------------------

  Memory set to  29.802 GiB by Python driver.
    SCF Algorithm Type (re)set to DF.

*** tstart() called on c446-061.stampede2.tacc.utexas.edu
*** at Thu Apr  1 01:20:18 2021

   => Loading Basis Set <=

    Name: AUG-CC-PVTZ
    Role: ORBITAL
    Keyword: BASIS
    atoms 1-2   entry F          line   377 file /home1/07844/xy3866/miniconda3/envs/p4env/share/psi4/basis/aug-cc-pvtz.gbs 
    atoms 3-9   entry C          line   239 file /home1/07844/xy3866/miniconda3/envs/p4env/share/psi4/basis/aug-cc-pvtz.gbs 
    atoms 10-15 entry H          line    40 file /home1/07844/xy3866/miniconda3/envs/p4env/share/psi4/basis/aug-cc-pvtz.gbs 


         ---------------------------------------------------------
                                   SCF
               by Justin Turney, Rob Parrish, Andy Simmonett
                          and Daniel G. A. Smith
                              RHF Reference
                        8 Threads,  30517 MiB Core
         ---------------------------------------------------------

  ==> Geometry <==

    Molecular point group: c1
    Full point group: C1

    Geometry (in Angstrom), charge = 0, multiplicity = 1:

       Center              X                  Y                   Z               Mass       
    ------------   -----------------  -----------------  -----------------  -----------------
         F            1.311484050850     2.357033431091     0.002673011876    18.998403162730
         F            1.311490050850    -2.356775568909     0.002674011876    18.998403162730
         C           -1.461442949150     0.000126431091    -0.016731988124    12.000000000000
         C           -0.753738949150    -1.207828568909    -0.008932988124    12.000000000000
         C           -0.753740949150     1.208081431091    -0.008931988124    12.000000000000
         C           -2.967640949150     0.000124431091     0.012684011876    12.000000000000
         C            0.634957050850     1.180682431091     0.000801011876    12.000000000000
         C            0.634959050850    -1.180425568909     0.000800011876    12.000000000000
         C            1.366596050850     0.000128431091     0.007346011876    12.000000000000
         H           -1.266134949150    -2.165689568909    -0.017918988124     1.007825032230
         H           -1.266138949150     2.165942431091    -0.017917988124     1.007825032230
         H           -3.338584949150     0.000139431091     1.043111011876     1.007825032230
         H           -3.362368249150     0.869513531091    -0.477458288124     1.007825032230
         H           -3.369721949150    -0.885481568909    -0.486564988124     1.007825032230
         H            2.450691050850     0.000129431091     0.010336011876     1.007825032230

  Running in c1 symmetry.

  Rotational constants: A =      0.05867  B =      0.05771  C =      0.02925 [cm^-1]
  Rotational constants: A =   1758.95649  B =   1730.02349  C =    876.94872 [MHz]
  Nuclear repulsion =  420.592382048049842

  Charge       = 0
  Multiplicity = 1
  Electrons    = 66
  Nalpha       = 33
  Nbeta        = 33

  ==> Algorithm <==

  SCF Algorithm Type is DF.
  DIIS enabled.
  MOM disabled.
  Fractional occupation disabled.
  Guess Type is SAD.
  Energy threshold   = 1.00e-10
  Density threshold  = 1.00e-10
  Integral threshold = 1.00e-12

  ==> Primary Basis <==

  Basis Set: AUG-CC-PVTZ
    Blend: AUG-CC-PVTZ
    Number of shells: 180
    Number of basis functions: 552
    Number of Cartesian functions: 645
    Spherical Harmonics?: true
    Max angular momentum: 3

   => Loading Basis Set <=

    Name: (AUG-CC-PVTZ AUX)
    Role: JKFIT
    Keyword: DF_BASIS_SCF
    atoms 1-2   entry F          line   348 file /home1/07844/xy3866/miniconda3/envs/p4env/share/psi4/basis/aug-cc-pvtz-jkfit.gbs 
    atoms 3-9   entry C          line   162 file /home1/07844/xy3866/miniconda3/envs/p4env/share/psi4/basis/aug-cc-pvtz-jkfit.gbs 
    atoms 10-15 entry H          line    70 file /home1/07844/xy3866/miniconda3/envs/p4env/share/psi4/basis/aug-cc-pvtz-jkfit.gbs 

  ==> Integral Setup <==

  DFHelper Memory: AOs need 2.633 GiB; user supplied 22.352 GiB. Using in-core AOs.

  ==> MemDFJK: Density-Fitted J/K Matrices <==

    J tasked:                   Yes
    K tasked:                   Yes
    wK tasked:                   No
    OpenMP threads:               8
    Memory [MiB]:             22888
    Algorithm:                 Core
    Schwarz Cutoff:           1E-12
    Mask sparsity (%):       7.5798
    Fitting Condition:        1E-10

   => Auxiliary Basis Set <=

  Basis Set: (AUG-CC-PVTZ AUX)
    Blend: AUG-CC-PVTZ-JKFIT
    Number of shells: 354
    Number of basis functions: 1212
    Number of Cartesian functions: 1509
    Spherical Harmonics?: true
    Max angular momentum: 4

  Minimum eigenvalue in the overlap matrix is 9.1187192634E-07.
  Reciprocal condition number of the overlap matrix is 5.1976343794E-08.
    Using symmetric orthogonalization.

  ==> Pre-Iterations <==

  SCF Guess: Superposition of Atomic Densities via on-the-fly atomic UHF (no occupation information).

   -------------------------
    Irrep   Nso     Nmo    
   -------------------------
     A        552     552 
   -------------------------
    Total     552     552
   -------------------------

  ==> Iterations <==

                           Total Energy        Delta E     RMS |[F,P]|

   @DF-RHF iter SAD:  -466.96743894485019   -4.66967e+02   0.00000e+00 
   @DF-RHF iter   1:  -467.38809103683843   -4.20652e-01   1.14243e-03 DIIS
   @DF-RHF iter   2:  -467.57160899600217   -1.83518e-01   5.11519e-04 DIIS
   @DF-RHF iter   3:  -467.60823809160257   -3.66291e-02   1.22920e-04 DIIS
   @DF-RHF iter   4:  -467.61125657420416   -3.01848e-03   5.53696e-05 DIIS
   @DF-RHF iter   5:  -467.61181919984301   -5.62626e-04   7.24224e-06 DIIS
   @DF-RHF iter   6:  -467.61183665235313   -1.74525e-05   2.85593e-06 DIIS
   @DF-RHF iter   7:  -467.61183942527799   -2.77292e-06   1.30945e-06 DIIS
   @DF-RHF iter   8:  -467.61184034869461   -9.23417e-07   6.07856e-07 DIIS
   @DF-RHF iter   9:  -467.61184062129973   -2.72605e-07   2.75941e-07 DIIS
   @DF-RHF iter  10:  -467.61184067585060   -5.45509e-08   9.70289e-08 DIIS
   @DF-RHF iter  11:  -467.61184068269654   -6.84594e-09   2.86948e-08 DIIS
   @DF-RHF iter  12:  -467.61184068308802   -3.91481e-10   8.77858e-09 DIIS
   @DF-RHF iter  13:  -467.61184068311229   -2.42721e-11   2.04861e-09 DIIS
   @DF-RHF iter  14:  -467.61184068311383   -1.53477e-12   4.46976e-10 DIIS
   @DF-RHF iter  15:  -467.61184068311485   -1.02318e-12   1.89468e-10 DIIS
   @DF-RHF iter  16:  -467.61184068311422    6.25278e-13   5.53022e-11 DIIS
  Energy and wave function converged.


  ==> Post-Iterations <==

    Orbital Energies [Eh]
    ---------------------

    Doubly Occupied:                                                      

       1A    -26.317039     2A    -26.317005     3A    -11.345984  
       4A    -11.345935     5A    -11.274288     6A    -11.251478  
       7A    -11.246379     8A    -11.246258     9A    -11.239415  
      10A     -1.630336    11A     -1.629787    12A     -1.179714  
      13A     -1.070927    14A     -1.032414    15A     -0.964431  
      16A     -0.862965    17A     -0.844470    18A     -0.754610  
      19A     -0.740831    20A     -0.702132    21A     -0.698406  
      22A     -0.694224    23A     -0.687234    24A     -0.662596  
      25A     -0.604015    26A     -0.598326    27A     -0.593490  
      28A     -0.556841    29A     -0.541512    30A     -0.524159  
      31A     -0.503007    32A     -0.349992    33A     -0.349464  

    Virtual:                                                              

      34A      0.026117    35A      0.035876    36A      0.036022  
      37A      0.042389    38A      0.047020    39A      0.061322  
      40A      0.081745    41A      0.083771    42A      0.092077  
      43A      0.093750    44A      0.097059    45A      0.102900  
      46A      0.111783    47A      0.114185    48A      0.120665  
      49A      0.125791    50A      0.132047    51A      0.132565  
      52A      0.137596    53A      0.138801    54A      0.142221  
      55A      0.146019    56A      0.148042    57A      0.150697  
      58A      0.156400    59A      0.164001    60A      0.169324  
      61A      0.175654    62A      0.182801    63A      0.202407  
      64A      0.210162    65A      0.215567    66A      0.224338  
      67A      0.233348    68A      0.243573    69A      0.251131  
      70A      0.256160    71A      0.257690    72A      0.264339  
      73A      0.276245    74A      0.281941    75A      0.299104  
      76A      0.299300    77A      0.310927    78A      0.311930  
      79A      0.319614    80A      0.319934    81A      0.323661  
      82A      0.324873    83A      0.327589    84A      0.338695  
      85A      0.347139    86A      0.348244    87A      0.359658  
      88A      0.359967    89A      0.363101    90A      0.369342  
      91A      0.372417    92A      0.380632    93A      0.387187  
      94A      0.388724    95A      0.400942    96A      0.404784  
      97A      0.409535    98A      0.410783    99A      0.416528  
     100A      0.426182   101A      0.440562   102A      0.445294  
     103A      0.453280   104A      0.458055   105A      0.465543  
     106A      0.470655   107A      0.475340   108A      0.477693  
     109A      0.480689   110A      0.488189   111A      0.489573  
     112A      0.498368   113A      0.503948   114A      0.507574  
     115A      0.513375   116A      0.513750   117A      0.523275  
     118A      0.532363   119A      0.539132   120A      0.543873  
     121A      0.553481   122A      0.556673   123A      0.558687  
     124A      0.567485   125A      0.577548   126A      0.581105  
     127A      0.591157   128A      0.601397   129A      0.603833  
     130A      0.634863   131A      0.636824   132A      0.652808  
     133A      0.660408   134A      0.666319   135A      0.673220  
     136A      0.685397   137A      0.697332   138A      0.706537  
     139A      0.709017   140A      0.721648   141A      0.731613  
     142A      0.732712   143A      0.737319   144A      0.746791  
     145A      0.767338   146A      0.785995   147A      0.794018  
     148A      0.798380   149A      0.820671   150A      0.822807  
     151A      0.826244   152A      0.836849   153A      0.843149  
     154A      0.850648   155A      0.856117   156A      0.859453  
     157A      0.869442   158A      0.884897   159A      0.885807  
     160A      0.889017   161A      0.889383   162A      0.899201  
     163A      0.916356   164A      0.918358   165A      0.927411  
     166A      0.935719   167A      0.943613   168A      0.952670  
     169A      0.961847   170A      0.966118   171A      0.968334  
     172A      0.980250   173A      0.981488   174A      0.996223  
     175A      0.996792   176A      1.006776   177A      1.008352  
     178A      1.012182   179A      1.015899   180A      1.020168  
     181A      1.032733   182A      1.036887   183A      1.040217  
     184A      1.048515   185A      1.068591   186A      1.077522  
     187A      1.082725   188A      1.090957   189A      1.094290  
     190A      1.102731   191A      1.103373   192A      1.117060  
     193A      1.120649   194A      1.129946   195A      1.143885  
     196A      1.148960   197A      1.153447   198A      1.170693  
     199A      1.174450   200A      1.182444   201A      1.189147  
     202A      1.193398   203A      1.199761   204A      1.204458  
     205A      1.206639   206A      1.215904   207A      1.221465  
     208A      1.237333   209A      1.243769   210A      1.253435  
     211A      1.264686   212A      1.275984   213A      1.287682  
     214A      1.310525   215A      1.318597   216A      1.319066  
     217A      1.329910   218A      1.333001   219A      1.341019  
     220A      1.359082   221A      1.361081   222A      1.368449  
     223A      1.375398   224A      1.385485   225A      1.405536  
     226A      1.411345   227A      1.414781   228A      1.434288  
     229A      1.444262   230A      1.446426   231A      1.461992  
     232A      1.478120   233A      1.499374   234A      1.504055  
     235A      1.512386   236A      1.535997   237A      1.539142  
     238A      1.543140   239A      1.567680   240A      1.583046  
     241A      1.595689   242A      1.609004   243A      1.625521  
     244A      1.632217   245A      1.645931   246A      1.659214  
     247A      1.663581   248A      1.665814   249A      1.669126  
     250A      1.685548   251A      1.704344   252A      1.712187  
     253A      1.717205   254A      1.729078   255A      1.735467  
     256A      1.748330   257A      1.771652   258A      1.781467  
     259A      1.789264   260A      1.796584   261A      1.799089  
     262A      1.801758   263A      1.819087   264A      1.828399  
     265A      1.829137   266A      1.867119   267A      1.876375  
     268A      1.883408   269A      1.891685   270A      1.893239  
     271A      1.911657   272A      1.921240   273A      1.923497  
     274A      1.942499   275A      1.945737   276A      1.964608  
     277A      1.973055   278A      2.005294   279A      2.011873  
     280A      2.013472   281A      2.052699   282A      2.055212  
     283A      2.065702   284A      2.066685   285A      2.096971  
     286A      2.103751   287A      2.105944   288A      2.110705  
     289A      2.123101   290A      2.125437   291A      2.142946  
     292A      2.158390   293A      2.170268   294A      2.180186  
     295A      2.201743   296A      2.216285   297A      2.241633  
     298A      2.243658   299A      2.256553   300A      2.269588  
     301A      2.294375   302A      2.318792   303A      2.323713  
     304A      2.324996   305A      2.335134   306A      2.345928  
     307A      2.390526   308A      2.400197   309A      2.425183  
     310A      2.437494   311A      2.455599   312A      2.465790  
     313A      2.502259   314A      2.515738   315A      2.529265  
     316A      2.605493   317A      2.654117   318A      2.704010  
     319A      2.717097   320A      2.730843   321A      2.755907  
     322A      2.766723   323A      2.796177   324A      2.819678  
     325A      2.835178   326A      2.939836   327A      2.958227  
     328A      2.962086   329A      2.987161   330A      3.010879  
     331A      3.021987   332A      3.041346   333A      3.060210  
     334A      3.096083   335A      3.116967   336A      3.123001  
     337A      3.146851   338A      3.149040   339A      3.159373  
     340A      3.179743   341A      3.184110   342A      3.184621  
     343A      3.206873   344A      3.250412   345A      3.252744  
     346A      3.271723   347A      3.284200   348A      3.305463  
     349A      3.320291   350A      3.323358   351A      3.325904  
     352A      3.362796   353A      3.370404   354A      3.373553  
     355A      3.390083   356A      3.393648   357A      3.453757  
     358A      3.466129   359A      3.472131   360A      3.487015  
     361A      3.489376   362A      3.504510   363A      3.513393  
     364A      3.528840   365A      3.533339   366A      3.545768  
     367A      3.550423   368A      3.585359   369A      3.592331  
     370A      3.607063   371A      3.618794   372A      3.625358  
     373A      3.657798   374A      3.662049   375A      3.663249  
     376A      3.667155   377A      3.677362   378A      3.679738  
     379A      3.681200   380A      3.686093   381A      3.717914  
     382A      3.723652   383A      3.758874   384A      3.779446  
     385A      3.782165   386A      3.793246   387A      3.812080  
     388A      3.813665   389A      3.830664   390A      3.848529  
     391A      3.861501   392A      3.866179   393A      3.876949  
     394A      3.906982   395A      3.907794   396A      3.924036  
     397A      3.939796   398A      3.942366   399A      3.959211  
     400A      3.965723   401A      3.968744   402A      3.972718  
     403A      3.984542   404A      3.991399   405A      4.010133  
     406A      4.028167   407A      4.030667   408A      4.035177  
     409A      4.038135   410A      4.091749   411A      4.097587  
     412A      4.104221   413A      4.130711   414A      4.162504  
     415A      4.172705   416A      4.188368   417A      4.191521  
     418A      4.205256   419A      4.210084   420A      4.238305  
     421A      4.244516   422A      4.257246   423A      4.278239  
     424A      4.279011   425A      4.297555   426A      4.317447  
     427A      4.318210   428A      4.330975   429A      4.337003  
     430A      4.350357   431A      4.369457   432A      4.403912  
     433A      4.413432   434A      4.453704   435A      4.457392  
     436A      4.469301   437A      4.474257   438A      4.504449  
     439A      4.531589   440A      4.544730   441A      4.586619  
     442A      4.596756   443A      4.603111   444A      4.623136  
     445A      4.632284   446A      4.678738   447A      4.689209  
     448A      4.703680   449A      4.714465   450A      4.737415  
     451A      4.740993   452A      4.749450   453A      4.770093  
     454A      4.792381   455A      4.799458   456A      4.835975  
     457A      4.846608   458A      4.851713   459A      4.867298  
     460A      4.870310   461A      4.913166   462A      4.932371  
     463A      4.939642   464A      4.978403   465A      5.059848  
     466A      5.061562   467A      5.102129   468A      5.123174  
     469A      5.136053   470A      5.139582   471A      5.148122  
     472A      5.159968   473A      5.197766   474A      5.208854  
     475A      5.244908   476A      5.255173   477A      5.271431  
     478A      5.273856   479A      5.282437   480A      5.289808  
     481A      5.378375   482A      5.389872   483A      5.398006  
     484A      5.430918   485A      5.498011   486A      5.529436  
     487A      5.554082   488A      5.606493   489A      5.627905  
     490A      5.639656   491A      5.663862   492A      5.695718  
     493A      5.730514   494A      5.738016   495A      5.785692  
     496A      5.800015   497A      5.806456   498A      5.824492  
     499A      5.842772   500A      6.032061   501A      6.051448  
     502A      6.100600   503A      6.151766   504A      6.177932  
     505A      6.215282   506A      6.282629   507A      6.342723  
     508A      6.370681   509A      6.389205   510A      6.420248  
     511A      6.688948   512A      6.706091   513A      6.736441  
     514A      6.776522   515A      6.818866   516A      6.931438  
     517A      7.225577   518A      7.272510   519A      7.434243  
     520A      8.945871   521A      8.953337   522A      9.019402  
     523A      9.027659   524A      9.238984   525A      9.240554  
     526A      9.253715   527A      9.268158   528A      9.387417  
     529A      9.388555   530A      9.434590   531A      9.445061  
     532A      9.454856   533A      9.468113   534A      9.528127  
     535A      9.538682   536A      9.581456   537A      9.623692  
     538A      9.665143   539A      9.675914   540A      9.941576  
     541A      9.951590   542A      9.987918   543A     10.014200  
     544A     15.797260   545A     16.066871   546A     16.186764  
     547A     16.609246   548A     18.289546   549A     18.796433  
     550A     19.484194   551A     20.023890   552A     20.437493  

    Final Occupation by Irrep:
              A 
    DOCC [    33 ]

  @DF-RHF Final Energy:  -467.61184068311422

   => Energetics <=

    Nuclear Repulsion Energy =            420.5923820480498421
    One-Electron Energy =               -1475.6891179137951440
    Two-Electron Energy =                 587.4848951826311350
    Total Energy =                       -467.6118406831142238

Computation Completed

*** tstop() called on c446-061.stampede2.tacc.utexas.edu at Thu Apr  1 01:20:58 2021
Module time:
	user time   =     230.84 seconds =       3.85 minutes
	system time =       6.72 seconds =       0.11 minutes
	total time  =         40 seconds =       0.67 minutes
Total time:
	user time   =     230.84 seconds =       3.85 minutes
	system time =       6.72 seconds =       0.11 minutes
	total time  =         40 seconds =       0.67 minutes
   => Loading Basis Set <=

    Name: (AUG-CC-PVTZ AUX)
    Role: RIFIT
    Keyword: DF_BASIS_MP2
    atoms 1-2   entry F          line   322 file /home1/07844/xy3866/miniconda3/envs/p4env/share/psi4/basis/aug-cc-pvtz-ri.gbs 
    atoms 3-9   entry C          line   148 file /home1/07844/xy3866/miniconda3/envs/p4env/share/psi4/basis/aug-cc-pvtz-ri.gbs 
    atoms 10-15 entry H          line    30 file /home1/07844/xy3866/miniconda3/envs/p4env/share/psi4/basis/aug-cc-pvtz-ri.gbs 


*** tstart() called on c446-061.stampede2.tacc.utexas.edu
*** at Thu Apr  1 01:20:59 2021


  //>>>>>>>>>>>>>>>>>>>>>>>>>>>>>>>>>>>//
  //               DFMP2               //
  //<<<<<<<<<<<<<<<<<<<<<<<<<<<<<<<<<<<//

	 --------------------------------------------------------
	                          DF-MP2                         
	      2nd-Order Density-Fitted Moller-Plesset Theory     
	              RMP2 Wavefunction,   8 Threads             
	                                                         
	        Rob Parrish, Justin Turney, Andy Simmonett,      
	           Ed Hohenstein, and C. David Sherrill          
	 --------------------------------------------------------

   => Auxiliary Basis Set <=

  Basis Set: (AUG-CC-PVTZ AUX)
    Blend: AUG-CC-PVTZ-RI
    Number of shells: 336
    Number of basis functions: 1230
    Number of Cartesian functions: 1554
    Spherical Harmonics?: true
    Max angular momentum: 4

	 --------------------------------------------------------
	                 NBF =   552, NAUX =  1230
	 --------------------------------------------------------
	   CLASS    FOCC     OCC    AOCC    AVIR     VIR    FVIR
	   PAIRS       0      33      33     519     519       0
	 --------------------------------------------------------

  DFHelper Memory: AOs need 2.703 GiB; user supplied 22.352 GiB. Using in-core AOs.


         ------------------------------------------------------------
                                     CPHF                           
                                  Rob Parrish                       
         ------------------------------------------------------------

  ==> Geometry <==

    Molecular point group: c1
    Full point group: C1

    Geometry (in Angstrom), charge = 0, multiplicity = 1:

       Center              X                  Y                   Z               Mass       
    ------------   -----------------  -----------------  -----------------  -----------------
         F            1.311484050850     2.357033431091     0.002673011876    18.998403162730
         F            1.311490050850    -2.356775568909     0.002674011876    18.998403162730
         C           -1.461442949150     0.000126431091    -0.016731988124    12.000000000000
         C           -0.753738949150    -1.207828568909    -0.008932988124    12.000000000000
         C           -0.753740949150     1.208081431091    -0.008931988124    12.000000000000
         C           -2.967640949150     0.000124431091     0.012684011876    12.000000000000
         C            0.634957050850     1.180682431091     0.000801011876    12.000000000000
         C            0.634959050850    -1.180425568909     0.000800011876    12.000000000000
         C            1.366596050850     0.000128431091     0.007346011876    12.000000000000
         H           -1.266134949150    -2.165689568909    -0.017918988124     1.007825032230
         H           -1.266138949150     2.165942431091    -0.017917988124     1.007825032230
         H           -3.338584949150     0.000139431091     1.043111011876     1.007825032230
         H           -3.362368249150     0.869513531091    -0.477458288124     1.007825032230
         H           -3.369721949150    -0.885481568909    -0.486564988124     1.007825032230
         H            2.450691050850     0.000129431091     0.010336011876     1.007825032230

  Nuclear repulsion =  420.592382048049842
  Reference energy  = -467.611840683114224

  ==> Basis Set <==

  Basis Set: AUG-CC-PVTZ
    Blend: AUG-CC-PVTZ
    Number of shells: 180
    Number of basis functions: 552
    Number of Cartesian functions: 645
    Spherical Harmonics?: true
    Max angular momentum: 3

  ==> CGRSolver (by Rob Parrish) <==

   Number of roots    =         1
   Preconditioning    =    JACOBI
   Convergence cutoff =     1E-06
   Maximum iterations =       100

  ==> CPHFRHamiltonian (by Rob Parrish) <== 

  ==> MemDFJK: Density-Fitted J/K Matrices <==

    J tasked:                   Yes
    K tasked:                   Yes
    wK tasked:                   No
    OpenMP threads:               8
    Memory [MiB]:             22888
    Algorithm:                 Core
    Schwarz Cutoff:           1E-12
    Mask sparsity (%):       5.0534
    Fitting Condition:        1E-10

   => Auxiliary Basis Set <=

  Basis Set: (AUG-CC-PVTZ AUX)
    Blend: AUG-CC-PVTZ-JKFIT
    Number of shells: 354
    Number of basis functions: 1212
    Number of Cartesian functions: 1509
    Spherical Harmonics?: true
    Max angular momentum: 4

  ==> CPHF Iterations <==

  => Iterations <=

             Iter  Converged  Remaining    Residual
  CGR           1          0          1   9.933E-02
  CGR           2          0          1   2.775E-02
  CGR           3          0          1   1.820E-02
  CGR           4          0          1   6.442E-03
  CGR           5          0          1   1.893E-03
  CGR           6          0          1   7.590E-04
  CGR           7          0          1   2.425E-04
  CGR           8          0          1   7.297E-05
  CGR           9          0          1   2.092E-05
  CGR          10          0          1   4.655E-06
  CGR          11          0          1   1.418E-06
  CGR          12          1          0   4.356E-07

    CGRSolver converged.

	-----------------------------------------------------------
	 ==================> DF-MP2 Energies <==================== 
	-----------------------------------------------------------
	 Reference Energy          =    -467.6118406831142238 [Eh]
	 Singles Energy            =      -0.0000000000000000 [Eh]
	 Same-Spin Energy          =      -0.4450615907890496 [Eh]
	 Opposite-Spin Energy      =      -1.3526531332953120 [Eh]
	 Correlation Energy        =      -1.7977147240843616 [Eh]
	 Total Energy              =    -469.4095554071985816 [Eh]
	-----------------------------------------------------------
	 ================> DF-SCS-MP2 Energies <================== 
	-----------------------------------------------------------
	 SCS Same-Spin Scale       =       0.3333333333333333 [-]
	 SCS Opposite-Spin Scale   =       1.2000000000000000 [-]
	 SCS Same-Spin Energy      =      -0.1483538635963499 [Eh]
	 SCS Opposite-Spin Energy  =      -1.6231837599543744 [Eh]
	 SCS Correlation Energy    =      -1.7715376235507243 [Eh]
	 SCS Total Energy          =    -469.3833783066649517 [Eh]
	-----------------------------------------------------------



Properties will be evaluated at   0.000000,   0.000000,   0.000000 [a0]

Properties computed using the MP2 density matrix

  Nuclear Dipole Moment: [e a0]
     X:   -11.9918      Y:    -0.0147      Z:     0.0452

  Electronic Dipole Moment: [e a0]
     X:    11.1841      Y:     0.0170      Z:    -0.0331

  Dipole Moment: [e a0]
     X:    -0.8077      Y:     0.0023      Z:     0.0120     Total:     0.8078

  Dipole Moment: [D]
     X:    -2.0530      Y:     0.0059      Z:     0.0306     Total:     2.0532


*** tstop() called on c446-061.stampede2.tacc.utexas.edu at Thu Apr  1 01:23:23 2021
Module time:
	user time   =     858.14 seconds =      14.30 minutes
	system time =      14.09 seconds =       0.23 minutes
	total time  =        144 seconds =       2.40 minutes
Total time:
	user time   =    1089.72 seconds =      18.16 minutes
	system time =      20.83 seconds =       0.35 minutes
	total time  =        185 seconds =       3.08 minutes

    Psi4 stopped on: Thursday, 01 April 2021 01:23AM
    Psi4 wall time for execution: 0:03:05.71

*** Psi4 exiting successfully. Buy a developer a beer!
