
    -----------------------------------------------------------------------
          Psi4: An Open-Source Ab Initio Electronic Structure Package
                               Psi4 1.4a3.dev225 

                         Git: Rev {master} 7105e37 


    D. G. A. Smith, L. A. Burns, A. C. Simmonett, R. M. Parrish,
    M. C. Schieber, R. Galvelis, P. Kraus, H. Kruse, R. Di Remigio,
    A. Alenaizan, A. M. James, S. Lehtola, J. P. Misiewicz, M. Scheurer,
    R. A. Shaw, J. B. Schriber, Y. Xie, Z. L. Glick, D. A. Sirianni,
    J. S. O'Brien, J. M. Waldrop, A. Kumar, E. G. Hohenstein,
    B. P. Pritchard, B. R. Brooks, H. F. Schaefer III, A. Yu. Sokolov,
    K. Patkowski, A. E. DePrince III, U. Bozkaya, R. A. King,
    F. A. Evangelista, J. M. Turney, T. D. Crawford, C. D. Sherrill,
    J. Chem. Phys. 152(18) 184108 (2020). https://doi.org/10.1063/5.0006002

                            Additional Code Authors
    E. T. Seidl, C. L. Janssen, E. F. Valeev, M. L. Leininger,
    J. F. Gonthier, R. M. Richard, H. R. McAlexander, M. Saitow, X. Wang,
    P. Verma, and M. H. Lechner

             Previous Authors, Complete List of Code Contributors,
                       and Citations for Specific Modules
    https://github.com/psi4/psi4/blob/master/codemeta.json
    https://github.com/psi4/psi4/graphs/contributors
    http://psicode.org/psi4manual/master/introduction.html#citing-psifour

    -----------------------------------------------------------------------


    Psi4 started on: Sunday, 28 February 2021 05:05AM

    Process ID: 253490
    Host:       c405-071.stampede2.tacc.utexas.edu
    PSIDATADIR: /home1/07844/xy3866/miniconda3/envs/p4env/share/psi4
    Memory:     500.0 MiB
    Threads:    32
    
  ==> Input File <==

--------------------------------------------------------------------------
#psi4
#
memory 32 gb

molecule  {
0 1
  F        1.4077440     2.3569060     0.0024490
  F        1.4077500    -2.3569030     0.0024500
  C       -1.3651830    -0.0000010    -0.0169560
  C       -0.6574790    -1.2079560    -0.0091570
  C       -0.6574810     1.2079540    -0.0091560
  C       -2.9713619    -0.0000031     0.0144126
  C        0.7312170     1.1805550     0.0005770
  C        0.7312190    -1.1805530     0.0005760
  C        1.4628560     0.0000010     0.0071220
  H       -1.1698750    -2.1658170    -0.0181430
  H       -1.1698790     2.1658150    -0.0181420
  H       -3.2423250     0.0000120     1.0428870
  H       -3.2734640     0.8855870    -0.4868160
  H       -3.2734620    -0.8856090    -0.4867890
  H        2.5469510     0.0000020     0.0101120
units angstrom
no_reorient  #important for SAPT in psi4, default
symmetry c1  #important for SAPT in psi4, default
}

set PROPERTIES_ORIGIN ["COM"]
properties('MP2/aug-cc-pvtz', properties = ['dipole'])
--------------------------------------------------------------------------

  Memory set to  29.802 GiB by Python driver.
    SCF Algorithm Type (re)set to DF.

*** tstart() called on c405-071.stampede2.tacc.utexas.edu
*** at Sun Feb 28 05:05:17 2021

   => Loading Basis Set <=

    Name: AUG-CC-PVTZ
    Role: ORBITAL
    Keyword: BASIS
    atoms 1-2   entry F          line   377 file /home1/07844/xy3866/miniconda3/envs/p4env/share/psi4/basis/aug-cc-pvtz.gbs 
    atoms 3-9   entry C          line   239 file /home1/07844/xy3866/miniconda3/envs/p4env/share/psi4/basis/aug-cc-pvtz.gbs 
    atoms 10-15 entry H          line    40 file /home1/07844/xy3866/miniconda3/envs/p4env/share/psi4/basis/aug-cc-pvtz.gbs 


         ---------------------------------------------------------
                                   SCF
               by Justin Turney, Rob Parrish, Andy Simmonett
                          and Daniel G. A. Smith
                              RHF Reference
                       32 Threads,  30517 MiB Core
         ---------------------------------------------------------

  ==> Geometry <==

    Molecular point group: c1
    Full point group: C1

    Geometry (in Angstrom), charge = 0, multiplicity = 1:

       Center              X                  Y                   Z               Mass       
    ------------   -----------------  -----------------  -----------------  -----------------
         F            1.320911953400     2.356905924112     0.002561909008    18.998403162730
         F            1.320917953400    -2.356903075888     0.002562909008    18.998403162730
         C           -1.452015046600    -0.000001075888    -0.016843090992    12.000000000000
         C           -0.744311046600    -1.207956075888    -0.009044090992    12.000000000000
         C           -0.744313046600     1.207953924112    -0.009043090992    12.000000000000
         C           -3.058193946600    -0.000003175888     0.014525509008    12.000000000000
         C            0.644384953400     1.180554924112     0.000689909008    12.000000000000
         C            0.644386953400    -1.180553075888     0.000688909008    12.000000000000
         C            1.376023953400     0.000000924112     0.007234909008    12.000000000000
         H           -1.256707046600    -2.165817075888    -0.018030090992     1.007825032230
         H           -1.256711046600     2.165814924112    -0.018029090992     1.007825032230
         H           -3.329157046600     0.000011924112     1.042999909008     1.007825032230
         H           -3.360296046600     0.885586924112    -0.486703090992     1.007825032230
         H           -3.360294046600    -0.885609075888    -0.486676090992     1.007825032230
         H            2.460118953400     0.000001924112     0.010224909008     1.007825032230

  Running in c1 symmetry.

  Rotational constants: A =      0.05770  B =      0.05722  C =      0.02889 [cm^-1]
  Rotational constants: A =   1729.80196  B =   1715.43290  C =    865.96721 [MHz]
  Nuclear repulsion =  418.854109322740669

  Charge       = 0
  Multiplicity = 1
  Electrons    = 66
  Nalpha       = 33
  Nbeta        = 33

  ==> Algorithm <==

  SCF Algorithm Type is DF.
  DIIS enabled.
  MOM disabled.
  Fractional occupation disabled.
  Guess Type is SAD.
  Energy threshold   = 1.00e-10
  Density threshold  = 1.00e-10
  Integral threshold = 1.00e-12

  ==> Primary Basis <==

  Basis Set: AUG-CC-PVTZ
    Blend: AUG-CC-PVTZ
    Number of shells: 180
    Number of basis functions: 552
    Number of Cartesian functions: 645
    Spherical Harmonics?: true
    Max angular momentum: 3

   => Loading Basis Set <=

    Name: (AUG-CC-PVTZ AUX)
    Role: JKFIT
    Keyword: DF_BASIS_SCF
    atoms 1-2   entry F          line   348 file /home1/07844/xy3866/miniconda3/envs/p4env/share/psi4/basis/aug-cc-pvtz-jkfit.gbs 
    atoms 3-9   entry C          line   162 file /home1/07844/xy3866/miniconda3/envs/p4env/share/psi4/basis/aug-cc-pvtz-jkfit.gbs 
    atoms 10-15 entry H          line    70 file /home1/07844/xy3866/miniconda3/envs/p4env/share/psi4/basis/aug-cc-pvtz-jkfit.gbs 

  ==> Integral Setup <==

  DFHelper Memory: AOs need 2.684 GiB; user supplied 22.352 GiB. Using in-core AOs.

  ==> MemDFJK: Density-Fitted J/K Matrices <==

    J tasked:                   Yes
    K tasked:                   Yes
    wK tasked:                   No
    OpenMP threads:              32
    Memory [MiB]:             22888
    Algorithm:                 Core
    Schwarz Cutoff:           1E-12
    Mask sparsity (%):       7.7216
    Fitting Condition:        1E-10

   => Auxiliary Basis Set <=

  Basis Set: (AUG-CC-PVTZ AUX)
    Blend: AUG-CC-PVTZ-JKFIT
    Number of shells: 354
    Number of basis functions: 1212
    Number of Cartesian functions: 1509
    Spherical Harmonics?: true
    Max angular momentum: 4

  Minimum eigenvalue in the overlap matrix is 9.0940915371E-07.
  Reciprocal condition number of the overlap matrix is 5.2034691851E-08.
    Using symmetric orthogonalization.

  ==> Pre-Iterations <==

  SCF Guess: Superposition of Atomic Densities via on-the-fly atomic UHF (no occupation information).

   -------------------------
    Irrep   Nso     Nmo    
   -------------------------
     A        552     552 
   -------------------------
    Total     552     552
   -------------------------

  ==> Iterations <==

                           Total Energy        Delta E     RMS |[F,P]|

   @DF-RHF iter SAD:  -466.85906597374714   -4.66859e+02   0.00000e+00 
   @DF-RHF iter   1:  -467.39021016261199   -5.31144e-01   1.12182e-03 DIIS
   @DF-RHF iter   2:  -467.56995861898156   -1.79748e-01   4.76996e-04 DIIS
   @DF-RHF iter   3:  -467.60144116127321   -3.14825e-02   1.14438e-04 DIIS
   @DF-RHF iter   4:  -467.60412116956746   -2.68001e-03   5.45952e-05 DIIS
   @DF-RHF iter   5:  -467.60466006878414   -5.38899e-04   7.16964e-06 DIIS
   @DF-RHF iter   6:  -467.60467715414404   -1.70854e-05   2.54230e-06 DIIS
   @DF-RHF iter   7:  -467.60467943967183   -2.28553e-06   1.19772e-06 DIIS
   @DF-RHF iter   8:  -467.60468010851605   -6.68844e-07   5.14300e-07 DIIS
   @DF-RHF iter   9:  -467.60468028836789   -1.79852e-07   2.37433e-07 DIIS
   @DF-RHF iter  10:  -467.60468032840731   -4.00394e-08   9.90586e-08 DIIS
   @DF-RHF iter  11:  -467.60468033593060   -7.52328e-09   2.94112e-08 DIIS
   @DF-RHF iter  12:  -467.60468033640836   -4.77769e-10   8.01529e-09 DIIS
   @DF-RHF iter  13:  -467.60468033642735   -1.89857e-11   1.99532e-09 DIIS
   @DF-RHF iter  14:  -467.60468033642923   -1.87583e-12   4.69734e-10 DIIS
   @DF-RHF iter  15:  -467.60468033642883    3.97904e-13   1.93977e-10 DIIS
   @DF-RHF iter  16:  -467.60468033642815    6.82121e-13   4.97759e-11 DIIS
  Energy and wave function converged.


  ==> Post-Iterations <==

    Orbital Energies [Eh]
    ---------------------

    Doubly Occupied:                                                      

       1A    -26.316691     2A    -26.316691     3A    -11.345589  
       4A    -11.345584     5A    -11.277480     6A    -11.251179  
       7A    -11.246244     8A    -11.246209     9A    -11.240808  
      10A     -1.630015    11A     -1.629468    12A     -1.176760  
      13A     -1.061562    14A     -1.031732    15A     -0.964796  
      16A     -0.861745    17A     -0.845661    18A     -0.752947  
      19A     -0.739438    20A     -0.701796    21A     -0.698052  
      22A     -0.693921    23A     -0.686066    24A     -0.660642  
      25A     -0.606370    26A     -0.604636    27A     -0.586727  
      28A     -0.565008    29A     -0.548075    30A     -0.506430  
      31A     -0.501719    32A     -0.351559    33A     -0.348940  

    Virtual:                                                              

      34A      0.026309    35A      0.035777    36A      0.036252  
      37A      0.042364    38A      0.047094    39A      0.061306  
      40A      0.082039    41A      0.083682    42A      0.091682  
      43A      0.095015    44A      0.097104    45A      0.104989  
      46A      0.112492    47A      0.114172    48A      0.120908  
      49A      0.125460    50A      0.131578    51A      0.132257  
      52A      0.137892    53A      0.138938    54A      0.140948  
      55A      0.146027    56A      0.148146    57A      0.150110  
      58A      0.157649    59A      0.163426    60A      0.169569  
      61A      0.176037    62A      0.182358    63A      0.202514  
      64A      0.210367    65A      0.213545    66A      0.224537  
      67A      0.233408    68A      0.243205    69A      0.251148  
      70A      0.256088    71A      0.257372    72A      0.263698  
      73A      0.275582    74A      0.279829    75A      0.296381  
      76A      0.299503    77A      0.311042    78A      0.314079  
      79A      0.319064    80A      0.319319    81A      0.323878  
      82A      0.325062    83A      0.328814    84A      0.339015  
      85A      0.342970    86A      0.347320    87A      0.359266  
      88A      0.359345    89A      0.362064    90A      0.368187  
      91A      0.372305    92A      0.381039    93A      0.389015  
      94A      0.389720    95A      0.394576    96A      0.405065  
      97A      0.410824    98A      0.412357    99A      0.422855  
     100A      0.428403   101A      0.441183   102A      0.445963  
     103A      0.455512   104A      0.458040   105A      0.459070  
     106A      0.469805   107A      0.473008   108A      0.473970  
     109A      0.478764   110A      0.482416   111A      0.482669  
     112A      0.495794   113A      0.502363   114A      0.505789  
     115A      0.512032   116A      0.515139   117A      0.519745  
     118A      0.532435   119A      0.538201   120A      0.543075  
     121A      0.553359   122A      0.559422   123A      0.562796  
     124A      0.568740   125A      0.571629   126A      0.580517  
     127A      0.589634   128A      0.600294   129A      0.601540  
     130A      0.635863   131A      0.637942   132A      0.658064  
     133A      0.661142   134A      0.666142   135A      0.669828  
     136A      0.685546   137A      0.696751   138A      0.697713  
     139A      0.707632   140A      0.723301   141A      0.730558  
     142A      0.736682   143A      0.737282   144A      0.745556  
     145A      0.753809   146A      0.787548   147A      0.790144  
     148A      0.798145   149A      0.810987   150A      0.818486  
     151A      0.821246   152A      0.837757   153A      0.846637  
     154A      0.847840   155A      0.858415   156A      0.861177  
     157A      0.868550   158A      0.873267   159A      0.878764  
     160A      0.889650   161A      0.889692   162A      0.904577  
     163A      0.916826   164A      0.920937   165A      0.928855  
     166A      0.931802   167A      0.946244   168A      0.955022  
     169A      0.956522   170A      0.962050   171A      0.964366  
     172A      0.978685   173A      0.979368   174A      0.988922  
     175A      0.996732   176A      1.006193   177A      1.007176  
     178A      1.013530   179A      1.018404   180A      1.021463  
     181A      1.025493   182A      1.034492   183A      1.040487  
     184A      1.048125   185A      1.062622   186A      1.074535  
     187A      1.075423   188A      1.086326   189A      1.090342  
     190A      1.099708   191A      1.102014   192A      1.116486  
     193A      1.121237   194A      1.136840   195A      1.141047  
     196A      1.147165   197A      1.150641   198A      1.173741  
     199A      1.173881   200A      1.183389   201A      1.186155  
     202A      1.192707   203A      1.201788   204A      1.207320  
     205A      1.215029   206A      1.220976   207A      1.221961  
     208A      1.232520   209A      1.247059   210A      1.248680  
     211A      1.267022   212A      1.275579   213A      1.286276  
     214A      1.308839   215A      1.317456   216A      1.317860  
     217A      1.330317   218A      1.331840   219A      1.340547  
     220A      1.353992   221A      1.360852   222A      1.371117  
     223A      1.376743   224A      1.383445   225A      1.405962  
     226A      1.411053   227A      1.413299   228A      1.434560  
     229A      1.443490   230A      1.444580   231A      1.459099  
     232A      1.476355   233A      1.491428   234A      1.501402  
     235A      1.515347   236A      1.526224   237A      1.533891  
     238A      1.546945   239A      1.566854   240A      1.579751  
     241A      1.589531   242A      1.610221   243A      1.614217  
     244A      1.632129   245A      1.643694   246A      1.643987  
     247A      1.658377   248A      1.667088   249A      1.669243  
     250A      1.675060   251A      1.713458   252A      1.713855  
     253A      1.721316   254A      1.727089   255A      1.728682  
     256A      1.733342   257A      1.764012   258A      1.778659  
     259A      1.788056   260A      1.792905   261A      1.798768  
     262A      1.802118   263A      1.819394   264A      1.825920  
     265A      1.826153   266A      1.858072   267A      1.866474  
     268A      1.880984   269A      1.881955   270A      1.897670  
     271A      1.911528   272A      1.926936   273A      1.927403  
     274A      1.934880   275A      1.948022   276A      1.957125  
     277A      1.965538   278A      2.001647   279A      2.005130  
     280A      2.006454   281A      2.043411   282A      2.052953  
     283A      2.063372   284A      2.066669   285A      2.099286  
     286A      2.105938   287A      2.107345   288A      2.110491  
     289A      2.122195   290A      2.124857   291A      2.141375  
     292A      2.155931   293A      2.160125   294A      2.179842  
     295A      2.197844   296A      2.207359   297A      2.241012  
     298A      2.251036   299A      2.252056   300A      2.258400  
     301A      2.291140   302A      2.312000   303A      2.322769  
     304A      2.323988   305A      2.336919   306A      2.345979  
     307A      2.396132   308A      2.397043   309A      2.412831  
     310A      2.432564   311A      2.433798   312A      2.458316  
     313A      2.506241   314A      2.510965   315A      2.514835  
     316A      2.604003   317A      2.643474   318A      2.675239  
     319A      2.698017   320A      2.706885   321A      2.745276  
     322A      2.756116   323A      2.767125   324A      2.810028  
     325A      2.818144   326A      2.937075   327A      2.956582  
     328A      2.962078   329A      2.979873   330A      2.994036  
     331A      3.015463   332A      3.039327   333A      3.041882  
     334A      3.083063   335A      3.101628   336A      3.117555  
     337A      3.139374   338A      3.149466   339A      3.154878  
     340A      3.177488   341A      3.180857   342A      3.185609  
     343A      3.202904   344A      3.245979   345A      3.252445  
     346A      3.260560   347A      3.285779   348A      3.291921  
     349A      3.313333   350A      3.322055   351A      3.323318  
     352A      3.364175   353A      3.372282   354A      3.374650  
     355A      3.390178   356A      3.403315   357A      3.417615  
     358A      3.451568   359A      3.464789   360A      3.483400  
     361A      3.487919   362A      3.489829   363A      3.512806  
     364A      3.528174   365A      3.529097   366A      3.542056  
     367A      3.551803   368A      3.575320   369A      3.582684  
     370A      3.592712   371A      3.607859   372A      3.626703  
     373A      3.647377   374A      3.654014   375A      3.656302  
     376A      3.667821   377A      3.672116   378A      3.680070  
     379A      3.681364   380A      3.687323   381A      3.711900  
     382A      3.721358   383A      3.752489   384A      3.776077  
     385A      3.777330   386A      3.791407   387A      3.812554  
     388A      3.819891   389A      3.830572   390A      3.836731  
     391A      3.843385   392A      3.857913   393A      3.879330  
     394A      3.890980   395A      3.909525   396A      3.920938  
     397A      3.936279   398A      3.944055   399A      3.959597  
     400A      3.964926   401A      3.970556   402A      3.982218  
     403A      3.993486   404A      4.002093   405A      4.012720  
     406A      4.024010   407A      4.030689   408A      4.040921  
     409A      4.059500   410A      4.091435   411A      4.096008  
     412A      4.097919   413A      4.131900   414A      4.147123  
     415A      4.166875   416A      4.174548   417A      4.187247  
     418A      4.200003   419A      4.206913   420A      4.225848  
     421A      4.238547   422A      4.243160   423A      4.273003  
     424A      4.278305   425A      4.306974   426A      4.317310  
     427A      4.319132   428A      4.324831   429A      4.331164  
     430A      4.346686   431A      4.372065   432A      4.394473  
     433A      4.400435   434A      4.442525   435A      4.452136  
     436A      4.459803   437A      4.488252   438A      4.488352  
     439A      4.533288   440A      4.539218   441A      4.582638  
     442A      4.594134   443A      4.605927   444A      4.619336  
     445A      4.632103   446A      4.663470   447A      4.687209  
     448A      4.696869   449A      4.699310   450A      4.729501  
     451A      4.742141   452A      4.750012   453A      4.758439  
     454A      4.775149   455A      4.795351   456A      4.827539  
     457A      4.835381   458A      4.846726   459A      4.868200  
     460A      4.883154   461A      4.917074   462A      4.919797  
     463A      4.940884   464A      4.979662   465A      5.068791  
     466A      5.077658   467A      5.104393   468A      5.124370  
     469A      5.133112   470A      5.139854   471A      5.147268  
     472A      5.175047   473A      5.196223   474A      5.213684  
     475A      5.248995   476A      5.263157   477A      5.273470  
     478A      5.275643   479A      5.277831   480A      5.295980  
     481A      5.348305   482A      5.391793   483A      5.421761  
     484A      5.422349   485A      5.492245   486A      5.506836  
     487A      5.549108   488A      5.598293   489A      5.638951  
     490A      5.644475   491A      5.675014   492A      5.693069  
     493A      5.708333   494A      5.717395   495A      5.772479  
     496A      5.802155   497A      5.803110   498A      5.832784  
     499A      5.962375   500A      6.003513   501A      6.017598  
     502A      6.114534   503A      6.131883   504A      6.146370  
     505A      6.259388   506A      6.266864   507A      6.334436  
     508A      6.376471   509A      6.389481   510A      6.435488  
     511A      6.682666   512A      6.703816   513A      6.709818  
     514A      6.737961   515A      6.776040   516A      6.913252  
     517A      7.209345   518A      7.271219   519A      7.429031  
     520A      8.945664   521A      8.953604   522A      9.019399  
     523A      9.026917   524A      9.238409   525A      9.239173  
     526A      9.254270   527A      9.267972   528A      9.386339  
     529A      9.388424   530A      9.433895   531A      9.444895  
     532A      9.454898   533A      9.468419   534A      9.527988  
     535A      9.537968   536A      9.579205   537A      9.621956  
     538A      9.664582   539A      9.676032   540A      9.941836  
     541A      9.951004   542A      9.988028   543A     10.011810  
     544A     15.754713   545A     15.973035   546A     16.141436  
     547A     16.589800   548A     18.337942   549A     18.695053  
     550A     19.455809   551A     20.028066   552A     20.246813  

    Final Occupation by Irrep:
              A 
    DOCC [    33 ]

  @DF-RHF Final Energy:  -467.60468033642815

   => Energetics <=

    Nuclear Repulsion Energy =            418.8541093227406691
    One-Electron Energy =               -1472.2364989673651507
    Two-Electron Energy =                 585.7777093081963358
    Total Energy =                       -467.6046803364281459

Computation Completed

*** tstop() called on c405-071.stampede2.tacc.utexas.edu at Sun Feb 28 05:05:41 2021
Module time:
	user time   =     404.49 seconds =       6.74 minutes
	system time =      31.18 seconds =       0.52 minutes
	total time  =         24 seconds =       0.40 minutes
Total time:
	user time   =     404.49 seconds =       6.74 minutes
	system time =      31.18 seconds =       0.52 minutes
	total time  =         24 seconds =       0.40 minutes
   => Loading Basis Set <=

    Name: (AUG-CC-PVTZ AUX)
    Role: RIFIT
    Keyword: DF_BASIS_MP2
    atoms 1-2   entry F          line   322 file /home1/07844/xy3866/miniconda3/envs/p4env/share/psi4/basis/aug-cc-pvtz-ri.gbs 
    atoms 3-9   entry C          line   148 file /home1/07844/xy3866/miniconda3/envs/p4env/share/psi4/basis/aug-cc-pvtz-ri.gbs 
    atoms 10-15 entry H          line    30 file /home1/07844/xy3866/miniconda3/envs/p4env/share/psi4/basis/aug-cc-pvtz-ri.gbs 


*** tstart() called on c405-071.stampede2.tacc.utexas.edu
*** at Sun Feb 28 05:05:42 2021


  //>>>>>>>>>>>>>>>>>>>>>>>>>>>>>>>>>>>//
  //               DFMP2               //
  //<<<<<<<<<<<<<<<<<<<<<<<<<<<<<<<<<<<//

	 --------------------------------------------------------
	                          DF-MP2                         
	      2nd-Order Density-Fitted Moller-Plesset Theory     
	              RMP2 Wavefunction,  32 Threads             
	                                                         
	        Rob Parrish, Justin Turney, Andy Simmonett,      
	           Ed Hohenstein, and C. David Sherrill          
	 --------------------------------------------------------

   => Auxiliary Basis Set <=

  Basis Set: (AUG-CC-PVTZ AUX)
    Blend: AUG-CC-PVTZ-RI
    Number of shells: 336
    Number of basis functions: 1230
    Number of Cartesian functions: 1554
    Spherical Harmonics?: true
    Max angular momentum: 4

	 --------------------------------------------------------
	                 NBF =   552, NAUX =  1230
	 --------------------------------------------------------
	   CLASS    FOCC     OCC    AOCC    AVIR     VIR    FVIR
	   PAIRS       0      33      33     519     519       0
	 --------------------------------------------------------

  DFHelper Memory: AOs need 2.755 GiB; user supplied 22.352 GiB. Using in-core AOs.


         ------------------------------------------------------------
                                     CPHF                           
                                  Rob Parrish                       
         ------------------------------------------------------------

  ==> Geometry <==

    Molecular point group: c1
    Full point group: C1

    Geometry (in Angstrom), charge = 0, multiplicity = 1:

       Center              X                  Y                   Z               Mass       
    ------------   -----------------  -----------------  -----------------  -----------------
         F            1.320911953400     2.356905924112     0.002561909008    18.998403162730
         F            1.320917953400    -2.356903075888     0.002562909008    18.998403162730
         C           -1.452015046600    -0.000001075888    -0.016843090992    12.000000000000
         C           -0.744311046600    -1.207956075888    -0.009044090992    12.000000000000
         C           -0.744313046600     1.207953924112    -0.009043090992    12.000000000000
         C           -3.058193946600    -0.000003175888     0.014525509008    12.000000000000
         C            0.644384953400     1.180554924112     0.000689909008    12.000000000000
         C            0.644386953400    -1.180553075888     0.000688909008    12.000000000000
         C            1.376023953400     0.000000924112     0.007234909008    12.000000000000
         H           -1.256707046600    -2.165817075888    -0.018030090992     1.007825032230
         H           -1.256711046600     2.165814924112    -0.018029090992     1.007825032230
         H           -3.329157046600     0.000011924112     1.042999909008     1.007825032230
         H           -3.360296046600     0.885586924112    -0.486703090992     1.007825032230
         H           -3.360294046600    -0.885609075888    -0.486676090992     1.007825032230
         H            2.460118953400     0.000001924112     0.010224909008     1.007825032230

  Nuclear repulsion =  418.854109322740669
  Reference energy  = -467.604680336428146

  ==> Basis Set <==

  Basis Set: AUG-CC-PVTZ
    Blend: AUG-CC-PVTZ
    Number of shells: 180
    Number of basis functions: 552
    Number of Cartesian functions: 645
    Spherical Harmonics?: true
    Max angular momentum: 3

  ==> CGRSolver (by Rob Parrish) <==

   Number of roots    =         1
   Preconditioning    =    JACOBI
   Convergence cutoff =     1E-06
   Maximum iterations =       100

  ==> CPHFRHamiltonian (by Rob Parrish) <== 

  ==> MemDFJK: Density-Fitted J/K Matrices <==

    J tasked:                   Yes
    K tasked:                   Yes
    wK tasked:                   No
    OpenMP threads:              32
    Memory [MiB]:             22888
    Algorithm:                 Core
    Schwarz Cutoff:           1E-12
    Mask sparsity (%):       5.1256
    Fitting Condition:        1E-10

   => Auxiliary Basis Set <=

  Basis Set: (AUG-CC-PVTZ AUX)
    Blend: AUG-CC-PVTZ-JKFIT
    Number of shells: 354
    Number of basis functions: 1212
    Number of Cartesian functions: 1509
    Spherical Harmonics?: true
    Max angular momentum: 4

  ==> CPHF Iterations <==

  => Iterations <=

             Iter  Converged  Remaining    Residual
  CGR           1          0          1   9.998E-02
  CGR           2          0          1   2.811E-02
  CGR           3          0          1   1.829E-02
  CGR           4          0          1   6.382E-03
  CGR           5          0          1   1.869E-03
  CGR           6          0          1   7.328E-04
  CGR           7          0          1   2.347E-04
  CGR           8          0          1   7.128E-05
  CGR           9          0          1   2.051E-05
  CGR          10          0          1   4.527E-06
  CGR          11          0          1   1.203E-06
  CGR          12          1          0   4.227E-07

    CGRSolver converged.

	-----------------------------------------------------------
	 ==================> DF-MP2 Energies <==================== 
	-----------------------------------------------------------
	 Reference Energy          =    -467.6046803364281459 [Eh]
	 Singles Energy            =      -0.0000000000000000 [Eh]
	 Same-Spin Energy          =      -0.4445902722080808 [Eh]
	 Opposite-Spin Energy      =      -1.3526343819423539 [Eh]
	 Correlation Energy        =      -1.7972246541504346 [Eh]
	 Total Energy              =    -469.4019049905786005 [Eh]
	-----------------------------------------------------------
	 ================> DF-SCS-MP2 Energies <================== 
	-----------------------------------------------------------
	 SCS Same-Spin Scale       =       0.3333333333333333 [-]
	 SCS Opposite-Spin Scale   =       1.2000000000000000 [-]
	 SCS Same-Spin Energy      =      -0.1481967574026936 [Eh]
	 SCS Opposite-Spin Energy  =      -1.6231612583308246 [Eh]
	 SCS Correlation Energy    =      -1.7713580157335183 [Eh]
	 SCS Total Energy          =    -469.3760383521616859 [Eh]
	-----------------------------------------------------------



Properties will be evaluated at  -0.000000,   0.000000,   0.000000 [a0]

Properties computed using the MP2 density matrix

  Nuclear Dipole Moment: [e a0]
     X:   -11.9635      Y:    -0.0000      Z:     0.0362

  Electronic Dipole Moment: [e a0]
     X:    11.1642      Y:     0.0000      Z:    -0.0243

  Dipole Moment: [e a0]
     X:    -0.7993      Y:     0.0000      Z:     0.0119     Total:     0.7994

  Dipole Moment: [D]
     X:    -2.0317      Y:     0.0000      Z:     0.0303     Total:     2.0319


*** tstop() called on c405-071.stampede2.tacc.utexas.edu at Sun Feb 28 05:08:10 2021
Module time:
	user time   =    1140.56 seconds =      19.01 minutes
	system time =      45.29 seconds =       0.75 minutes
	total time  =        148 seconds =       2.47 minutes
Total time:
	user time   =    1545.81 seconds =      25.76 minutes
	system time =      76.49 seconds =       1.27 minutes
	total time  =        173 seconds =       2.88 minutes

    Psi4 stopped on: Sunday, 28 February 2021 05:08AM
    Psi4 wall time for execution: 0:02:53.79

*** Psi4 exiting successfully. Buy a developer a beer!
