
    -----------------------------------------------------------------------
          Psi4: An Open-Source Ab Initio Electronic Structure Package
                               Psi4 1.4a3.dev225 

                         Git: Rev {master} 7105e37 


    D. G. A. Smith, L. A. Burns, A. C. Simmonett, R. M. Parrish,
    M. C. Schieber, R. Galvelis, P. Kraus, H. Kruse, R. Di Remigio,
    A. Alenaizan, A. M. James, S. Lehtola, J. P. Misiewicz, M. Scheurer,
    R. A. Shaw, J. B. Schriber, Y. Xie, Z. L. Glick, D. A. Sirianni,
    J. S. O'Brien, J. M. Waldrop, A. Kumar, E. G. Hohenstein,
    B. P. Pritchard, B. R. Brooks, H. F. Schaefer III, A. Yu. Sokolov,
    K. Patkowski, A. E. DePrince III, U. Bozkaya, R. A. King,
    F. A. Evangelista, J. M. Turney, T. D. Crawford, C. D. Sherrill,
    J. Chem. Phys. 152(18) 184108 (2020). https://doi.org/10.1063/5.0006002

                            Additional Code Authors
    E. T. Seidl, C. L. Janssen, E. F. Valeev, M. L. Leininger,
    J. F. Gonthier, R. M. Richard, H. R. McAlexander, M. Saitow, X. Wang,
    P. Verma, and M. H. Lechner

             Previous Authors, Complete List of Code Contributors,
                       and Citations for Specific Modules
    https://github.com/psi4/psi4/blob/master/codemeta.json
    https://github.com/psi4/psi4/graphs/contributors
    http://psicode.org/psi4manual/master/introduction.html#citing-psifour

    -----------------------------------------------------------------------


    Psi4 started on: Sunday, 07 March 2021 10:14PM

    Process ID: 17975
    Host:       c418-114.stampede2.tacc.utexas.edu
    PSIDATADIR: /home1/07844/xy3866/miniconda3/envs/p4env/share/psi4
    Memory:     500.0 MiB
    Threads:    32
    
  ==> Input File <==

--------------------------------------------------------------------------
#psi4
#
memory 32 gb

molecule  {
0 1
  C       -0.4284307    -0.8755344     0.1860375
  C       -2.7550300    -0.2335230    -0.2686280
  C       -1.3727340    -0.3393290    -0.9144000
  C       -1.1456910    -0.3766540     1.5340440
  C       -2.4139240     0.3715680     1.0951880
  C        0.9762580    -0.3476150     0.0696660
  C       -3.7696470     0.5602740    -1.0788290
  C        1.2785260     1.0190760     0.1766520
  C        2.0223850    -1.2394820    -0.1958260
  C        2.5868840     1.4777510     0.0263980
  C        3.3346800    -0.7855870    -0.3490730
  C        3.6209360     0.5756970    -0.2390260
  H       -0.4241810    -1.9311060     0.1924250
  H       -3.1414670    -1.2511910    -0.1070860
  H       -1.0573430     0.6588960    -1.2471640
  H       -1.3450850    -0.9967850    -1.7909970
  H       -0.4862050     0.2392810     2.1528250
  H       -1.4122900    -1.2543580     2.1330320
  H       -3.2323950     0.2935880     1.8197160
  H       -2.2008590     1.4410770     0.9595580
  H       -3.4037750     1.5784440    -1.2516650
  H       -3.9506210     0.0965540    -2.0538340
  H       -4.7289130     0.6299820    -0.5557020
  H        0.4812350     1.7322070     0.3831320
  H        1.8065840    -2.3037040    -0.2799060
  H        2.8010350     2.5405970     0.1152150
  H        4.1326410    -1.4960120    -0.5534930
  H        4.6413930     0.9324010    -0.3562540
units angstrom
no_reorient  #important for SAPT in psi4, default
symmetry c1  #important for SAPT in psi4, default
}

set PROPERTIES_ORIGIN ["COM"]
properties('MP2/aug-cc-pvtz', properties = ['dipole'])
--------------------------------------------------------------------------

  Memory set to  29.802 GiB by Python driver.
    SCF Algorithm Type (re)set to DF.

*** tstart() called on c418-114.stampede2.tacc.utexas.edu
*** at Sun Mar  7 22:14:08 2021

   => Loading Basis Set <=

    Name: AUG-CC-PVTZ
    Role: ORBITAL
    Keyword: BASIS
    atoms 1-12  entry C          line   239 file /home1/07844/xy3866/miniconda3/envs/p4env/share/psi4/basis/aug-cc-pvtz.gbs 
    atoms 13-28 entry H          line    40 file /home1/07844/xy3866/miniconda3/envs/p4env/share/psi4/basis/aug-cc-pvtz.gbs 


         ---------------------------------------------------------
                                   SCF
               by Justin Turney, Rob Parrish, Andy Simmonett
                          and Daniel G. A. Smith
                              RHF Reference
                       32 Threads,  30517 MiB Core
         ---------------------------------------------------------

  ==> Geometry <==

    Molecular point group: c1
    Full point group: C1

    Geometry (in Angstrom), charge = 0, multiplicity = 1:

       Center              X                  Y                   Z               Mass       
    ------------   -----------------  -----------------  -----------------  -----------------
         C           -0.500874982764    -0.866770570037     0.185645310412    12.000000000000
         C           -2.827474282764    -0.224759170037    -0.269020189588    12.000000000000
         C           -1.445178282764    -0.330565170037    -0.914792189588    12.000000000000
         C           -1.218135282764    -0.367890170037     1.533651810412    12.000000000000
         C           -2.486368282764     0.380331829963     1.094795810412    12.000000000000
         C            0.903813717236    -0.338851170037     0.069273810412    12.000000000000
         C           -3.842091282764     0.569037829963    -1.079221189588    12.000000000000
         C            1.206081717236     1.027839829963     0.176259810412    12.000000000000
         C            1.949940717236    -1.230718170037    -0.196218189588    12.000000000000
         C            2.514439717236     1.486514829963     0.026005810412    12.000000000000
         C            3.262235717236    -0.776823170037    -0.349465189588    12.000000000000
         C            3.548491717236     0.584460829963    -0.239418189588    12.000000000000
         H           -0.496625282764    -1.922342170037     0.192032810412     1.007825032230
         H           -3.213911282764    -1.242427170037    -0.107478189588     1.007825032230
         H           -1.129787282764     0.667659829963    -1.247556189588     1.007825032230
         H           -1.417529282764    -0.988021170037    -1.791389189588     1.007825032230
         H           -0.558649282764     0.248044829963     2.152432810412     1.007825032230
         H           -1.484734282764    -1.245594170037     2.132639810412     1.007825032230
         H           -3.304839282764     0.302351829963     1.819323810412     1.007825032230
         H           -2.273303282764     1.449840829963     0.959165810412     1.007825032230
         H           -3.476219282764     1.587207829963    -1.252057189588     1.007825032230
         H           -4.023065282764     0.105317829963    -2.054226189588     1.007825032230
         H           -4.801357282764     0.638745829963    -0.556094189588     1.007825032230
         H            0.408790717236     1.740970829963     0.382739810412     1.007825032230
         H            1.734139717236    -2.294940170037    -0.280298189588     1.007825032230
         H            2.728590717236     2.549360829963     0.114822810412     1.007825032230
         H            4.060196717236    -1.487248170037    -0.553885189588     1.007825032230
         H            4.568948717236     0.941164829963    -0.356646189588     1.007825032230

  Running in c1 symmetry.

  Rotational constants: A =      0.07807  B =      0.01606  C =      0.01571 [cm^-1]
  Rotational constants: A =   2340.40679  B =    481.46355  C =    470.85361 [MHz]
  Nuclear repulsion =  675.465511923365511

  Charge       = 0
  Multiplicity = 1
  Electrons    = 88
  Nalpha       = 44
  Nbeta        = 44

  ==> Algorithm <==

  SCF Algorithm Type is DF.
  DIIS enabled.
  MOM disabled.
  Fractional occupation disabled.
  Guess Type is SAD.
  Energy threshold   = 1.00e-10
  Density threshold  = 1.00e-10
  Integral threshold = 1.00e-12

  ==> Primary Basis <==

  Basis Set: AUG-CC-PVTZ
    Blend: AUG-CC-PVTZ
    Number of shells: 312
    Number of basis functions: 920
    Number of Cartesian functions: 1060
    Spherical Harmonics?: true
    Max angular momentum: 3

   => Loading Basis Set <=

    Name: (AUG-CC-PVTZ AUX)
    Role: JKFIT
    Keyword: DF_BASIS_SCF
    atoms 1-12  entry C          line   162 file /home1/07844/xy3866/miniconda3/envs/p4env/share/psi4/basis/aug-cc-pvtz-jkfit.gbs 
    atoms 13-28 entry H          line    70 file /home1/07844/xy3866/miniconda3/envs/p4env/share/psi4/basis/aug-cc-pvtz-jkfit.gbs 

  ==> Integral Setup <==

  DFHelper Memory: AOs need 11.134 GiB; user supplied 22.352 GiB. Using in-core AOs.

  ==> MemDFJK: Density-Fitted J/K Matrices <==

    J tasked:                   Yes
    K tasked:                   Yes
    wK tasked:                   No
    OpenMP threads:              32
    Memory [MiB]:             22888
    Algorithm:                 Core
    Schwarz Cutoff:           1E-12
    Mask sparsity (%):      14.2143
    Fitting Condition:        1E-10

   => Auxiliary Basis Set <=

  Basis Set: (AUG-CC-PVTZ AUX)
    Blend: AUG-CC-PVTZ-JKFIT
    Number of shells: 584
    Number of basis functions: 1984
    Number of Cartesian functions: 2452
    Spherical Harmonics?: true
    Max angular momentum: 4

  Minimum eigenvalue in the overlap matrix is 3.4225439484E-07.
  Reciprocal condition number of the overlap matrix is 1.3554927515E-08.
    Using symmetric orthogonalization.

  ==> Pre-Iterations <==

  SCF Guess: Superposition of Atomic Densities via on-the-fly atomic UHF (no occupation information).

   -------------------------
    Irrep   Nso     Nmo    
   -------------------------
     A        920     920 
   -------------------------
    Total     920     920
   -------------------------

  ==> Iterations <==

                           Total Energy        Delta E     RMS |[F,P]|

   @DF-RHF iter SAD:  -463.92811114007179   -4.63928e+02   0.00000e+00 
   @DF-RHF iter   1:  -463.45506970622597    4.73041e-01   8.99525e-04 DIIS
   @DF-RHF iter   2:  -463.79907902268479   -3.44009e-01   4.47109e-04 DIIS
   @DF-RHF iter   3:  -463.88622064451454   -8.71416e-02   8.84678e-05 DIIS
   @DF-RHF iter   4:  -463.89143939529845   -5.21875e-03   3.07347e-05 DIIS
   @DF-RHF iter   5:  -463.89192835365105   -4.88958e-04   7.99321e-06 DIIS
   @DF-RHF iter   6:  -463.89196606976606   -3.77161e-05   2.35299e-06 DIIS
   @DF-RHF iter   7:  -463.89196985851862   -3.78875e-06   6.79399e-07 DIIS
   @DF-RHF iter   8:  -463.89197030033995   -4.41821e-07   2.61976e-07 DIIS
   @DF-RHF iter   9:  -463.89197041840845   -1.18068e-07   1.36205e-07 DIIS
   @DF-RHF iter  10:  -463.89197046314894   -4.47405e-08   6.36540e-08 DIIS
   @DF-RHF iter  11:  -463.89197047420123   -1.10523e-08   2.03956e-08 DIIS
   @DF-RHF iter  12:  -463.89197047483731   -6.36078e-10   8.78530e-09 DIIS
   @DF-RHF iter  13:  -463.89197047490546   -6.81553e-11   2.05474e-09 DIIS
   @DF-RHF iter  14:  -463.89197047491160   -6.13909e-12   8.54315e-10 DIIS
   @DF-RHF iter  15:  -463.89197047491314   -1.53477e-12   3.83562e-10 DIIS
   @DF-RHF iter  16:  -463.89197047491234    7.95808e-13   1.74834e-10 DIIS
   @DF-RHF iter  17:  -463.89197047491223    1.13687e-13   8.50793e-11 DIIS
  Energy and wave function converged.


  ==> Post-Iterations <==

    Orbital Energies [Eh]
    ---------------------

    Doubly Occupied:                                                      

       1A    -11.236664     2A    -11.233815     3A    -11.232512  
       4A    -11.228890     5A    -11.228602     6A    -11.227276  
       7A    -11.227070     8A    -11.221331     9A    -11.217940  
      10A    -11.214986    11A    -11.214669    12A    -11.211647  
      13A     -1.155022    14A     -1.122655    15A     -1.039607  
      16A     -1.008353    17A     -0.985891    18A     -0.954915  
      19A     -0.891285    20A     -0.827312    21A     -0.815073  
      22A     -0.763337    23A     -0.760543    24A     -0.690755  
      25A     -0.658633    26A     -0.634441    27A     -0.622741  
      28A     -0.605411    29A     -0.586174    30A     -0.580190  
      31A     -0.576017    32A     -0.556769    33A     -0.528301  
      34A     -0.511485    35A     -0.508501    36A     -0.490288  
      37A     -0.474130    38A     -0.463260    39A     -0.460925  
      40A     -0.454623    41A     -0.449150    42A     -0.444062  
      43A     -0.332285    44A     -0.317535  

    Virtual:                                                              

      45A      0.027199    46A      0.030529    47A      0.031839  
      48A      0.035902    49A      0.041703    50A      0.043101  
      51A      0.049742    52A      0.053676    53A      0.056653  
      54A      0.059153    55A      0.060538    56A      0.071645  
      57A      0.075280    58A      0.078812    59A      0.082412  
      60A      0.088734    61A      0.096259    62A      0.103452  
      63A      0.106719    64A      0.108694    65A      0.109363  
      66A      0.113886    67A      0.117601    68A      0.119580  
      69A      0.121538    70A      0.124340    71A      0.129050  
      72A      0.131843    73A      0.133649    74A      0.136725  
      75A      0.142629    76A      0.144816    77A      0.145489  
      78A      0.148752    79A      0.151216    80A      0.153926  
      81A      0.156984    82A      0.160636    83A      0.162418  
      84A      0.165699    85A      0.169147    86A      0.172804  
      87A      0.174276    88A      0.180713    89A      0.184490  
      90A      0.187864    91A      0.189897    92A      0.195947  
      93A      0.199176    94A      0.207212    95A      0.212549  
      96A      0.217292    97A      0.222811    98A      0.229012  
      99A      0.234049   100A      0.237510   101A      0.238291  
     102A      0.246029   103A      0.250027   104A      0.256230  
     105A      0.261152   106A      0.262788   107A      0.265884  
     108A      0.270947   109A      0.272382   110A      0.278723  
     111A      0.288135   112A      0.291307   113A      0.294493  
     114A      0.299718   115A      0.305214   116A      0.307630  
     117A      0.308703   118A      0.313610   119A      0.315899  
     120A      0.318893   121A      0.324783   122A      0.325843  
     123A      0.330050   124A      0.334812   125A      0.336516  
     126A      0.341145   127A      0.346175   128A      0.348676  
     129A      0.353465   130A      0.358232   131A      0.362237  
     132A      0.364189   133A      0.365984   134A      0.368706  
     135A      0.372936   136A      0.376382   137A      0.380534  
     138A      0.384415   139A      0.386707   140A      0.392060  
     141A      0.394959   142A      0.398817   143A      0.400173  
     144A      0.404692   145A      0.407126   146A      0.417096  
     147A      0.421414   148A      0.426644   149A      0.428114  
     150A      0.432679   151A      0.435666   152A      0.437868  
     153A      0.441896   154A      0.446424   155A      0.448062  
     156A      0.452378   157A      0.456659   158A      0.460987  
     159A      0.462939   160A      0.464850   161A      0.472218  
     162A      0.477200   163A      0.481174   164A      0.482573  
     165A      0.486952   166A      0.488297   167A      0.489087  
     168A      0.493568   169A      0.497594   170A      0.500735  
     171A      0.503389   172A      0.505516   173A      0.509443  
     174A      0.512904   175A      0.513120   176A      0.519973  
     177A      0.520267   178A      0.523872   179A      0.526130  
     180A      0.530007   181A      0.532458   182A      0.539110  
     183A      0.543479   184A      0.543950   185A      0.545339  
     186A      0.549584   187A      0.552166   188A      0.553311  
     189A      0.561306   190A      0.564117   191A      0.566910  
     192A      0.569481   193A      0.572736   194A      0.577822  
     195A      0.584163   196A      0.587425   197A      0.592300  
     198A      0.596128   199A      0.597569   200A      0.603219  
     201A      0.604887   202A      0.612577   203A      0.616172  
     204A      0.620492   205A      0.624428   206A      0.630088  
     207A      0.633776   208A      0.636410   209A      0.638077  
     210A      0.644283   211A      0.649674   212A      0.655013  
     213A      0.658662   214A      0.663943   215A      0.672906  
     216A      0.675485   217A      0.678590   218A      0.683324  
     219A      0.689961   220A      0.693968   221A      0.696734  
     222A      0.700321   223A      0.703384   224A      0.705780  
     225A      0.708908   226A      0.716667   227A      0.721280  
     228A      0.725935   229A      0.731376   230A      0.733876  
     231A      0.739810   232A      0.743875   233A      0.753232  
     234A      0.755785   235A      0.759725   236A      0.767522  
     237A      0.779288   238A      0.781858   239A      0.788681  
     240A      0.793319   241A      0.797183   242A      0.805089  
     243A      0.813782   244A      0.823314   245A      0.828867  
     246A      0.836479   247A      0.837441   248A      0.844010  
     249A      0.848456   250A      0.857040   251A      0.861617  
     252A      0.864063   253A      0.871909   254A      0.873522  
     255A      0.875234   256A      0.881771   257A      0.890486  
     258A      0.893072   259A      0.895740   260A      0.899985  
     261A      0.905357   262A      0.905785   263A      0.909445  
     264A      0.912172   265A      0.918495   266A      0.922332  
     267A      0.928256   268A      0.933609   269A      0.935590  
     270A      0.940345   271A      0.942398   272A      0.947481  
     273A      0.950032   274A      0.954742   275A      0.962581  
     276A      0.964389   277A      0.967296   278A      0.974468  
     279A      0.977831   280A      0.986656   281A      0.991538  
     282A      0.994147   283A      0.997599   284A      1.000245  
     285A      1.003305   286A      1.009644   287A      1.013968  
     288A      1.019723   289A      1.021862   290A      1.026468  
     291A      1.029202   292A      1.037411   293A      1.041537  
     294A      1.043597   295A      1.048104   296A      1.056582  
     297A      1.060088   298A      1.061221   299A      1.069052  
     300A      1.071947   301A      1.076002   302A      1.081321  
     303A      1.085372   304A      1.090854   305A      1.093065  
     306A      1.098133   307A      1.104498   308A      1.110352  
     309A      1.113689   310A      1.116444   311A      1.122989  
     312A      1.124601   313A      1.126307   314A      1.133243  
     315A      1.137883   316A      1.143308   317A      1.147403  
     318A      1.150974   319A      1.151504   320A      1.158374  
     321A      1.161713   322A      1.164939   323A      1.172882  
     324A      1.175905   325A      1.180496   326A      1.184993  
     327A      1.188344   328A      1.192046   329A      1.193770  
     330A      1.199266   331A      1.202553   332A      1.205871  
     333A      1.207640   334A      1.215773   335A      1.221156  
     336A      1.228583   337A      1.231429   338A      1.235367  
     339A      1.238212   340A      1.249102   341A      1.254085  
     342A      1.258846   343A      1.266827   344A      1.271592  
     345A      1.273334   346A      1.278380   347A      1.280077  
     348A      1.286603   349A      1.293146   350A      1.297994  
     351A      1.306024   352A      1.310937   353A      1.318110  
     354A      1.320492   355A      1.328080   356A      1.332938  
     357A      1.343544   358A      1.346383   359A      1.350509  
     360A      1.354479   361A      1.360954   362A      1.366341  
     363A      1.368262   364A      1.374735   365A      1.383813  
     366A      1.391688   367A      1.395192   368A      1.401037  
     369A      1.403784   370A      1.406959   371A      1.416263  
     372A      1.418598   373A      1.425533   374A      1.428568  
     375A      1.440155   376A      1.447178   377A      1.450309  
     378A      1.452248   379A      1.462598   380A      1.466793  
     381A      1.468771   382A      1.474921   383A      1.481677  
     384A      1.484884   385A      1.495724   386A      1.504243  
     387A      1.509637   388A      1.514685   389A      1.522567  
     390A      1.523885   391A      1.532354   392A      1.537590  
     393A      1.548360   394A      1.555301   395A      1.560727  
     396A      1.570421   397A      1.573754   398A      1.581605  
     399A      1.583661   400A      1.597064   401A      1.600569  
     402A      1.602047   403A      1.614207   404A      1.621074  
     405A      1.629804   406A      1.632507   407A      1.639866  
     408A      1.642012   409A      1.656079   410A      1.666034  
     411A      1.670229   412A      1.679284   413A      1.681237  
     414A      1.688973   415A      1.697782   416A      1.702622  
     417A      1.707722   418A      1.712742   419A      1.716529  
     420A      1.726280   421A      1.728719   422A      1.735894  
     423A      1.737412   424A      1.742515   425A      1.748280  
     426A      1.751441   427A      1.758590   428A      1.764809  
     429A      1.768853   430A      1.775620   431A      1.780215  
     432A      1.785603   433A      1.786101   434A      1.790925  
     435A      1.803942   436A      1.806409   437A      1.812611  
     438A      1.818584   439A      1.833429   440A      1.835026  
     441A      1.841768   442A      1.845450   443A      1.852966  
     444A      1.856528   445A      1.861297   446A      1.866319  
     447A      1.875679   448A      1.884228   449A      1.886414  
     450A      1.893610   451A      1.899764   452A      1.902488  
     453A      1.904945   454A      1.908912   455A      1.912219  
     456A      1.923685   457A      1.931643   458A      1.939032  
     459A      1.946391   460A      1.950459   461A      1.956168  
     462A      1.957390   463A      1.964124   464A      1.967037  
     465A      1.981616   466A      1.992253   467A      1.995550  
     468A      2.000294   469A      2.018552   470A      2.019236  
     471A      2.023473   472A      2.028149   473A      2.032763  
     474A      2.040146   475A      2.041946   476A      2.049523  
     477A      2.054009   478A      2.059488   479A      2.061660  
     480A      2.064851   481A      2.072074   482A      2.075430  
     483A      2.079963   484A      2.084428   485A      2.091542  
     486A      2.099727   487A      2.113327   488A      2.116954  
     489A      2.118561   490A      2.124047   491A      2.132434  
     492A      2.144626   493A      2.151796   494A      2.155563  
     495A      2.162513   496A      2.166457   497A      2.180453  
     498A      2.185868   499A      2.194570   500A      2.208101  
     501A      2.212490   502A      2.215736   503A      2.226803  
     504A      2.234699   505A      2.239056   506A      2.243328  
     507A      2.257266   508A      2.263050   509A      2.264201  
     510A      2.272395   511A      2.278322   512A      2.284815  
     513A      2.285961   514A      2.294566   515A      2.312288  
     516A      2.323267   517A      2.326416   518A      2.342913  
     519A      2.347688   520A      2.356186   521A      2.366904  
     522A      2.372212   523A      2.375353   524A      2.387346  
     525A      2.398437   526A      2.402363   527A      2.408922  
     528A      2.411869   529A      2.420365   530A      2.428715  
     531A      2.441283   532A      2.446773   533A      2.449536  
     534A      2.465889   535A      2.469763   536A      2.478864  
     537A      2.489598   538A      2.494400   539A      2.498756  
     540A      2.516349   541A      2.521232   542A      2.535596  
     543A      2.537234   544A      2.564505   545A      2.573916  
     546A      2.578808   547A      2.586273   548A      2.594209  
     549A      2.604277   550A      2.611275   551A      2.624374  
     552A      2.629365   553A      2.641996   554A      2.653588  
     555A      2.659965   556A      2.672633   557A      2.689925  
     558A      2.698376   559A      2.717329   560A      2.727421  
     561A      2.733589   562A      2.745530   563A      2.770757  
     564A      2.774665   565A      2.797591   566A      2.807047  
     567A      2.830463   568A      2.843042   569A      2.847219  
     570A      2.878202   571A      2.898626   572A      2.918344  
     573A      2.955658   574A      2.979507   575A      3.034839  
     576A      3.075225   577A      3.095452   578A      3.127428  
     579A      3.135762   580A      3.158513   581A      3.199265  
     582A      3.229015   583A      3.231209   584A      3.250282  
     585A      3.262372   586A      3.304071   587A      3.322275  
     588A      3.348056   589A      3.355836   590A      3.363529  
     591A      3.375063   592A      3.386658   593A      3.392922  
     594A      3.398538   595A      3.430496   596A      3.439850  
     597A      3.449964   598A      3.459339   599A      3.472841  
     600A      3.481191   601A      3.487826   602A      3.489372  
     603A      3.506028   604A      3.508856   605A      3.521574  
     606A      3.528363   607A      3.544640   608A      3.548208  
     609A      3.559397   610A      3.573335   611A      3.575789  
     612A      3.580378   613A      3.584604   614A      3.596429  
     615A      3.598435   616A      3.608798   617A      3.620079  
     618A      3.634117   619A      3.642035   620A      3.647108  
     621A      3.652334   622A      3.661762   623A      3.666462  
     624A      3.674684   625A      3.683980   626A      3.691447  
     627A      3.710915   628A      3.713348   629A      3.719336  
     630A      3.729383   631A      3.736342   632A      3.754342  
     633A      3.760786   634A      3.776975   635A      3.781390  
     636A      3.789591   637A      3.792480   638A      3.796986  
     639A      3.810970   640A      3.815630   641A      3.821826  
     642A      3.840245   643A      3.847772   644A      3.854982  
     645A      3.858833   646A      3.861230   647A      3.866827  
     648A      3.875573   649A      3.884898   650A      3.893087  
     651A      3.899932   652A      3.903879   653A      3.908252  
     654A      3.913098   655A      3.919749   656A      3.933610  
     657A      3.941292   658A      3.954078   659A      3.960100  
     660A      3.964490   661A      3.977116   662A      3.984638  
     663A      3.990592   664A      3.996162   665A      4.003455  
     666A      4.005239   667A      4.008464   668A      4.017755  
     669A      4.023730   670A      4.029629   671A      4.034918  
     672A      4.036734   673A      4.046737   674A      4.050876  
     675A      4.057834   676A      4.065303   677A      4.072443  
     678A      4.077896   679A      4.081164   680A      4.099111  
     681A      4.101608   682A      4.113249   683A      4.126165  
     684A      4.134625   685A      4.143117   686A      4.144403  
     687A      4.157816   688A      4.163177   689A      4.173259  
     690A      4.176603   691A      4.186292   692A      4.193607  
     693A      4.197075   694A      4.205979   695A      4.214266  
     696A      4.226639   697A      4.232047   698A      4.245590  
     699A      4.250479   700A      4.256377   701A      4.260533  
     702A      4.266085   703A      4.271409   704A      4.283152  
     705A      4.291083   706A      4.300949   707A      4.304739  
     708A      4.315298   709A      4.323527   710A      4.324801  
     711A      4.333071   712A      4.336229   713A      4.352027  
     714A      4.356320   715A      4.359584   716A      4.367594  
     717A      4.372920   718A      4.382571   719A      4.393455  
     720A      4.403270   721A      4.419328   722A      4.426478  
     723A      4.434783   724A      4.447276   725A      4.452945  
     726A      4.461994   727A      4.472306   728A      4.479494  
     729A      4.482925   730A      4.501748   731A      4.505042  
     732A      4.510055   733A      4.518234   734A      4.529103  
     735A      4.536289   736A      4.537041   737A      4.548671  
     738A      4.555950   739A      4.564826   740A      4.579028  
     741A      4.588943   742A      4.594637   743A      4.605976  
     744A      4.612097   745A      4.626356   746A      4.637431  
     747A      4.651398   748A      4.663447   749A      4.665577  
     750A      4.676181   751A      4.692006   752A      4.694484  
     753A      4.703376   754A      4.719143   755A      4.732655  
     756A      4.746833   757A      4.756182   758A      4.760768  
     759A      4.767795   760A      4.772949   761A      4.780675  
     762A      4.788070   763A      4.804573   764A      4.814237  
     765A      4.833407   766A      4.837947   767A      4.839428  
     768A      4.854691   769A      4.873150   770A      4.878281  
     771A      4.892716   772A      4.904038   773A      4.913574  
     774A      4.926810   775A      4.930994   776A      4.936248  
     777A      4.953550   778A      4.960843   779A      4.966475  
     780A      4.980790   781A      4.998408   782A      5.006604  
     783A      5.010044   784A      5.023528   785A      5.025810  
     786A      5.040691   787A      5.059532   788A      5.067567  
     789A      5.081120   790A      5.087402   791A      5.103718  
     792A      5.113157   793A      5.119514   794A      5.126614  
     795A      5.130350   796A      5.137865   797A      5.145430  
     798A      5.154031   799A      5.166478   800A      5.179111  
     801A      5.183676   802A      5.186063   803A      5.188888  
     804A      5.198548   805A      5.210186   806A      5.227379  
     807A      5.234275   808A      5.241791   809A      5.259508  
     810A      5.272526   811A      5.281819   812A      5.289614  
     813A      5.303647   814A      5.313497   815A      5.319177  
     816A      5.334826   817A      5.339546   818A      5.345582  
     819A      5.350696   820A      5.355318   821A      5.364377  
     822A      5.374520   823A      5.401014   824A      5.406647  
     825A      5.416072   826A      5.425570   827A      5.430648  
     828A      5.435970   829A      5.463045   830A      5.479980  
     831A      5.499571   832A      5.501379   833A      5.507779  
     834A      5.513813   835A      5.534187   836A      5.536998  
     837A      5.549103   838A      5.572100   839A      5.583374  
     840A      5.590048   841A      5.607389   842A      5.615659  
     843A      5.632552   844A      5.644119   845A      5.652572  
     846A      5.661646   847A      5.671765   848A      5.704250  
     849A      5.716527   850A      5.719191   851A      5.742165  
     852A      5.761439   853A      5.774380   854A      5.777135  
     855A      5.797274   856A      5.809535   857A      5.826699  
     858A      5.846614   859A      5.865990   860A      5.875403  
     861A      5.888273   862A      5.908966   863A      5.919242  
     864A      5.930845   865A      5.941862   866A      5.960294  
     867A      5.980355   868A      6.016316   869A      6.028899  
     870A      6.046363   871A      6.071055   872A      6.104002  
     873A      6.126877   874A      6.167496   875A      6.198970  
     876A      6.213111   877A      6.223739   878A      6.235794  
     879A      6.241039   880A      6.274752   881A      6.296462  
     882A      6.306543   883A      6.329223   884A      6.336157  
     885A      6.368906   886A      6.390545   887A      6.441875  
     888A      6.468754   889A      6.485175   890A      6.512094  
     891A      6.565717   892A      6.599260   893A      6.651893  
     894A      6.688632   895A      6.732564   896A      6.811922  
     897A      6.838030   898A      6.875886   899A      6.906756  
     900A      6.943394   901A      6.950180   902A      6.999365  
     903A      7.040315   904A      7.042455   905A      7.102585  
     906A      7.130344   907A      7.200186   908A      7.340299  
     909A     16.314858   910A     16.578873   911A     18.029863  
     912A     18.513406   913A     18.988201   914A     19.214378  
     915A     19.282177   916A     19.824996   917A     19.846944  
     918A     20.161086   919A     20.633423   920A     21.581276  

    Final Occupation by Irrep:
              A 
    DOCC [    44 ]

  @DF-RHF Final Energy:  -463.89197047491223

   => Energetics <=

    Nuclear Repulsion Energy =            675.4655119233655114
    One-Electron Energy =               -1966.7848286865219052
    Two-Electron Energy =                 827.4273462882441663
    Total Energy =                       -463.8919704749122275

Computation Completed

*** tstop() called on c418-114.stampede2.tacc.utexas.edu at Sun Mar  7 22:15:23 2021
Module time:
	user time   =    1517.86 seconds =      25.30 minutes
	system time =      79.37 seconds =       1.32 minutes
	total time  =         75 seconds =       1.25 minutes
Total time:
	user time   =    1517.86 seconds =      25.30 minutes
	system time =      79.37 seconds =       1.32 minutes
	total time  =         75 seconds =       1.25 minutes
   => Loading Basis Set <=

    Name: (AUG-CC-PVTZ AUX)
    Role: RIFIT
    Keyword: DF_BASIS_MP2
    atoms 1-12  entry C          line   148 file /home1/07844/xy3866/miniconda3/envs/p4env/share/psi4/basis/aug-cc-pvtz-ri.gbs 
    atoms 13-28 entry H          line    30 file /home1/07844/xy3866/miniconda3/envs/p4env/share/psi4/basis/aug-cc-pvtz-ri.gbs 


*** tstart() called on c418-114.stampede2.tacc.utexas.edu
*** at Sun Mar  7 22:15:25 2021


  //>>>>>>>>>>>>>>>>>>>>>>>>>>>>>>>>>>>//
  //               DFMP2               //
  //<<<<<<<<<<<<<<<<<<<<<<<<<<<<<<<<<<<//

	 --------------------------------------------------------
	                          DF-MP2                         
	      2nd-Order Density-Fitted Moller-Plesset Theory     
	              RMP2 Wavefunction,  32 Threads             
	                                                         
	        Rob Parrish, Justin Turney, Andy Simmonett,      
	           Ed Hohenstein, and C. David Sherrill          
	 --------------------------------------------------------

   => Auxiliary Basis Set <=

  Basis Set: (AUG-CC-PVTZ AUX)
    Blend: AUG-CC-PVTZ-RI
    Number of shells: 560
    Number of basis functions: 2008
    Number of Cartesian functions: 2512
    Spherical Harmonics?: true
    Max angular momentum: 4

	 --------------------------------------------------------
	                 NBF =   920, NAUX =  2008
	 --------------------------------------------------------
	   CLASS    FOCC     OCC    AOCC    AVIR     VIR    FVIR
	   PAIRS       0      44      44     876     876       0
	 --------------------------------------------------------

  DFHelper Memory: AOs need 11.762 GiB; user supplied 22.352 GiB. Using in-core AOs.


         ------------------------------------------------------------
                                     CPHF                           
                                  Rob Parrish                       
         ------------------------------------------------------------

  ==> Geometry <==

    Molecular point group: c1
    Full point group: C1

    Geometry (in Angstrom), charge = 0, multiplicity = 1:

       Center              X                  Y                   Z               Mass       
    ------------   -----------------  -----------------  -----------------  -----------------
         C           -0.500874982764    -0.866770570037     0.185645310412    12.000000000000
         C           -2.827474282764    -0.224759170037    -0.269020189588    12.000000000000
         C           -1.445178282764    -0.330565170037    -0.914792189588    12.000000000000
         C           -1.218135282764    -0.367890170037     1.533651810412    12.000000000000
         C           -2.486368282764     0.380331829963     1.094795810412    12.000000000000
         C            0.903813717236    -0.338851170037     0.069273810412    12.000000000000
         C           -3.842091282764     0.569037829963    -1.079221189588    12.000000000000
         C            1.206081717236     1.027839829963     0.176259810412    12.000000000000
         C            1.949940717236    -1.230718170037    -0.196218189588    12.000000000000
         C            2.514439717236     1.486514829963     0.026005810412    12.000000000000
         C            3.262235717236    -0.776823170037    -0.349465189588    12.000000000000
         C            3.548491717236     0.584460829963    -0.239418189588    12.000000000000
         H           -0.496625282764    -1.922342170037     0.192032810412     1.007825032230
         H           -3.213911282764    -1.242427170037    -0.107478189588     1.007825032230
         H           -1.129787282764     0.667659829963    -1.247556189588     1.007825032230
         H           -1.417529282764    -0.988021170037    -1.791389189588     1.007825032230
         H           -0.558649282764     0.248044829963     2.152432810412     1.007825032230
         H           -1.484734282764    -1.245594170037     2.132639810412     1.007825032230
         H           -3.304839282764     0.302351829963     1.819323810412     1.007825032230
         H           -2.273303282764     1.449840829963     0.959165810412     1.007825032230
         H           -3.476219282764     1.587207829963    -1.252057189588     1.007825032230
         H           -4.023065282764     0.105317829963    -2.054226189588     1.007825032230
         H           -4.801357282764     0.638745829963    -0.556094189588     1.007825032230
         H            0.408790717236     1.740970829963     0.382739810412     1.007825032230
         H            1.734139717236    -2.294940170037    -0.280298189588     1.007825032230
         H            2.728590717236     2.549360829963     0.114822810412     1.007825032230
         H            4.060196717236    -1.487248170037    -0.553885189588     1.007825032230
         H            4.568948717236     0.941164829963    -0.356646189588     1.007825032230

  Nuclear repulsion =  675.465511923365398
  Reference energy  = -463.891970474912227

  ==> Basis Set <==

  Basis Set: AUG-CC-PVTZ
    Blend: AUG-CC-PVTZ
    Number of shells: 312
    Number of basis functions: 920
    Number of Cartesian functions: 1060
    Spherical Harmonics?: true
    Max angular momentum: 3

  ==> CGRSolver (by Rob Parrish) <==

   Number of roots    =         1
   Preconditioning    =    JACOBI
   Convergence cutoff =     1E-06
   Maximum iterations =       100

  ==> CPHFRHamiltonian (by Rob Parrish) <== 

  ==> MemDFJK: Density-Fitted J/K Matrices <==

    J tasked:                   Yes
    K tasked:                   Yes
    wK tasked:                   No
    OpenMP threads:              32
    Memory [MiB]:             22888
    Algorithm:                 Core
    Schwarz Cutoff:           1E-12
    Mask sparsity (%):       9.1968
    Fitting Condition:        1E-10

   => Auxiliary Basis Set <=

  Basis Set: (AUG-CC-PVTZ AUX)
    Blend: AUG-CC-PVTZ-JKFIT
    Number of shells: 584
    Number of basis functions: 1984
    Number of Cartesian functions: 2452
    Spherical Harmonics?: true
    Max angular momentum: 4

  ==> CPHF Iterations <==

  => Iterations <=

             Iter  Converged  Remaining    Residual
  CGR           1          0          1   8.112E-02
  CGR           2          0          1   1.615E-02
  CGR           3          0          1   7.132E-03
  CGR           4          0          1   4.258E-03
  CGR           5          0          1   1.917E-03
  CGR           6          0          1   6.860E-04
  CGR           7          0          1   1.998E-04
  CGR           8          0          1   5.476E-05
  CGR           9          0          1   1.932E-05
  CGR          10          0          1   8.385E-06
  CGR          11          0          1   4.771E-06
  CGR          12          0          1   1.402E-06
  CGR          13          1          0   4.995E-07

    CGRSolver converged.

	-----------------------------------------------------------
	 ==================> DF-MP2 Energies <==================== 
	-----------------------------------------------------------
	 Reference Energy          =    -463.8919704749122275 [Eh]
	 Singles Energy            =      -0.0000000000000000 [Eh]
	 Same-Spin Energy          =      -0.5193698661533829 [Eh]
	 Opposite-Spin Energy      =      -1.7263087655266354 [Eh]
	 Correlation Energy        =      -2.2456786316800184 [Eh]
	 Total Energy              =    -466.1376491065922210 [Eh]
	-----------------------------------------------------------
	 ================> DF-SCS-MP2 Energies <================== 
	-----------------------------------------------------------
	 SCS Same-Spin Scale       =       0.3333333333333333 [-]
	 SCS Opposite-Spin Scale   =       1.2000000000000000 [-]
	 SCS Same-Spin Energy      =      -0.1731232887177943 [Eh]
	 SCS Opposite-Spin Energy  =      -2.0715705186319622 [Eh]
	 SCS Correlation Energy    =      -2.2446938073497567 [Eh]
	 SCS Total Energy          =    -466.1366642822619610 [Eh]
	-----------------------------------------------------------



Properties will be evaluated at   0.000000,  -0.000000,  -0.000000 [a0]

Properties computed using the MP2 density matrix

  Nuclear Dipole Moment: [e a0]
     X:   -11.8865      Y:     0.9844      Z:    -0.4186

  Electronic Dipole Moment: [e a0]
     X:    11.6570      Y:    -1.0744      Z:     0.4281

  Dipole Moment: [e a0]
     X:    -0.2295      Y:    -0.0900      Z:     0.0095     Total:     0.2467

  Dipole Moment: [D]
     X:    -0.5833      Y:    -0.2287      Z:     0.0242     Total:     0.6270


*** tstop() called on c418-114.stampede2.tacc.utexas.edu at Sun Mar  7 22:22:51 2021
Module time:
	user time   =    5007.37 seconds =      83.46 minutes
	system time =     114.32 seconds =       1.91 minutes
	total time  =        446 seconds =       7.43 minutes
Total time:
	user time   =    6526.60 seconds =     108.78 minutes
	system time =     193.72 seconds =       3.23 minutes
	total time  =        523 seconds =       8.72 minutes

    Psi4 stopped on: Sunday, 07 March 2021 10:22PM
    Psi4 wall time for execution: 0:08:45.36

*** Psi4 exiting successfully. Buy a developer a beer!
