
    -----------------------------------------------------------------------
          Psi4: An Open-Source Ab Initio Electronic Structure Package
                               Psi4 1.4a3.dev225 

                         Git: Rev {master} 7105e37 


    D. G. A. Smith, L. A. Burns, A. C. Simmonett, R. M. Parrish,
    M. C. Schieber, R. Galvelis, P. Kraus, H. Kruse, R. Di Remigio,
    A. Alenaizan, A. M. James, S. Lehtola, J. P. Misiewicz, M. Scheurer,
    R. A. Shaw, J. B. Schriber, Y. Xie, Z. L. Glick, D. A. Sirianni,
    J. S. O'Brien, J. M. Waldrop, A. Kumar, E. G. Hohenstein,
    B. P. Pritchard, B. R. Brooks, H. F. Schaefer III, A. Yu. Sokolov,
    K. Patkowski, A. E. DePrince III, U. Bozkaya, R. A. King,
    F. A. Evangelista, J. M. Turney, T. D. Crawford, C. D. Sherrill,
    J. Chem. Phys. 152(18) 184108 (2020). https://doi.org/10.1063/5.0006002

                            Additional Code Authors
    E. T. Seidl, C. L. Janssen, E. F. Valeev, M. L. Leininger,
    J. F. Gonthier, R. M. Richard, H. R. McAlexander, M. Saitow, X. Wang,
    P. Verma, and M. H. Lechner

             Previous Authors, Complete List of Code Contributors,
                       and Citations for Specific Modules
    https://github.com/psi4/psi4/blob/master/codemeta.json
    https://github.com/psi4/psi4/graphs/contributors
    http://psicode.org/psi4manual/master/introduction.html#citing-psifour

    -----------------------------------------------------------------------


    Psi4 started on: Friday, 02 April 2021 12:23PM

    Process ID: 105905
    Host:       c474-084.stampede2.tacc.utexas.edu
    PSIDATADIR: /home1/07844/xy3866/miniconda3/envs/p4env/share/psi4
    Memory:     500.0 MiB
    Threads:    8
    
  ==> Input File <==

--------------------------------------------------------------------------
#psi4
#
memory 32 gb

molecule  {
0 1
  C       -0.4426020    -0.8338200     0.2172010
  C       -2.7550300    -0.2335230    -0.2686280
  C       -1.3727340    -0.3393290    -0.9144000
  C       -1.1456910    -0.3766540     1.5340440
  C       -2.4139240     0.3715680     1.0951880
  C        0.9762580    -0.3476150     0.0696660
  C       -3.7696470     0.5602740    -1.0788290
  C        1.2785260     1.0190760     0.1766520
  C        1.9850261    -1.2076320    -0.1863449
  C        2.5868840     1.4777510     0.0263980
  C        3.3346800    -0.7855870    -0.3490730
  C        3.6209360     0.5756970    -0.2390260
  H       -0.4241810    -1.9311060     0.1924250
  H       -3.1414670    -1.2511910    -0.1070860
  H       -1.0573430     0.6588960    -1.2471640
  H       -1.3450850    -0.9967850    -1.7909970
  H       -0.4862050     0.2392810     2.1528250
  H       -1.4122900    -1.2543580     2.1330320
  H       -3.2323950     0.2935880     1.8197160
  H       -2.2008590     1.4410770     0.9595580
  H       -3.4037750     1.5784440    -1.2516650
  H       -3.9506210     0.0965540    -2.0538340
  H       -4.7289130     0.6299820    -0.5557020
  H        0.4812350     1.7322070     0.3831320
  H        1.8065840    -2.3037040    -0.2799060
  H        2.8010350     2.5405970     0.1152150
  H        4.1326410    -1.4960120    -0.5534930
  H        4.6413930     0.9324010    -0.3562540
units angstrom
no_reorient  #important for SAPT in psi4, default
symmetry c1  #important for SAPT in psi4, default
}

set PROPERTIES_ORIGIN ["COM"]
properties('MP2/aug-cc-pvtz', properties = ['dipole'])
--------------------------------------------------------------------------

  Memory set to  29.802 GiB by Python driver.
    SCF Algorithm Type (re)set to DF.

*** tstart() called on c474-084.stampede2.tacc.utexas.edu
*** at Fri Apr  2 12:23:09 2021

   => Loading Basis Set <=

    Name: AUG-CC-PVTZ
    Role: ORBITAL
    Keyword: BASIS
    atoms 1-12  entry C          line   239 file /home1/07844/xy3866/miniconda3/envs/p4env/share/psi4/basis/aug-cc-pvtz.gbs 
    atoms 13-28 entry H          line    40 file /home1/07844/xy3866/miniconda3/envs/p4env/share/psi4/basis/aug-cc-pvtz.gbs 


         ---------------------------------------------------------
                                   SCF
               by Justin Turney, Rob Parrish, Andy Simmonett
                          and Daniel G. A. Smith
                              RHF Reference
                        8 Threads,  30517 MiB Core
         ---------------------------------------------------------

  ==> Geometry <==

    Molecular point group: c1
    Full point group: C1

    Geometry (in Angstrom), charge = 0, multiplicity = 1:

       Center              X                  Y                   Z               Mass       
    ------------   -----------------  -----------------  -----------------  -----------------
         C           -0.511184539590    -0.830569186084     0.213762848886    12.000000000000
         C           -2.823612539590    -0.230272186084    -0.272066151114    12.000000000000
         C           -1.441316539590    -0.336078186084    -0.917838151114    12.000000000000
         C           -1.214273539590    -0.373403186084     1.530605848886    12.000000000000
         C           -2.482506539590     0.374818813916     1.091749848886    12.000000000000
         C            0.907675460410    -0.344364186084     0.066227848886    12.000000000000
         C           -3.838229539590     0.563524813916    -1.082267151114    12.000000000000
         C            1.209943460410     1.022326813916     0.173213848886    12.000000000000
         C            1.916443560410    -1.204381186084    -0.189783051114    12.000000000000
         C            2.518301460410     1.481001813916     0.022959848886    12.000000000000
         C            3.266097460410    -0.782336186084    -0.352511151114    12.000000000000
         C            3.552353460410     0.578947813916    -0.242464151114    12.000000000000
         H           -0.492763539590    -1.927855186084     0.188986848886     1.007825032230
         H           -3.210049539590    -1.247940186084    -0.110524151114     1.007825032230
         H           -1.125925539590     0.662146813916    -1.250602151114     1.007825032230
         H           -1.413667539590    -0.993534186084    -1.794435151114     1.007825032230
         H           -0.554787539590     0.242531813916     2.149386848886     1.007825032230
         H           -1.480872539590    -1.251107186084     2.129593848886     1.007825032230
         H           -3.300977539590     0.296838813916     1.816277848886     1.007825032230
         H           -2.269441539590     1.444327813916     0.956119848886     1.007825032230
         H           -3.472357539590     1.581694813916    -1.255103151114     1.007825032230
         H           -4.019203539590     0.099804813916    -2.057272151114     1.007825032230
         H           -4.797495539590     0.633232813916    -0.559140151114     1.007825032230
         H            0.412652460410     1.735457813916     0.379693848886     1.007825032230
         H            1.738001460410    -2.300453186084    -0.283344151114     1.007825032230
         H            2.732452460410     2.543847813916     0.111776848886     1.007825032230
         H            4.064058460410    -1.492761186084    -0.556931151114     1.007825032230
         H            4.572810460410     0.935651813916    -0.359692151114     1.007825032230

  Running in c1 symmetry.

  Rotational constants: A =      0.07868  B =      0.01608  C =      0.01576 [cm^-1]
  Rotational constants: A =   2358.83918  B =    482.12693  C =    472.32364 [MHz]
  Nuclear repulsion =  676.727971769393321

  Charge       = 0
  Multiplicity = 1
  Electrons    = 88
  Nalpha       = 44
  Nbeta        = 44

  ==> Algorithm <==

  SCF Algorithm Type is DF.
  DIIS enabled.
  MOM disabled.
  Fractional occupation disabled.
  Guess Type is SAD.
  Energy threshold   = 1.00e-10
  Density threshold  = 1.00e-10
  Integral threshold = 1.00e-12

  ==> Primary Basis <==

  Basis Set: AUG-CC-PVTZ
    Blend: AUG-CC-PVTZ
    Number of shells: 312
    Number of basis functions: 920
    Number of Cartesian functions: 1060
    Spherical Harmonics?: true
    Max angular momentum: 3

   => Loading Basis Set <=

    Name: (AUG-CC-PVTZ AUX)
    Role: JKFIT
    Keyword: DF_BASIS_SCF
    atoms 1-12  entry C          line   162 file /home1/07844/xy3866/miniconda3/envs/p4env/share/psi4/basis/aug-cc-pvtz-jkfit.gbs 
    atoms 13-28 entry H          line    70 file /home1/07844/xy3866/miniconda3/envs/p4env/share/psi4/basis/aug-cc-pvtz-jkfit.gbs 

  ==> Integral Setup <==

  DFHelper Memory: AOs need 10.987 GiB; user supplied 22.352 GiB. Using in-core AOs.

  ==> MemDFJK: Density-Fitted J/K Matrices <==

    J tasked:                   Yes
    K tasked:                   Yes
    wK tasked:                   No
    OpenMP threads:               8
    Memory [MiB]:             22888
    Algorithm:                 Core
    Schwarz Cutoff:           1E-12
    Mask sparsity (%):      14.1812
    Fitting Condition:        1E-10

   => Auxiliary Basis Set <=

  Basis Set: (AUG-CC-PVTZ AUX)
    Blend: AUG-CC-PVTZ-JKFIT
    Number of shells: 584
    Number of basis functions: 1984
    Number of Cartesian functions: 2452
    Spherical Harmonics?: true
    Max angular momentum: 4

  Minimum eigenvalue in the overlap matrix is 3.5598373452E-07.
  Reciprocal condition number of the overlap matrix is 1.4078963532E-08.
    Using symmetric orthogonalization.

  ==> Pre-Iterations <==

  SCF Guess: Superposition of Atomic Densities via on-the-fly atomic UHF (no occupation information).

   -------------------------
    Irrep   Nso     Nmo    
   -------------------------
     A        920     920 
   -------------------------
    Total     920     920
   -------------------------

  ==> Iterations <==

                           Total Energy        Delta E     RMS |[F,P]|

   @DF-RHF iter SAD:  -464.00960968228338   -4.64010e+02   0.00000e+00 
   @DF-RHF iter   1:  -463.44682518868740    5.62784e-01   9.08386e-04 DIIS
   @DF-RHF iter   2:  -463.79394429564400   -3.47119e-01   4.58557e-04 DIIS
   @DF-RHF iter   3:  -463.88556199559667   -9.16177e-02   9.08037e-05 DIIS
   @DF-RHF iter   4:  -463.89091560765360   -5.35361e-03   3.39537e-05 DIIS
   @DF-RHF iter   5:  -463.89150645471688   -5.90847e-04   8.30725e-06 DIIS
   @DF-RHF iter   6:  -463.89154852815943   -4.20734e-05   2.37326e-06 DIIS
   @DF-RHF iter   7:  -463.89155301200861   -4.48385e-06   7.51224e-07 DIIS
   @DF-RHF iter   8:  -463.89155373078665   -7.18778e-07   3.23316e-07 DIIS
   @DF-RHF iter   9:  -463.89155397899742   -2.48211e-07   1.65307e-07 DIIS
   @DF-RHF iter  10:  -463.89155405894803   -7.99506e-08   6.29929e-08 DIIS
   @DF-RHF iter  11:  -463.89155406977613   -1.08281e-08   1.85355e-08 DIIS
   @DF-RHF iter  12:  -463.89155407020718   -4.31044e-10   8.06589e-09 DIIS
   @DF-RHF iter  13:  -463.89155407025959   -5.24096e-11   2.22437e-09 DIIS
   @DF-RHF iter  14:  -463.89155407026965   -1.00613e-11   1.09430e-09 DIIS
   @DF-RHF iter  15:  -463.89155407026931    3.41061e-13   5.13987e-10 DIIS
   @DF-RHF iter  16:  -463.89155407027181   -2.50111e-12   2.14904e-10 DIIS
   @DF-RHF iter  17:  -463.89155407027067    1.13687e-12   8.53602e-11 DIIS
  Energy and wave function converged.


  ==> Post-Iterations <==

    Orbital Energies [Eh]
    ---------------------

    Doubly Occupied:                                                      

       1A    -11.235302     2A    -11.233254     3A    -11.230657  
       4A    -11.229374     5A    -11.229095     6A    -11.227739  
       7A    -11.227155     8A    -11.221011     9A    -11.216445  
      10A    -11.214732    11A    -11.214450    12A    -11.211454  
      13A     -1.159061    14A     -1.124857    15A     -1.041926  
      16A     -1.005176    17A     -0.989784    18A     -0.954643  
      19A     -0.892319    20A     -0.829839    21A     -0.812750  
      22A     -0.763395    23A     -0.759095    24A     -0.688445  
      25A     -0.660261    26A     -0.633033    27A     -0.623371  
      28A     -0.609741    29A     -0.586014    30A     -0.578591  
      31A     -0.569874    32A     -0.556343    33A     -0.528105  
      34A     -0.512274    35A     -0.511159    36A     -0.489525  
      37A     -0.474132    38A     -0.463071    39A     -0.461467  
      40A     -0.452707    41A     -0.450470    42A     -0.443329  
      43A     -0.331292    44A     -0.322688  

    Virtual:                                                              

      45A      0.027269    46A      0.030506    47A      0.031941  
      48A      0.035916    49A      0.041706    50A      0.043097  
      51A      0.049782    52A      0.053705    53A      0.056648  
      54A      0.059240    55A      0.060527    56A      0.071634  
      57A      0.075330    58A      0.078778    59A      0.082813  
      60A      0.088721    61A      0.096248    62A      0.102946  
      63A      0.104837    64A      0.108841    65A      0.111416  
      66A      0.113931    67A      0.117656    68A      0.119710  
      69A      0.121611    70A      0.124503    71A      0.128909  
      72A      0.131735    73A      0.133535    74A      0.136875  
      75A      0.143275    76A      0.144633    77A      0.145317  
      78A      0.149011    79A      0.151129    80A      0.153675  
      81A      0.157784    82A      0.160194    83A      0.162367  
      84A      0.166787    85A      0.169237    86A      0.172644  
      87A      0.174434    88A      0.180914    89A      0.184426  
      90A      0.187684    91A      0.190201    92A      0.195960  
      93A      0.198877    94A      0.206314    95A      0.212360  
      96A      0.216825    97A      0.222152    98A      0.228697  
      99A      0.234253   100A      0.237303   101A      0.238578  
     102A      0.246499   103A      0.249452   104A      0.256625  
     105A      0.261877   106A      0.262346   107A      0.266301  
     108A      0.270235   109A      0.272931   110A      0.278832  
     111A      0.288486   112A      0.291162   113A      0.294193  
     114A      0.299957   115A      0.305178   116A      0.307952  
     117A      0.308936   118A      0.313026   119A      0.316252  
     120A      0.319871   121A      0.324362   122A      0.326454  
     123A      0.329916   124A      0.335493   125A      0.336720  
     126A      0.341340   127A      0.346844   128A      0.349802  
     129A      0.353427   130A      0.358511   131A      0.362514  
     132A      0.363689   133A      0.365961   134A      0.368862  
     135A      0.372969   136A      0.376049   137A      0.380098  
     138A      0.385427   139A      0.386864   140A      0.392025  
     141A      0.394348   142A      0.398425   143A      0.400147  
     144A      0.404074   145A      0.407299   146A      0.416896  
     147A      0.421498   148A      0.426276   149A      0.428363  
     150A      0.433355   151A      0.435376   152A      0.437593  
     153A      0.441765   154A      0.447072   155A      0.448172  
     156A      0.452037   157A      0.456781   158A      0.461143  
     159A      0.463450   160A      0.464465   161A      0.472808  
     162A      0.477265   163A      0.480140   164A      0.481463  
     165A      0.486560   166A      0.487986   167A      0.489247  
     168A      0.492792   169A      0.498207   170A      0.500567  
     171A      0.503052   172A      0.505532   173A      0.508573  
     174A      0.511777   175A      0.513766   176A      0.519735  
     177A      0.521212   178A      0.524716   179A      0.528271  
     180A      0.530215   181A      0.532257   182A      0.540194  
     183A      0.540933   184A      0.543903   185A      0.546309  
     186A      0.551331   187A      0.552687   188A      0.553582  
     189A      0.560743   190A      0.564452   191A      0.566532  
     192A      0.571203   193A      0.572080   194A      0.579352  
     195A      0.584330   196A      0.588926   197A      0.594829  
     198A      0.597888   199A      0.598982   200A      0.602209  
     201A      0.604734   202A      0.612280   203A      0.615959  
     204A      0.620791   205A      0.624582   206A      0.630675  
     207A      0.634077   208A      0.637063   209A      0.640296  
     210A      0.644229   211A      0.649028   212A      0.656073  
     213A      0.657976   214A      0.663093   215A      0.672369  
     216A      0.675522   217A      0.678168   218A      0.682552  
     219A      0.689517   220A      0.694482   221A      0.698054  
     222A      0.700898   223A      0.703710   224A      0.706246  
     225A      0.709307   226A      0.717469   227A      0.720458  
     228A      0.726406   229A      0.732768   230A      0.735072  
     231A      0.742817   232A      0.745065   233A      0.752306  
     234A      0.754508   235A      0.760383   236A      0.769013  
     237A      0.778704   238A      0.782518   239A      0.790056  
     240A      0.792256   241A      0.796157   242A      0.804916  
     243A      0.815607   244A      0.824448   245A      0.828754  
     246A      0.836745   247A      0.838537   248A      0.843566  
     249A      0.849333   250A      0.858142   251A      0.861069  
     252A      0.864603   253A      0.870994   254A      0.873778  
     255A      0.876710   256A      0.882538   257A      0.891485  
     258A      0.893314   259A      0.895043   260A      0.899639  
     261A      0.905370   262A      0.908353   263A      0.908906  
     264A      0.912349   265A      0.918835   266A      0.920901  
     267A      0.927999   268A      0.932502   269A      0.935671  
     270A      0.940428   271A      0.942686   272A      0.949024  
     273A      0.951138   274A      0.955217   275A      0.964153  
     276A      0.965902   277A      0.968256   278A      0.976510  
     279A      0.978582   280A      0.987054   281A      0.992367  
     282A      0.995929   283A      0.998395   284A      1.000977  
     285A      1.002951   286A      1.011378   287A      1.014488  
     288A      1.019935   289A      1.023870   290A      1.029366  
     291A      1.030376   292A      1.037614   293A      1.042762  
     294A      1.044814   295A      1.048176   296A      1.056555  
     297A      1.060614   298A      1.061784   299A      1.071085  
     300A      1.074987   301A      1.078399   302A      1.082064  
     303A      1.086663   304A      1.091474   305A      1.093602  
     306A      1.097032   307A      1.106409   308A      1.110246  
     309A      1.113010   310A      1.117927   311A      1.125412  
     312A      1.126193   313A      1.126940   314A      1.132631  
     315A      1.138150   316A      1.144159   317A      1.149019  
     318A      1.152808   319A      1.152920   320A      1.156457  
     321A      1.160907   322A      1.166887   323A      1.173601  
     324A      1.175709   325A      1.180855   326A      1.184514  
     327A      1.187421   328A      1.193260   329A      1.195197  
     330A      1.197521   331A      1.203119   332A      1.205160  
     333A      1.209300   334A      1.215718   335A      1.222895  
     336A      1.227715   337A      1.231675   338A      1.235530  
     339A      1.237765   340A      1.249164   341A      1.255303  
     342A      1.259989   343A      1.266000   344A      1.271669  
     345A      1.273203   346A      1.279313   347A      1.280071  
     348A      1.286054   349A      1.297776   350A      1.299631  
     351A      1.306404   352A      1.310064   353A      1.317601  
     354A      1.319987   355A      1.324190   356A      1.333603  
     357A      1.342625   358A      1.345799   359A      1.350911  
     360A      1.356532   361A      1.358889   362A      1.368282  
     363A      1.370946   364A      1.375302   365A      1.383112  
     366A      1.391905   367A      1.396550   368A      1.402940  
     369A      1.404337   370A      1.410969   371A      1.417382  
     372A      1.419653   373A      1.423192   374A      1.428797  
     375A      1.439851   376A      1.448080   377A      1.449726  
     378A      1.454214   379A      1.464542   380A      1.467274  
     381A      1.472404   382A      1.476495   383A      1.484658  
     384A      1.487793   385A      1.496937   386A      1.504770  
     387A      1.513482   388A      1.516261   389A      1.520506  
     390A      1.523597   391A      1.532347   392A      1.537960  
     393A      1.549402   394A      1.552679   395A      1.558255  
     396A      1.571716   397A      1.574840   398A      1.581216  
     399A      1.585728   400A      1.597835   401A      1.602737  
     402A      1.604348   403A      1.613870   404A      1.620497  
     405A      1.630570   406A      1.635844   407A      1.638236  
     408A      1.643629   409A      1.656547   410A      1.664841  
     411A      1.670532   412A      1.681123   413A      1.684806  
     414A      1.687163   415A      1.699411   416A      1.703834  
     417A      1.709324   418A      1.711478   419A      1.718160  
     420A      1.725945   421A      1.730824   422A      1.736661  
     423A      1.737450   424A      1.744621   425A      1.747900  
     426A      1.750942   427A      1.757112   428A      1.764896  
     429A      1.768234   430A      1.778202   431A      1.780364  
     432A      1.783683   433A      1.786291   434A      1.793721  
     435A      1.806245   436A      1.809304   437A      1.813601  
     438A      1.819735   439A      1.833897   440A      1.835673  
     441A      1.841535   442A      1.846216   443A      1.853416  
     444A      1.856969   445A      1.864173   446A      1.866475  
     447A      1.876296   448A      1.885347   449A      1.889088  
     450A      1.893386   451A      1.901550   452A      1.904468  
     453A      1.907992   454A      1.909948   455A      1.914393  
     456A      1.924438   457A      1.931313   458A      1.942415  
     459A      1.948478   460A      1.952595   461A      1.955754  
     462A      1.958482   463A      1.967453   464A      1.969284  
     465A      1.982445   466A      1.995557   467A      1.998518  
     468A      2.001794   469A      2.017008   470A      2.018994  
     471A      2.024411   472A      2.027330   473A      2.033107  
     474A      2.040698   475A      2.042751   476A      2.048910  
     477A      2.054742   478A      2.058516   479A      2.060071  
     480A      2.064580   481A      2.071903   482A      2.077726  
     483A      2.079745   484A      2.086335   485A      2.091273  
     486A      2.101056   487A      2.114274   488A      2.116450  
     489A      2.120628   490A      2.124644   491A      2.133948  
     492A      2.143291   493A      2.149571   494A      2.158892  
     495A      2.165374   496A      2.168817   497A      2.182822  
     498A      2.190031   499A      2.196297   500A      2.206173  
     501A      2.210970   502A      2.218163   503A      2.227900  
     504A      2.232720   505A      2.238655   506A      2.243780  
     507A      2.258293   508A      2.260724   509A      2.268011  
     510A      2.271825   511A      2.277297   512A      2.286178  
     513A      2.286468   514A      2.294813   515A      2.314727  
     516A      2.319280   517A      2.328012   518A      2.343713  
     519A      2.348949   520A      2.357980   521A      2.366482  
     522A      2.371237   523A      2.379080   524A      2.391448  
     525A      2.398223   526A      2.405424   527A      2.410380  
     528A      2.413422   529A      2.421509   530A      2.429847  
     531A      2.442491   532A      2.446517   533A      2.451067  
     534A      2.467755   535A      2.470721   536A      2.478585  
     537A      2.490594   538A      2.497332   539A      2.502404  
     540A      2.515203   541A      2.524681   542A      2.541387  
     543A      2.544055   544A      2.563747   545A      2.577466  
     546A      2.583114   547A      2.586490   548A      2.593133  
     549A      2.604159   550A      2.615029   551A      2.627925  
     552A      2.635122   553A      2.644179   554A      2.656741  
     555A      2.661984   556A      2.678707   557A      2.681733  
     558A      2.698348   559A      2.715535   560A      2.726648  
     561A      2.734012   562A      2.749026   563A      2.770087  
     564A      2.776648   565A      2.796654   566A      2.811934  
     567A      2.835024   568A      2.842479   569A      2.861297  
     570A      2.882588   571A      2.902979   572A      2.920341  
     573A      2.971448   574A      2.988688   575A      3.037682  
     576A      3.080862   577A      3.100424   578A      3.124741  
     579A      3.141917   580A      3.199941   581A      3.203318  
     582A      3.226092   583A      3.232914   584A      3.249953  
     585A      3.266903   586A      3.305534   587A      3.330508  
     588A      3.345911   589A      3.358580   590A      3.375609  
     591A      3.380921   592A      3.383535   593A      3.392686  
     594A      3.411883   595A      3.435929   596A      3.446992  
     597A      3.461579   598A      3.464489   599A      3.473138  
     600A      3.482825   601A      3.489672   602A      3.493435  
     603A      3.507133   604A      3.508578   605A      3.526683  
     606A      3.531042   607A      3.545567   608A      3.552495  
     609A      3.560698   610A      3.571756   611A      3.578036  
     612A      3.586041   613A      3.589864   614A      3.597111  
     615A      3.600666   616A      3.615062   617A      3.623854  
     618A      3.631936   619A      3.644097   620A      3.651926  
     621A      3.656402   622A      3.663276   623A      3.668295  
     624A      3.675927   625A      3.685243   626A      3.695448  
     627A      3.714358   628A      3.717307   629A      3.728421  
     630A      3.732855   631A      3.738242   632A      3.757677  
     633A      3.763005   634A      3.782740   635A      3.784165  
     636A      3.789178   637A      3.794542   638A      3.800028  
     639A      3.815070   640A      3.816908   641A      3.823474  
     642A      3.842465   643A      3.852414   644A      3.857467  
     645A      3.858783   646A      3.859061   647A      3.865906  
     648A      3.878082   649A      3.890320   650A      3.897738  
     651A      3.899807   652A      3.905104   653A      3.909359  
     654A      3.914869   655A      3.924988   656A      3.936242  
     657A      3.943583   658A      3.954532   659A      3.960517  
     660A      3.961516   661A      3.978322   662A      3.980750  
     663A      3.988818   664A      3.997934   665A      4.002496  
     666A      4.005019   667A      4.012105   668A      4.015727  
     669A      4.027269   670A      4.032900   671A      4.037336  
     672A      4.042557   673A      4.047117   674A      4.053028  
     675A      4.061577   676A      4.069304   677A      4.072092  
     678A      4.079054   679A      4.085662   680A      4.101925  
     681A      4.111483   682A      4.116849   683A      4.122509  
     684A      4.131111   685A      4.142650   686A      4.148550  
     687A      4.162482   688A      4.163384   689A      4.171012  
     690A      4.177073   691A      4.191277   692A      4.194560  
     693A      4.203781   694A      4.217967   695A      4.218952  
     696A      4.227000   697A      4.241346   698A      4.249808  
     699A      4.250718   700A      4.258984   701A      4.262038  
     702A      4.269015   703A      4.271153   704A      4.282470  
     705A      4.295018   706A      4.301484   707A      4.305342  
     708A      4.320827   709A      4.323018   710A      4.324637  
     711A      4.333142   712A      4.336648   713A      4.352580  
     714A      4.357239   715A      4.365372   716A      4.369930  
     717A      4.377618   718A      4.384875   719A      4.394609  
     720A      4.409136   721A      4.417291   722A      4.426117  
     723A      4.435034   724A      4.453110   725A      4.455965  
     726A      4.468870   727A      4.475028   728A      4.480998  
     729A      4.483132   730A      4.499151   731A      4.512940  
     732A      4.515225   733A      4.523926   734A      4.528860  
     735A      4.538288   736A      4.541621   737A      4.554144  
     738A      4.561317   739A      4.575079   740A      4.580358  
     741A      4.596125   742A      4.601086   743A      4.606519  
     744A      4.619317   745A      4.630983   746A      4.634762  
     747A      4.653513   748A      4.663234   749A      4.669859  
     750A      4.672428   751A      4.687639   752A      4.692045  
     753A      4.698440   754A      4.725184   755A      4.734246  
     756A      4.745470   757A      4.755208   758A      4.758349  
     759A      4.766996   760A      4.775777   761A      4.782951  
     762A      4.795658   763A      4.804447   764A      4.828107  
     765A      4.837853   766A      4.840487   767A      4.849006  
     768A      4.863216   769A      4.872534   770A      4.880981  
     771A      4.890726   772A      4.909445   773A      4.916231  
     774A      4.928719   775A      4.935190   776A      4.941108  
     777A      4.955464   778A      4.963828   779A      4.973792  
     780A      4.986064   781A      5.001136   782A      5.004507  
     783A      5.013244   784A      5.030997   785A      5.033377  
     786A      5.044471   787A      5.062568   788A      5.070914  
     789A      5.086367   790A      5.089893   791A      5.101825  
     792A      5.103255   793A      5.117303   794A      5.120383  
     795A      5.130158   796A      5.141249   797A      5.147837  
     798A      5.155861   799A      5.159095   800A      5.173673  
     801A      5.181019   802A      5.184592   803A      5.191034  
     804A      5.205581   805A      5.212295   806A      5.224608  
     807A      5.231123   808A      5.243411   809A      5.250270  
     810A      5.270416   811A      5.278583   812A      5.290538  
     813A      5.304123   814A      5.311117   815A      5.320585  
     816A      5.332053   817A      5.336462   818A      5.343918  
     819A      5.354670   820A      5.365473   821A      5.370734  
     822A      5.376175   823A      5.407395   824A      5.412321  
     825A      5.419591   826A      5.421561   827A      5.425006  
     828A      5.433090   829A      5.464854   830A      5.471615  
     831A      5.494369   832A      5.497648   833A      5.507215  
     834A      5.519248   835A      5.530389   836A      5.544420  
     837A      5.553086   838A      5.571333   839A      5.588721  
     840A      5.591999   841A      5.596500   842A      5.611676  
     843A      5.628168   844A      5.641999   845A      5.654838  
     846A      5.661172   847A      5.676961   848A      5.706383  
     849A      5.714451   850A      5.722079   851A      5.745307  
     852A      5.761415   853A      5.771747   854A      5.779984  
     855A      5.790078   856A      5.804454   857A      5.826483  
     858A      5.841588   859A      5.864135   860A      5.878079  
     861A      5.886062   862A      5.910878   863A      5.917815  
     864A      5.933172   865A      5.945805   866A      5.962721  
     867A      5.986065   868A      6.018066   869A      6.029916  
     870A      6.048197   871A      6.068333   872A      6.082736  
     873A      6.146693   874A      6.172858   875A      6.199406  
     876A      6.208940   877A      6.219536   878A      6.229154  
     879A      6.252559   880A      6.271609   881A      6.291614  
     882A      6.317664   883A      6.333110   884A      6.348418  
     885A      6.369192   886A      6.393449   887A      6.428270  
     888A      6.472841   889A      6.485357   890A      6.509101  
     891A      6.564213   892A      6.598628   893A      6.654912  
     894A      6.702868   895A      6.736342   896A      6.815673  
     897A      6.849666   898A      6.885471   899A      6.907885  
     900A      6.938922   901A      6.946277   902A      7.003309  
     903A      7.040707   904A      7.051337   905A      7.107040  
     906A      7.135722   907A      7.198921   908A      7.342139  
     909A     16.551778   910A     16.650855   911A     18.046042  
     912A     18.539173   913A     18.987039   914A     19.230948  
     915A     19.309624   916A     19.914913   917A     20.016719  
     918A     20.296724   919A     20.666675   920A     21.779088  

    Final Occupation by Irrep:
              A 
    DOCC [    44 ]

  @DF-RHF Final Energy:  -463.89155407027067

   => Energetics <=

    Nuclear Repulsion Energy =            676.7279717693933208
    One-Electron Energy =               -1969.3002409836674360
    Two-Electron Energy =                 828.6807151440033294
    Total Energy =                       -463.8915540702706721

Computation Completed

*** tstop() called on c474-084.stampede2.tacc.utexas.edu at Fri Apr  2 12:25:45 2021
Module time:
	user time   =    1010.21 seconds =      16.84 minutes
	system time =      20.79 seconds =       0.35 minutes
	total time  =        156 seconds =       2.60 minutes
Total time:
	user time   =    1010.21 seconds =      16.84 minutes
	system time =      20.79 seconds =       0.35 minutes
	total time  =        156 seconds =       2.60 minutes
   => Loading Basis Set <=

    Name: (AUG-CC-PVTZ AUX)
    Role: RIFIT
    Keyword: DF_BASIS_MP2
    atoms 1-12  entry C          line   148 file /home1/07844/xy3866/miniconda3/envs/p4env/share/psi4/basis/aug-cc-pvtz-ri.gbs 
    atoms 13-28 entry H          line    30 file /home1/07844/xy3866/miniconda3/envs/p4env/share/psi4/basis/aug-cc-pvtz-ri.gbs 


*** tstart() called on c474-084.stampede2.tacc.utexas.edu
*** at Fri Apr  2 12:25:47 2021


  //>>>>>>>>>>>>>>>>>>>>>>>>>>>>>>>>>>>//
  //               DFMP2               //
  //<<<<<<<<<<<<<<<<<<<<<<<<<<<<<<<<<<<//

	 --------------------------------------------------------
	                          DF-MP2                         
	      2nd-Order Density-Fitted Moller-Plesset Theory     
	              RMP2 Wavefunction,   8 Threads             
	                                                         
	        Rob Parrish, Justin Turney, Andy Simmonett,      
	           Ed Hohenstein, and C. David Sherrill          
	 --------------------------------------------------------

   => Auxiliary Basis Set <=

  Basis Set: (AUG-CC-PVTZ AUX)
    Blend: AUG-CC-PVTZ-RI
    Number of shells: 560
    Number of basis functions: 2008
    Number of Cartesian functions: 2512
    Spherical Harmonics?: true
    Max angular momentum: 4

	 --------------------------------------------------------
	                 NBF =   920, NAUX =  2008
	 --------------------------------------------------------
	   CLASS    FOCC     OCC    AOCC    AVIR     VIR    FVIR
	   PAIRS       0      44      44     876     876       0
	 --------------------------------------------------------

  DFHelper Memory: AOs need 11.613 GiB; user supplied 22.352 GiB. Using in-core AOs.


         ------------------------------------------------------------
                                     CPHF                           
                                  Rob Parrish                       
         ------------------------------------------------------------

  ==> Geometry <==

    Molecular point group: c1
    Full point group: C1

    Geometry (in Angstrom), charge = 0, multiplicity = 1:

       Center              X                  Y                   Z               Mass       
    ------------   -----------------  -----------------  -----------------  -----------------
         C           -0.511184539590    -0.830569186084     0.213762848886    12.000000000000
         C           -2.823612539590    -0.230272186084    -0.272066151114    12.000000000000
         C           -1.441316539590    -0.336078186084    -0.917838151114    12.000000000000
         C           -1.214273539590    -0.373403186084     1.530605848886    12.000000000000
         C           -2.482506539590     0.374818813916     1.091749848886    12.000000000000
         C            0.907675460410    -0.344364186084     0.066227848886    12.000000000000
         C           -3.838229539590     0.563524813916    -1.082267151114    12.000000000000
         C            1.209943460410     1.022326813916     0.173213848886    12.000000000000
         C            1.916443560410    -1.204381186084    -0.189783051114    12.000000000000
         C            2.518301460410     1.481001813916     0.022959848886    12.000000000000
         C            3.266097460410    -0.782336186084    -0.352511151114    12.000000000000
         C            3.552353460410     0.578947813916    -0.242464151114    12.000000000000
         H           -0.492763539590    -1.927855186084     0.188986848886     1.007825032230
         H           -3.210049539590    -1.247940186084    -0.110524151114     1.007825032230
         H           -1.125925539590     0.662146813916    -1.250602151114     1.007825032230
         H           -1.413667539590    -0.993534186084    -1.794435151114     1.007825032230
         H           -0.554787539590     0.242531813916     2.149386848886     1.007825032230
         H           -1.480872539590    -1.251107186084     2.129593848886     1.007825032230
         H           -3.300977539590     0.296838813916     1.816277848886     1.007825032230
         H           -2.269441539590     1.444327813916     0.956119848886     1.007825032230
         H           -3.472357539590     1.581694813916    -1.255103151114     1.007825032230
         H           -4.019203539590     0.099804813916    -2.057272151114     1.007825032230
         H           -4.797495539590     0.633232813916    -0.559140151114     1.007825032230
         H            0.412652460410     1.735457813916     0.379693848886     1.007825032230
         H            1.738001460410    -2.300453186084    -0.283344151114     1.007825032230
         H            2.732452460410     2.543847813916     0.111776848886     1.007825032230
         H            4.064058460410    -1.492761186084    -0.556931151114     1.007825032230
         H            4.572810460410     0.935651813916    -0.359692151114     1.007825032230

  Nuclear repulsion =  676.727971769393434
  Reference energy  = -463.891554070270672

  ==> Basis Set <==

  Basis Set: AUG-CC-PVTZ
    Blend: AUG-CC-PVTZ
    Number of shells: 312
    Number of basis functions: 920
    Number of Cartesian functions: 1060
    Spherical Harmonics?: true
    Max angular momentum: 3

  ==> CGRSolver (by Rob Parrish) <==

   Number of roots    =         1
   Preconditioning    =    JACOBI
   Convergence cutoff =     1E-06
   Maximum iterations =       100

  ==> CPHFRHamiltonian (by Rob Parrish) <== 

  ==> MemDFJK: Density-Fitted J/K Matrices <==

    J tasked:                   Yes
    K tasked:                   Yes
    wK tasked:                   No
    OpenMP threads:               8
    Memory [MiB]:             22888
    Algorithm:                 Core
    Schwarz Cutoff:           1E-12
    Mask sparsity (%):       9.1822
    Fitting Condition:        1E-10

   => Auxiliary Basis Set <=

  Basis Set: (AUG-CC-PVTZ AUX)
    Blend: AUG-CC-PVTZ-JKFIT
    Number of shells: 584
    Number of basis functions: 1984
    Number of Cartesian functions: 2452
    Spherical Harmonics?: true
    Max angular momentum: 4

  ==> CPHF Iterations <==

  => Iterations <=

             Iter  Converged  Remaining    Residual
  CGR           1          0          1   8.202E-02
  CGR           2          0          1   1.657E-02
  CGR           3          0          1   7.936E-03
  CGR           4          0          1   4.702E-03
  CGR           5          0          1   1.875E-03
  CGR           6          0          1   6.288E-04
  CGR           7          0          1   1.846E-04
  CGR           8          0          1   5.863E-05
  CGR           9          0          1   2.902E-05
  CGR          10          0          1   1.348E-05
  CGR          11          0          1   6.165E-06
  CGR          12          0          1   1.493E-06
  CGR          13          1          0   5.134E-07

    CGRSolver converged.

	-----------------------------------------------------------
	 ==================> DF-MP2 Energies <==================== 
	-----------------------------------------------------------
	 Reference Energy          =    -463.8915540702706721 [Eh]
	 Singles Energy            =      -0.0000000000000000 [Eh]
	 Same-Spin Energy          =      -0.5193974195564178 [Eh]
	 Opposite-Spin Energy      =      -1.7264827338052180 [Eh]
	 Correlation Energy        =      -2.2458801533616359 [Eh]
	 Total Energy              =    -466.1374342236322832 [Eh]
	-----------------------------------------------------------
	 ================> DF-SCS-MP2 Energies <================== 
	-----------------------------------------------------------
	 SCS Same-Spin Scale       =       0.3333333333333333 [-]
	 SCS Opposite-Spin Scale   =       1.2000000000000000 [-]
	 SCS Same-Spin Energy      =      -0.1731324731854726 [Eh]
	 SCS Opposite-Spin Energy  =      -2.0717792805662616 [Eh]
	 SCS Correlation Energy    =      -2.2449117537517340 [Eh]
	 SCS Total Energy          =    -466.1364658240224230 [Eh]
	-----------------------------------------------------------



Properties will be evaluated at  -0.000000,  -0.000000,   0.000000 [a0]

Properties computed using the MP2 density matrix

  Nuclear Dipole Moment: [e a0]
     X:   -11.8286      Y:     0.9017      Z:    -0.4642

  Electronic Dipole Moment: [e a0]
     X:    11.6177      Y:    -0.9754      Z:     0.4779

  Dipole Moment: [e a0]
     X:    -0.2109      Y:    -0.0737      Z:     0.0137     Total:     0.2238

  Dipole Moment: [D]
     X:    -0.5360      Y:    -0.1873      Z:     0.0347     Total:     0.5689


*** tstop() called on c474-084.stampede2.tacc.utexas.edu at Fri Apr  2 12:36:31 2021
Module time:
	user time   =    4177.86 seconds =      69.63 minutes
	system time =      57.37 seconds =       0.96 minutes
	total time  =        644 seconds =      10.73 minutes
Total time:
	user time   =    5189.43 seconds =      86.49 minutes
	system time =      78.19 seconds =       1.30 minutes
	total time  =        802 seconds =      13.37 minutes

    Psi4 stopped on: Friday, 02 April 2021 12:36PM
    Psi4 wall time for execution: 0:13:23.51

*** Psi4 exiting successfully. Buy a developer a beer!
