
    -----------------------------------------------------------------------
          Psi4: An Open-Source Ab Initio Electronic Structure Package
                               Psi4 1.4a3.dev225 

                         Git: Rev {master} 7105e37 


    D. G. A. Smith, L. A. Burns, A. C. Simmonett, R. M. Parrish,
    M. C. Schieber, R. Galvelis, P. Kraus, H. Kruse, R. Di Remigio,
    A. Alenaizan, A. M. James, S. Lehtola, J. P. Misiewicz, M. Scheurer,
    R. A. Shaw, J. B. Schriber, Y. Xie, Z. L. Glick, D. A. Sirianni,
    J. S. O'Brien, J. M. Waldrop, A. Kumar, E. G. Hohenstein,
    B. P. Pritchard, B. R. Brooks, H. F. Schaefer III, A. Yu. Sokolov,
    K. Patkowski, A. E. DePrince III, U. Bozkaya, R. A. King,
    F. A. Evangelista, J. M. Turney, T. D. Crawford, C. D. Sherrill,
    J. Chem. Phys. 152(18) 184108 (2020). https://doi.org/10.1063/5.0006002

                            Additional Code Authors
    E. T. Seidl, C. L. Janssen, E. F. Valeev, M. L. Leininger,
    J. F. Gonthier, R. M. Richard, H. R. McAlexander, M. Saitow, X. Wang,
    P. Verma, and M. H. Lechner

             Previous Authors, Complete List of Code Contributors,
                       and Citations for Specific Modules
    https://github.com/psi4/psi4/blob/master/codemeta.json
    https://github.com/psi4/psi4/graphs/contributors
    http://psicode.org/psi4manual/master/introduction.html#citing-psifour

    -----------------------------------------------------------------------


    Psi4 started on: Monday, 08 March 2021 05:03AM

    Process ID: 65816
    Host:       c418-114.stampede2.tacc.utexas.edu
    PSIDATADIR: /home1/07844/xy3866/miniconda3/envs/p4env/share/psi4
    Memory:     500.0 MiB
    Threads:    32
    
  ==> Input File <==

--------------------------------------------------------------------------
#psi4
#
memory 32 gb

molecule  {
0 1
  C       -0.4426020    -0.8338200     0.2172010
  C       -2.7550300    -0.2335230    -0.2686280
  C       -1.3727340    -0.3393290    -0.9144000
  C       -1.1456910    -0.3766540     1.5340440
  C       -2.4139240     0.3715680     1.0951880
  C        0.9762580    -0.3476150     0.0696660
  C       -3.7696470     0.5602740    -1.0788290
  C        1.2785260     1.0190760     0.1766520
  C        2.0223850    -1.2394820    -0.1958260
  C        2.5868840     1.4777510     0.0263980
  C        3.3346800    -0.7855870    -0.3490730
  C        3.6209360     0.5756970    -0.2390260
  H       -0.4241810    -1.9311060     0.1924250
  H       -3.1414670    -1.2511910    -0.1070860
  H       -1.0573430     0.6588960    -1.2471640
  H       -1.3450850    -0.9967850    -1.7909970
  H       -0.4862050     0.2392810     2.1528250
  H       -1.4122900    -1.2543580     2.1330320
  H       -3.2323950     0.2935880     1.8197160
  H       -2.2008590     1.4410770     0.9595580
  H       -3.3982737     1.5893650    -1.1376371
  H       -3.9506210     0.0965540    -2.0538340
  H       -4.7289130     0.6299820    -0.5557020
  H        0.4812350     1.7322070     0.3831320
  H        1.8065840    -2.3037040    -0.2799060
  H        2.8010350     2.5405970     0.1152150
  H        4.1326410    -1.4960120    -0.5534930
  H        4.6413930     0.9324010    -0.3562540
units angstrom
no_reorient  #important for SAPT in psi4, default
symmetry c1  #important for SAPT in psi4, default
}

set PROPERTIES_ORIGIN ["COM"]
properties('MP2/aug-cc-pvtz', properties = ['dipole'])
--------------------------------------------------------------------------

  Memory set to  29.802 GiB by Python driver.
    SCF Algorithm Type (re)set to DF.

*** tstart() called on c418-114.stampede2.tacc.utexas.edu
*** at Mon Mar  8 05:03:20 2021

   => Loading Basis Set <=

    Name: AUG-CC-PVTZ
    Role: ORBITAL
    Keyword: BASIS
    atoms 1-12  entry C          line   239 file /home1/07844/xy3866/miniconda3/envs/p4env/share/psi4/basis/aug-cc-pvtz.gbs 
    atoms 13-28 entry H          line    40 file /home1/07844/xy3866/miniconda3/envs/p4env/share/psi4/basis/aug-cc-pvtz.gbs 


         ---------------------------------------------------------
                                   SCF
               by Justin Turney, Rob Parrish, Andy Simmonett
                          and Daniel G. A. Smith
                              RHF Reference
                       32 Threads,  30517 MiB Core
         ---------------------------------------------------------

  ==> Geometry <==

    Molecular point group: c1
    Full point group: C1

    Geometry (in Angstrom), charge = 0, multiplicity = 1:

       Center              X                  Y                   Z               Mass       
    ------------   -----------------  -----------------  -----------------  -----------------
         C           -0.514018891375    -0.828251040398     0.213755685917    12.000000000000
         C           -2.826446891375    -0.227954040398    -0.272073314083    12.000000000000
         C           -1.444150891375    -0.333760040398    -0.917845314083    12.000000000000
         C           -1.217107891375    -0.371085040398     1.530598685917    12.000000000000
         C           -2.485340891375     0.377136959602     1.091742685917    12.000000000000
         C            0.904841108625    -0.342046040398     0.066220685917    12.000000000000
         C           -3.841063891375     0.565842959602    -1.082274314083    12.000000000000
         C            1.207109108625     1.024644959602     0.173206685917    12.000000000000
         C            1.950968108625    -1.233913040398    -0.199271314083    12.000000000000
         C            2.515467108625     1.483319959602     0.022952685917    12.000000000000
         C            3.263263108625    -0.780018040398    -0.352518314083    12.000000000000
         C            3.549519108625     0.581265959602    -0.242471314083    12.000000000000
         H           -0.495597891375    -1.925537040398     0.188979685917     1.007825032230
         H           -3.212883891375    -1.245622040398    -0.110531314083     1.007825032230
         H           -1.128759891375     0.664464959602    -1.250609314083     1.007825032230
         H           -1.416501891375    -0.991216040398    -1.794442314083     1.007825032230
         H           -0.557621891375     0.244849959602     2.149379685917     1.007825032230
         H           -1.483706891375    -1.248789040398     2.129586685917     1.007825032230
         H           -3.303811891375     0.299156959602     1.816270685917     1.007825032230
         H           -2.272275891375     1.446645959602     0.956112685917     1.007825032230
         H           -3.469690591375     1.594933959602    -1.141082414083     1.007825032230
         H           -4.022037891375     0.102122959602    -2.057279314083     1.007825032230
         H           -4.800329891375     0.635550959602    -0.559147314083     1.007825032230
         H            0.409818108625     1.737775959602     0.379686685917     1.007825032230
         H            1.735167108625    -2.298135040398    -0.283351314083     1.007825032230
         H            2.729618108625     2.546165959602     0.111769685917     1.007825032230
         H            4.061224108625    -1.490443040398    -0.556938314083     1.007825032230
         H            4.569976108625     0.937969959602    -0.359699314083     1.007825032230

  Running in c1 symmetry.

  Rotational constants: A =      0.07841  B =      0.01606  C =      0.01572 [cm^-1]
  Rotational constants: A =   2350.66472  B =    481.46004  C =    471.15009 [MHz]
  Nuclear repulsion =  676.061175647946698

  Charge       = 0
  Multiplicity = 1
  Electrons    = 88
  Nalpha       = 44
  Nbeta        = 44

  ==> Algorithm <==

  SCF Algorithm Type is DF.
  DIIS enabled.
  MOM disabled.
  Fractional occupation disabled.
  Guess Type is SAD.
  Energy threshold   = 1.00e-10
  Density threshold  = 1.00e-10
  Integral threshold = 1.00e-12

  ==> Primary Basis <==

  Basis Set: AUG-CC-PVTZ
    Blend: AUG-CC-PVTZ
    Number of shells: 312
    Number of basis functions: 920
    Number of Cartesian functions: 1060
    Spherical Harmonics?: true
    Max angular momentum: 3

   => Loading Basis Set <=

    Name: (AUG-CC-PVTZ AUX)
    Role: JKFIT
    Keyword: DF_BASIS_SCF
    atoms 1-12  entry C          line   162 file /home1/07844/xy3866/miniconda3/envs/p4env/share/psi4/basis/aug-cc-pvtz-jkfit.gbs 
    atoms 13-28 entry H          line    70 file /home1/07844/xy3866/miniconda3/envs/p4env/share/psi4/basis/aug-cc-pvtz-jkfit.gbs 

  ==> Integral Setup <==

  DFHelper Memory: AOs need 11.138 GiB; user supplied 22.352 GiB. Using in-core AOs.

  ==> MemDFJK: Density-Fitted J/K Matrices <==

    J tasked:                   Yes
    K tasked:                   Yes
    wK tasked:                   No
    OpenMP threads:              32
    Memory [MiB]:             22888
    Algorithm:                 Core
    Schwarz Cutoff:           1E-12
    Mask sparsity (%):      14.1893
    Fitting Condition:        1E-10

   => Auxiliary Basis Set <=

  Basis Set: (AUG-CC-PVTZ AUX)
    Blend: AUG-CC-PVTZ-JKFIT
    Number of shells: 584
    Number of basis functions: 1984
    Number of Cartesian functions: 2452
    Spherical Harmonics?: true
    Max angular momentum: 4

  Minimum eigenvalue in the overlap matrix is 3.5395291864E-07.
  Reciprocal condition number of the overlap matrix is 1.3998749265E-08.
    Using symmetric orthogonalization.

  ==> Pre-Iterations <==

  SCF Guess: Superposition of Atomic Densities via on-the-fly atomic UHF (no occupation information).

   -------------------------
    Irrep   Nso     Nmo    
   -------------------------
     A        920     920 
   -------------------------
    Total     920     920
   -------------------------

  ==> Iterations <==

                           Total Energy        Delta E     RMS |[F,P]|

   @DF-RHF iter SAD:  -463.98090897570717   -4.63981e+02   0.00000e+00 
   @DF-RHF iter   1:  -463.45199341314299    5.28916e-01   9.04262e-04 DIIS
   @DF-RHF iter   2:  -463.79778645141323   -3.45793e-01   4.53128e-04 DIIS
   @DF-RHF iter   3:  -463.88713787109322   -8.93514e-02   8.95293e-05 DIIS
   @DF-RHF iter   4:  -463.89242745481556   -5.28958e-03   3.20035e-05 DIIS
   @DF-RHF iter   5:  -463.89295381893425   -5.26364e-04   8.03332e-06 DIIS
   @DF-RHF iter   6:  -463.89299204958922   -3.82307e-05   2.37192e-06 DIIS
   @DF-RHF iter   7:  -463.89299583479010   -3.78520e-06   6.81142e-07 DIIS
   @DF-RHF iter   8:  -463.89299626053037   -4.25740e-07   2.54758e-07 DIIS
   @DF-RHF iter   9:  -463.89299636947590   -1.08946e-07   1.32235e-07 DIIS
   @DF-RHF iter  10:  -463.89299641125098   -4.17751e-08   6.24491e-08 DIIS
   @DF-RHF iter  11:  -463.89299642203264   -1.07817e-08   2.03872e-08 DIIS
   @DF-RHF iter  12:  -463.89299642266798   -6.35339e-10   8.66240e-09 DIIS
   @DF-RHF iter  13:  -463.89299642273755   -6.95763e-11   2.00941e-09 DIIS
   @DF-RHF iter  14:  -463.89299642274284   -5.28644e-12   8.53961e-10 DIIS
   @DF-RHF iter  15:  -463.89299642274511   -2.27374e-12   3.83255e-10 DIIS
   @DF-RHF iter  16:  -463.89299642274636   -1.25056e-12   1.74116e-10 DIIS
   @DF-RHF iter  17:  -463.89299642274540    9.66338e-13   8.56520e-11 DIIS
  Energy and wave function converged.


  ==> Post-Iterations <==

    Orbital Energies [Eh]
    ---------------------

    Doubly Occupied:                                                      

       1A    -11.236483     2A    -11.233582     3A    -11.232839  
       4A    -11.228919     5A    -11.228431     6A    -11.228362  
       7A    -11.228104     8A    -11.220519     9A    -11.216794  
      10A    -11.215102    11A    -11.214640    12A    -11.211802  
      13A     -1.156015    14A     -1.124951    15A     -1.039753  
      16A     -1.008435    17A     -0.988669    18A     -0.953927  
      19A     -0.892213    20A     -0.826294    21A     -0.816153  
      22A     -0.763075    23A     -0.757227    24A     -0.689836  
      25A     -0.660854    26A     -0.634950    27A     -0.622501  
      28A     -0.605940    29A     -0.589050    30A     -0.580326  
      31A     -0.572729    32A     -0.556404    33A     -0.528712  
      34A     -0.510159    35A     -0.509844    36A     -0.489788  
      37A     -0.475281    38A     -0.462281    39A     -0.460609  
      40A     -0.454018    41A     -0.450739    42A     -0.443670  
      43A     -0.332339    44A     -0.318790  

    Virtual:                                                              

      45A      0.027273    46A      0.030513    47A      0.031949  
      48A      0.035937    49A      0.041715    50A      0.043129  
      51A      0.049722    52A      0.053809    53A      0.056585  
      54A      0.059219    55A      0.060481    56A      0.071642  
      57A      0.075301    58A      0.079063    59A      0.082627  
      60A      0.088676    61A      0.096274    62A      0.103502  
      63A      0.106805    64A      0.108690    65A      0.109327  
      66A      0.113683    67A      0.117542    68A      0.119962  
      69A      0.121572    70A      0.124366    71A      0.129142  
      72A      0.131610    73A      0.133495    74A      0.136564  
      75A      0.142761    76A      0.144409    77A      0.145434  
      78A      0.148735    79A      0.151290    80A      0.153754  
      81A      0.156884    82A      0.160722    83A      0.162392  
      84A      0.165557    85A      0.168921    86A      0.172716  
      87A      0.174379    88A      0.179979    89A      0.184812  
      90A      0.187825    91A      0.189896    92A      0.195606  
      93A      0.198959    94A      0.206862    95A      0.212769  
      96A      0.217131    97A      0.222774    98A      0.228848  
      99A      0.234263   100A      0.237601   101A      0.237913  
     102A      0.246010   103A      0.249228   104A      0.256209  
     105A      0.261504   106A      0.262755   107A      0.266364  
     108A      0.270664   109A      0.272085   110A      0.279471  
     111A      0.288780   112A      0.291412   113A      0.294480  
     114A      0.299599   115A      0.304243   116A      0.307821  
     117A      0.309071   118A      0.313140   119A      0.316005  
     120A      0.319610   121A      0.324950   122A      0.325968  
     123A      0.330136   124A      0.335044   125A      0.336380  
     126A      0.341052   127A      0.346145   128A      0.349563  
     129A      0.353181   130A      0.358190   131A      0.362275  
     132A      0.363717   133A      0.366014   134A      0.368302  
     135A      0.373467   136A      0.376001   137A      0.379985  
     138A      0.383952   139A      0.386708   140A      0.392571  
     141A      0.394944   142A      0.398137   143A      0.399873  
     144A      0.405350   145A      0.407847   146A      0.417506  
     147A      0.422373   148A      0.426742   149A      0.428197  
     150A      0.432728   151A      0.435963   152A      0.437496  
     153A      0.441981   154A      0.446979   155A      0.447952  
     156A      0.451698   157A      0.456306   158A      0.461520  
     159A      0.463879   160A      0.465754   161A      0.472522  
     162A      0.477590   163A      0.480975   164A      0.481507  
     165A      0.486230   166A      0.487885   167A      0.489172  
     168A      0.493956   169A      0.497561   170A      0.500590  
     171A      0.503409   172A      0.505820   173A      0.509583  
     174A      0.511952   175A      0.514631   176A      0.520535  
     177A      0.521731   178A      0.524762   179A      0.527237  
     180A      0.530175   181A      0.532647   182A      0.540426  
     183A      0.542754   184A      0.544302   185A      0.546237  
     186A      0.550293   187A      0.553007   188A      0.554363  
     189A      0.560833   190A      0.563930   191A      0.566908  
     192A      0.569557   193A      0.571292   194A      0.578101  
     195A      0.583996   196A      0.586837   197A      0.593667  
     198A      0.598074   199A      0.598489   200A      0.601992  
     201A      0.604962   202A      0.612349   203A      0.615109  
     204A      0.620689   205A      0.624586   206A      0.629950  
     207A      0.634075   208A      0.637790   209A      0.638654  
     210A      0.644761   211A      0.649347   212A      0.656608  
     213A      0.660338   214A      0.663226   215A      0.673512  
     216A      0.676031   217A      0.678888   218A      0.683625  
     219A      0.689010   220A      0.695447   221A      0.697196  
     222A      0.699086   223A      0.704161   224A      0.705730  
     225A      0.709692   226A      0.716695   227A      0.720987  
     228A      0.725314   229A      0.732213   230A      0.734213  
     231A      0.741579   232A      0.744757   233A      0.753273  
     234A      0.756078   235A      0.759190   236A      0.770431  
     237A      0.778434   238A      0.783064   239A      0.789138  
     240A      0.793648   241A      0.797057   242A      0.803332  
     243A      0.813401   244A      0.822698   245A      0.827762  
     246A      0.836034   247A      0.839557   248A      0.844247  
     249A      0.847545   250A      0.858179   251A      0.860630  
     252A      0.862483   253A      0.871131   254A      0.871692  
     255A      0.876346   256A      0.882092   257A      0.891194  
     258A      0.892279   259A      0.894590   260A      0.900050  
     261A      0.904240   262A      0.907377   263A      0.908927  
     264A      0.911438   265A      0.918291   266A      0.921869  
     267A      0.929371   268A      0.931098   269A      0.934862  
     270A      0.942682   271A      0.945196   272A      0.948264  
     273A      0.950468   274A      0.955056   275A      0.962307  
     276A      0.965015   277A      0.968267   278A      0.976907  
     279A      0.978125   280A      0.987044   281A      0.991443  
     282A      0.993934   283A      0.998132   284A      1.001081  
     285A      1.002028   286A      1.008231   287A      1.013488  
     288A      1.017596   289A      1.021783   290A      1.026520  
     291A      1.029792   292A      1.036812   293A      1.042596  
     294A      1.045464   295A      1.049440   296A      1.055565  
     297A      1.060238   298A      1.061629   299A      1.071334  
     300A      1.075997   301A      1.078470   302A      1.082508  
     303A      1.085358   304A      1.091531   305A      1.094249  
     306A      1.096530   307A      1.105095   308A      1.110713  
     309A      1.113218   310A      1.117164   311A      1.121903  
     312A      1.124510   313A      1.126832   314A      1.132909  
     315A      1.138005   316A      1.143716   317A      1.148197  
     318A      1.151356   319A      1.152410   320A      1.157269  
     321A      1.161568   322A      1.163644   323A      1.172759  
     324A      1.175797   325A      1.180161   326A      1.184970  
     327A      1.188886   328A      1.191536   329A      1.192331  
     330A      1.199045   331A      1.201051   332A      1.204874  
     333A      1.210433   334A      1.217667   335A      1.225268  
     336A      1.226496   337A      1.231400   338A      1.235987  
     339A      1.236706   340A      1.248261   341A      1.254979  
     342A      1.260434   343A      1.268939   344A      1.271173  
     345A      1.271706   346A      1.278809   347A      1.280893  
     348A      1.286204   349A      1.294904   350A      1.299399  
     351A      1.306436   352A      1.312153   353A      1.318106  
     354A      1.321006   355A      1.328020   356A      1.333182  
     357A      1.342990   358A      1.347372   359A      1.348645  
     360A      1.355756   361A      1.359007   362A      1.368632  
     363A      1.371502   364A      1.375613   365A      1.384335  
     366A      1.391466   367A      1.394572   368A      1.400859  
     369A      1.405385   370A      1.408016   371A      1.417438  
     372A      1.419029   373A      1.425207   374A      1.430404  
     375A      1.438736   376A      1.447976   377A      1.451351  
     378A      1.454516   379A      1.464144   380A      1.467514  
     381A      1.472072   382A      1.475172   383A      1.482904  
     384A      1.487020   385A      1.496227   386A      1.503527  
     387A      1.514609   388A      1.515015   389A      1.522844  
     390A      1.529879   391A      1.534953   392A      1.538113  
     393A      1.549507   394A      1.554801   395A      1.560010  
     396A      1.573514   397A      1.576014   398A      1.581372  
     399A      1.583460   400A      1.598048   401A      1.601113  
     402A      1.605494   403A      1.613332   404A      1.620855  
     405A      1.631094   406A      1.636591   407A      1.639269  
     408A      1.645928   409A      1.657333   410A      1.663999  
     411A      1.669522   412A      1.679157   413A      1.682069  
     414A      1.688756   415A      1.700051   416A      1.704865  
     417A      1.708578   418A      1.710343   419A      1.715169  
     420A      1.725415   421A      1.732547   422A      1.737664  
     423A      1.738508   424A      1.744593   425A      1.750529  
     426A      1.754451   427A      1.755987   428A      1.764923  
     429A      1.767900   430A      1.777748   431A      1.778790  
     432A      1.785492   433A      1.787152   434A      1.792261  
     435A      1.805985   436A      1.807084   437A      1.812141  
     438A      1.822496   439A      1.835059   440A      1.837078  
     441A      1.842253   442A      1.847186   443A      1.855049  
     444A      1.858769   445A      1.863693   446A      1.868434  
     447A      1.877385   448A      1.884548   449A      1.886718  
     450A      1.895159   451A      1.898365   452A      1.905046  
     453A      1.906534   454A      1.908563   455A      1.914057  
     456A      1.923783   457A      1.932825   458A      1.941282  
     459A      1.945239   460A      1.950152   461A      1.956022  
     462A      1.957387   463A      1.963702   464A      1.969101  
     465A      1.981677   466A      1.995065   467A      1.997815  
     468A      2.001857   469A      2.017546   470A      2.018569  
     471A      2.026794   472A      2.027865   473A      2.034335  
     474A      2.040868   475A      2.043651   476A      2.050757  
     477A      2.054402   478A      2.059116   479A      2.060688  
     480A      2.064190   481A      2.071660   482A      2.075767  
     483A      2.076796   484A      2.083964   485A      2.090313  
     486A      2.105389   487A      2.115270   488A      2.118702  
     489A      2.121017   490A      2.126878   491A      2.133793  
     492A      2.143645   493A      2.150579   494A      2.154643  
     495A      2.165140   496A      2.166910   497A      2.177421  
     498A      2.188275   499A      2.194702   500A      2.203064  
     501A      2.213000   502A      2.218035   503A      2.226145  
     504A      2.233696   505A      2.235564   506A      2.240443  
     507A      2.256879   508A      2.261729   509A      2.268953  
     510A      2.270662   511A      2.276251   512A      2.283715  
     513A      2.286475   514A      2.298319   515A      2.311100  
     516A      2.321488   517A      2.332780   518A      2.340928  
     519A      2.346119   520A      2.354892   521A      2.367590  
     522A      2.374422   523A      2.377873   524A      2.394510  
     525A      2.399144   526A      2.407900   527A      2.410615  
     528A      2.412388   529A      2.420431   530A      2.431069  
     531A      2.439776   532A      2.445350   533A      2.448981  
     534A      2.465058   535A      2.470328   536A      2.479035  
     537A      2.490466   538A      2.494776   539A      2.502513  
     540A      2.508290   541A      2.526110   542A      2.535999  
     543A      2.542085   544A      2.563561   545A      2.575624  
     546A      2.579824   547A      2.585501   548A      2.593080  
     549A      2.600982   550A      2.612346   551A      2.628620  
     552A      2.630923   553A      2.643129   554A      2.654397  
     555A      2.661609   556A      2.676695   557A      2.684097  
     558A      2.702888   559A      2.718082   560A      2.724738  
     561A      2.734449   562A      2.745638   563A      2.768393  
     564A      2.776701   565A      2.795338   566A      2.807385  
     567A      2.830084   568A      2.842622   569A      2.846374  
     570A      2.881991   571A      2.899491   572A      2.921529  
     573A      2.965557   574A      2.977983   575A      3.042111  
     576A      3.079034   577A      3.098310   578A      3.124443  
     579A      3.140020   580A      3.186979   581A      3.202587  
     582A      3.221756   583A      3.229777   584A      3.251900  
     585A      3.261509   586A      3.306260   587A      3.320750  
     588A      3.347532   589A      3.358267   590A      3.372611  
     591A      3.382869   592A      3.387474   593A      3.394486  
     594A      3.407331   595A      3.430718   596A      3.446308  
     597A      3.455978   598A      3.460381   599A      3.474274  
     600A      3.482124   601A      3.490463   602A      3.496217  
     603A      3.504442   604A      3.509942   605A      3.528414  
     606A      3.531307   607A      3.542672   608A      3.550930  
     609A      3.565372   610A      3.574466   611A      3.578848  
     612A      3.585595   613A      3.589582   614A      3.598430  
     615A      3.600576   616A      3.610778   617A      3.621481  
     618A      3.630752   619A      3.644085   620A      3.648772  
     621A      3.653878   622A      3.658938   623A      3.664369  
     624A      3.674544   625A      3.685909   626A      3.692547  
     627A      3.711273   628A      3.714783   629A      3.720087  
     630A      3.727029   631A      3.736375   632A      3.757766  
     633A      3.761400   634A      3.778547   635A      3.782595  
     636A      3.792483   637A      3.794769   638A      3.797609  
     639A      3.813298   640A      3.817151   641A      3.823134  
     642A      3.842166   643A      3.851792   644A      3.855113  
     645A      3.859203   646A      3.863795   647A      3.867052  
     648A      3.877705   649A      3.886270   650A      3.895035  
     651A      3.900369   652A      3.905269   653A      3.911093  
     654A      3.913283   655A      3.921961   656A      3.936837  
     657A      3.952959   658A      3.953974   659A      3.958976  
     660A      3.964216   661A      3.977877   662A      3.982018  
     663A      3.988052   664A      3.995841   665A      4.003382  
     666A      4.006085   667A      4.011764   668A      4.018138  
     669A      4.023883   670A      4.030470   671A      4.036437  
     672A      4.039580   673A      4.046636   674A      4.051320  
     675A      4.058812   676A      4.068444   677A      4.073444  
     678A      4.077385   679A      4.083397   680A      4.104390  
     681A      4.110259   682A      4.112153   683A      4.124662  
     684A      4.131229   685A      4.137664   686A      4.146828  
     687A      4.162010   688A      4.163572   689A      4.171362  
     690A      4.178525   691A      4.188774   692A      4.192248  
     693A      4.204701   694A      4.210570   695A      4.212231  
     696A      4.226681   697A      4.237830   698A      4.244862  
     699A      4.251047   700A      4.253234   701A      4.263391  
     702A      4.269219   703A      4.274611   704A      4.281542  
     705A      4.295829   706A      4.303408   707A      4.306613  
     708A      4.320492   709A      4.322515   710A      4.325554  
     711A      4.339408   712A      4.343118   713A      4.354717  
     714A      4.357783   715A      4.366101   716A      4.372898  
     717A      4.375980   718A      4.384067   719A      4.394705  
     720A      4.407744   721A      4.418620   722A      4.428052  
     723A      4.438424   724A      4.451379   725A      4.454778  
     726A      4.464452   727A      4.474031   728A      4.479646  
     729A      4.483255   730A      4.500265   731A      4.509753  
     732A      4.512711   733A      4.520675   734A      4.529121  
     735A      4.534875   736A      4.541304   737A      4.549127  
     738A      4.561593   739A      4.571187   740A      4.577987  
     741A      4.591818   742A      4.597770   743A      4.603057  
     744A      4.614816   745A      4.629452   746A      4.638540  
     747A      4.651276   748A      4.660094   749A      4.664360  
     750A      4.681224   751A      4.694043   752A      4.698492  
     753A      4.708687   754A      4.722782   755A      4.733826  
     756A      4.747735   757A      4.755020   758A      4.761109  
     759A      4.768389   760A      4.775496   761A      4.780478  
     762A      4.785436   763A      4.807074   764A      4.821707  
     765A      4.832551   766A      4.837272   767A      4.844827  
     768A      4.862582   769A      4.875312   770A      4.877910  
     771A      4.893769   772A      4.903178   773A      4.909980  
     774A      4.930057   775A      4.932074   776A      4.940773  
     777A      4.950648   778A      4.964638   779A      4.973928  
     780A      4.989480   781A      4.996612   782A      5.010424  
     783A      5.012296   784A      5.023594   785A      5.031846  
     786A      5.042868   787A      5.063723   788A      5.074600  
     789A      5.081527   790A      5.092248   791A      5.105878  
     792A      5.109582   793A      5.114568   794A      5.127714  
     795A      5.130566   796A      5.135907   797A      5.148036  
     798A      5.153893   799A      5.162463   800A      5.177546  
     801A      5.181692   802A      5.184121   803A      5.186819  
     804A      5.204066   805A      5.205546   806A      5.228536  
     807A      5.233600   808A      5.245632   809A      5.261109  
     810A      5.267109   811A      5.276491   812A      5.285763  
     813A      5.301192   814A      5.311740   815A      5.317709  
     816A      5.335663   817A      5.337925   818A      5.345453  
     819A      5.351415   820A      5.358913   821A      5.364164  
     822A      5.370702   823A      5.399288   824A      5.409698  
     825A      5.411121   826A      5.419830   827A      5.425253  
     828A      5.434909   829A      5.464738   830A      5.473342  
     831A      5.492040   832A      5.494052   833A      5.502975  
     834A      5.518169   835A      5.533873   836A      5.544617  
     837A      5.556462   838A      5.565080   839A      5.585312  
     840A      5.591853   841A      5.593411   842A      5.613183  
     843A      5.619134   844A      5.650814   845A      5.658583  
     846A      5.665950   847A      5.684402   848A      5.712321  
     849A      5.723308   850A      5.731496   851A      5.746640  
     852A      5.758578   853A      5.771300   854A      5.781164  
     855A      5.804514   856A      5.809298   857A      5.821630  
     858A      5.840720   859A      5.868161   860A      5.871557  
     861A      5.883787   862A      5.909244   863A      5.918903  
     864A      5.932447   865A      5.957451   866A      5.963900  
     867A      5.998052   868A      6.021404   869A      6.028303  
     870A      6.046396   871A      6.076449   872A      6.090825  
     873A      6.138528   874A      6.176982   875A      6.198837  
     876A      6.208533   877A      6.215840   878A      6.228309  
     879A      6.239667   880A      6.273877   881A      6.295020  
     882A      6.314398   883A      6.337866   884A      6.343557  
     885A      6.367693   886A      6.389255   887A      6.426559  
     888A      6.476540   889A      6.501411   890A      6.509410  
     891A      6.559950   892A      6.608474   893A      6.649585  
     894A      6.693816   895A      6.730979   896A      6.804282  
     897A      6.831142   898A      6.886798   899A      6.910629  
     900A      6.943544   901A      6.951968   902A      7.005291  
     903A      7.039992   904A      7.044878   905A      7.106127  
     906A      7.135042   907A      7.199075   908A      7.338147  
     909A     16.309869   910A     16.617108   911A     18.075246  
     912A     18.568847   913A     18.946024   914A     19.262459  
     915A     19.321475   916A     19.819065   917A     19.899094  
     918A     20.301659   919A     20.698542   920A     21.629874  

    Final Occupation by Irrep:
              A 
    DOCC [    44 ]

  @DF-RHF Final Energy:  -463.89299642274540

   => Energetics <=

    Nuclear Repulsion Energy =            676.0611756479466976
    One-Electron Energy =               -1967.9661251809438909
    Two-Electron Energy =                 828.0119531102518522
    Total Energy =                       -463.8929964227454548

Computation Completed

*** tstop() called on c418-114.stampede2.tacc.utexas.edu at Mon Mar  8 05:04:35 2021
Module time:
	user time   =    1516.70 seconds =      25.28 minutes
	system time =      80.16 seconds =       1.34 minutes
	total time  =         75 seconds =       1.25 minutes
Total time:
	user time   =    1516.70 seconds =      25.28 minutes
	system time =      80.16 seconds =       1.34 minutes
	total time  =         75 seconds =       1.25 minutes
   => Loading Basis Set <=

    Name: (AUG-CC-PVTZ AUX)
    Role: RIFIT
    Keyword: DF_BASIS_MP2
    atoms 1-12  entry C          line   148 file /home1/07844/xy3866/miniconda3/envs/p4env/share/psi4/basis/aug-cc-pvtz-ri.gbs 
    atoms 13-28 entry H          line    30 file /home1/07844/xy3866/miniconda3/envs/p4env/share/psi4/basis/aug-cc-pvtz-ri.gbs 


*** tstart() called on c418-114.stampede2.tacc.utexas.edu
*** at Mon Mar  8 05:04:37 2021


  //>>>>>>>>>>>>>>>>>>>>>>>>>>>>>>>>>>>//
  //               DFMP2               //
  //<<<<<<<<<<<<<<<<<<<<<<<<<<<<<<<<<<<//

	 --------------------------------------------------------
	                          DF-MP2                         
	      2nd-Order Density-Fitted Moller-Plesset Theory     
	              RMP2 Wavefunction,  32 Threads             
	                                                         
	        Rob Parrish, Justin Turney, Andy Simmonett,      
	           Ed Hohenstein, and C. David Sherrill          
	 --------------------------------------------------------

   => Auxiliary Basis Set <=

  Basis Set: (AUG-CC-PVTZ AUX)
    Blend: AUG-CC-PVTZ-RI
    Number of shells: 560
    Number of basis functions: 2008
    Number of Cartesian functions: 2512
    Spherical Harmonics?: true
    Max angular momentum: 4

	 --------------------------------------------------------
	                 NBF =   920, NAUX =  2008
	 --------------------------------------------------------
	   CLASS    FOCC     OCC    AOCC    AVIR     VIR    FVIR
	   PAIRS       0      44      44     876     876       0
	 --------------------------------------------------------

  DFHelper Memory: AOs need 11.763 GiB; user supplied 22.352 GiB. Using in-core AOs.


         ------------------------------------------------------------
                                     CPHF                           
                                  Rob Parrish                       
         ------------------------------------------------------------

  ==> Geometry <==

    Molecular point group: c1
    Full point group: C1

    Geometry (in Angstrom), charge = 0, multiplicity = 1:

       Center              X                  Y                   Z               Mass       
    ------------   -----------------  -----------------  -----------------  -----------------
         C           -0.514018891375    -0.828251040398     0.213755685917    12.000000000000
         C           -2.826446891375    -0.227954040398    -0.272073314083    12.000000000000
         C           -1.444150891375    -0.333760040398    -0.917845314083    12.000000000000
         C           -1.217107891375    -0.371085040398     1.530598685917    12.000000000000
         C           -2.485340891375     0.377136959602     1.091742685917    12.000000000000
         C            0.904841108625    -0.342046040398     0.066220685917    12.000000000000
         C           -3.841063891375     0.565842959602    -1.082274314083    12.000000000000
         C            1.207109108625     1.024644959602     0.173206685917    12.000000000000
         C            1.950968108625    -1.233913040398    -0.199271314083    12.000000000000
         C            2.515467108625     1.483319959602     0.022952685917    12.000000000000
         C            3.263263108625    -0.780018040398    -0.352518314083    12.000000000000
         C            3.549519108625     0.581265959602    -0.242471314083    12.000000000000
         H           -0.495597891375    -1.925537040398     0.188979685917     1.007825032230
         H           -3.212883891375    -1.245622040398    -0.110531314083     1.007825032230
         H           -1.128759891375     0.664464959602    -1.250609314083     1.007825032230
         H           -1.416501891375    -0.991216040398    -1.794442314083     1.007825032230
         H           -0.557621891375     0.244849959602     2.149379685917     1.007825032230
         H           -1.483706891375    -1.248789040398     2.129586685917     1.007825032230
         H           -3.303811891375     0.299156959602     1.816270685917     1.007825032230
         H           -2.272275891375     1.446645959602     0.956112685917     1.007825032230
         H           -3.469690591375     1.594933959602    -1.141082414083     1.007825032230
         H           -4.022037891375     0.102122959602    -2.057279314083     1.007825032230
         H           -4.800329891375     0.635550959602    -0.559147314083     1.007825032230
         H            0.409818108625     1.737775959602     0.379686685917     1.007825032230
         H            1.735167108625    -2.298135040398    -0.283351314083     1.007825032230
         H            2.729618108625     2.546165959602     0.111769685917     1.007825032230
         H            4.061224108625    -1.490443040398    -0.556938314083     1.007825032230
         H            4.569976108625     0.937969959602    -0.359699314083     1.007825032230

  Nuclear repulsion =  676.061175647946698
  Reference energy  = -463.892996422745398

  ==> Basis Set <==

  Basis Set: AUG-CC-PVTZ
    Blend: AUG-CC-PVTZ
    Number of shells: 312
    Number of basis functions: 920
    Number of Cartesian functions: 1060
    Spherical Harmonics?: true
    Max angular momentum: 3

  ==> CGRSolver (by Rob Parrish) <==

   Number of roots    =         1
   Preconditioning    =    JACOBI
   Convergence cutoff =     1E-06
   Maximum iterations =       100

  ==> CPHFRHamiltonian (by Rob Parrish) <== 

  ==> MemDFJK: Density-Fitted J/K Matrices <==

    J tasked:                   Yes
    K tasked:                   Yes
    wK tasked:                   No
    OpenMP threads:              32
    Memory [MiB]:             22888
    Algorithm:                 Core
    Schwarz Cutoff:           1E-12
    Mask sparsity (%):       9.1905
    Fitting Condition:        1E-10

   => Auxiliary Basis Set <=

  Basis Set: (AUG-CC-PVTZ AUX)
    Blend: AUG-CC-PVTZ-JKFIT
    Number of shells: 584
    Number of basis functions: 1984
    Number of Cartesian functions: 2452
    Spherical Harmonics?: true
    Max angular momentum: 4

  ==> CPHF Iterations <==

  => Iterations <=

             Iter  Converged  Remaining    Residual
  CGR           1          0          1   8.141E-02
  CGR           2          0          1   1.610E-02
  CGR           3          0          1   6.948E-03
  CGR           4          0          1   4.112E-03
  CGR           5          0          1   1.882E-03
  CGR           6          0          1   6.820E-04
  CGR           7          0          1   1.992E-04
  CGR           8          0          1   5.369E-05
  CGR           9          0          1   1.885E-05
  CGR          10          0          1   8.261E-06
  CGR          11          0          1   4.713E-06
  CGR          12          0          1   1.375E-06
  CGR          13          1          0   4.910E-07

    CGRSolver converged.

	-----------------------------------------------------------
	 ==================> DF-MP2 Energies <==================== 
	-----------------------------------------------------------
	 Reference Energy          =    -463.8929964227453979 [Eh]
	 Singles Energy            =      -0.0000000000000000 [Eh]
	 Same-Spin Energy          =      -0.5196465545671707 [Eh]
	 Opposite-Spin Energy      =      -1.7266465580488761 [Eh]
	 Correlation Energy        =      -2.2462931126160468 [Eh]
	 Total Energy              =    -466.1392895353614563 [Eh]
	-----------------------------------------------------------
	 ================> DF-SCS-MP2 Energies <================== 
	-----------------------------------------------------------
	 SCS Same-Spin Scale       =       0.3333333333333333 [-]
	 SCS Opposite-Spin Scale   =       1.2000000000000000 [-]
	 SCS Same-Spin Energy      =      -0.1732155181890569 [Eh]
	 SCS Opposite-Spin Energy  =      -2.0719758696586514 [Eh]
	 SCS Correlation Energy    =      -2.2451913878477083 [Eh]
	 SCS Total Energy          =    -466.1381878105930809 [Eh]
	-----------------------------------------------------------



Properties will be evaluated at  -0.000000,  -0.000000,  -0.000000 [a0]

Properties computed using the MP2 density matrix

  Nuclear Dipole Moment: [e a0]
     X:   -11.8659      Y:     0.9467      Z:    -0.3575

  Electronic Dipole Moment: [e a0]
     X:    11.6386      Y:    -1.0309      Z:     0.3826

  Dipole Moment: [e a0]
     X:    -0.2273      Y:    -0.0842      Z:     0.0252     Total:     0.2437

  Dipole Moment: [D]
     X:    -0.5777      Y:    -0.2140      Z:     0.0640     Total:     0.6194


*** tstop() called on c418-114.stampede2.tacc.utexas.edu at Mon Mar  8 05:12:04 2021
Module time:
	user time   =    5027.37 seconds =      83.79 minutes
	system time =      91.44 seconds =       1.52 minutes
	total time  =        447 seconds =       7.45 minutes
Total time:
	user time   =    6545.46 seconds =     109.09 minutes
	system time =     171.63 seconds =       2.86 minutes
	total time  =        524 seconds =       8.73 minutes

    Psi4 stopped on: Monday, 08 March 2021 05:12AM
    Psi4 wall time for execution: 0:08:46.33

*** Psi4 exiting successfully. Buy a developer a beer!
