
    -----------------------------------------------------------------------
          Psi4: An Open-Source Ab Initio Electronic Structure Package
                               Psi4 1.4a3.dev225 

                         Git: Rev {master} 7105e37 


    D. G. A. Smith, L. A. Burns, A. C. Simmonett, R. M. Parrish,
    M. C. Schieber, R. Galvelis, P. Kraus, H. Kruse, R. Di Remigio,
    A. Alenaizan, A. M. James, S. Lehtola, J. P. Misiewicz, M. Scheurer,
    R. A. Shaw, J. B. Schriber, Y. Xie, Z. L. Glick, D. A. Sirianni,
    J. S. O'Brien, J. M. Waldrop, A. Kumar, E. G. Hohenstein,
    B. P. Pritchard, B. R. Brooks, H. F. Schaefer III, A. Yu. Sokolov,
    K. Patkowski, A. E. DePrince III, U. Bozkaya, R. A. King,
    F. A. Evangelista, J. M. Turney, T. D. Crawford, C. D. Sherrill,
    J. Chem. Phys. 152(18) 184108 (2020). https://doi.org/10.1063/5.0006002

                            Additional Code Authors
    E. T. Seidl, C. L. Janssen, E. F. Valeev, M. L. Leininger,
    J. F. Gonthier, R. M. Richard, H. R. McAlexander, M. Saitow, X. Wang,
    P. Verma, and M. H. Lechner

             Previous Authors, Complete List of Code Contributors,
                       and Citations for Specific Modules
    https://github.com/psi4/psi4/blob/master/codemeta.json
    https://github.com/psi4/psi4/graphs/contributors
    http://psicode.org/psi4manual/master/introduction.html#citing-psifour

    -----------------------------------------------------------------------


    Psi4 started on: Sunday, 07 March 2021 02:32PM

    Process ID: 241859
    Host:       c418-114.stampede2.tacc.utexas.edu
    PSIDATADIR: /home1/07844/xy3866/miniconda3/envs/p4env/share/psi4
    Memory:     500.0 MiB
    Threads:    32
    
  ==> Input File <==

--------------------------------------------------------------------------
#psi4
#
memory 32 gb

molecule  {
0 1
  C       -0.4426020    -0.8338200     0.2172010
  C       -2.7550300    -0.2335230    -0.2686280
  C       -1.3727340    -0.3393290    -0.9144000
  C       -1.1456910    -0.3766540     1.5340440
  C       -2.4139240     0.3715680     1.0951880
  C        0.9762580    -0.3476150     0.0696660
  C       -3.7696470     0.5602740    -1.0788290
  C        1.2785260     1.0190760     0.1766520
  C        2.0223850    -1.2394820    -0.1958260
  C        2.5868840     1.4777510     0.0263980
  C        3.3346800    -0.7855870    -0.3490730
  C        3.6209360     0.5756970    -0.2390260
  H       -0.4241810    -1.9311060     0.1924250
  H       -3.1414670    -1.2511910    -0.1070860
  H       -1.0573430     0.6588960    -1.2471640
  H       -1.3450850    -0.9967850    -1.7909970
  H       -0.4862050     0.2392810     2.1528250
  H       -1.4122900    -1.2543580     2.1330320
  H       -3.2323950     0.2935880     1.8197160
  H       -2.2008590     1.4410770     0.9595580
  H       -3.4037750     1.5784440    -1.2516650
  H       -3.9506210     0.0965540    -2.0538340
  H       -4.7289130     0.6299820    -0.5557020
  H        0.4812350     1.7322070     0.3831320
  H        1.8065840    -2.3037040    -0.2799060
  H        2.7616631     2.3451917     0.0988859
  H        4.1326410    -1.4960120    -0.5534930
  H        4.6413930     0.9324010    -0.3562540
units angstrom
no_reorient  #important for SAPT in psi4, default
symmetry c1  #important for SAPT in psi4, default
}

set PROPERTIES_ORIGIN ["COM"]
properties('MP2/aug-cc-pvtz', properties = ['dipole'])
--------------------------------------------------------------------------

  Memory set to  29.802 GiB by Python driver.
    SCF Algorithm Type (re)set to DF.

*** tstart() called on c418-114.stampede2.tacc.utexas.edu
*** at Sun Mar  7 14:32:07 2021

   => Loading Basis Set <=

    Name: AUG-CC-PVTZ
    Role: ORBITAL
    Keyword: BASIS
    atoms 1-12  entry C          line   239 file /home1/07844/xy3866/miniconda3/envs/p4env/share/psi4/basis/aug-cc-pvtz.gbs 
    atoms 13-28 entry H          line    40 file /home1/07844/xy3866/miniconda3/envs/p4env/share/psi4/basis/aug-cc-pvtz.gbs 


         ---------------------------------------------------------
                                   SCF
               by Justin Turney, Rob Parrish, Andy Simmonett
                          and Daniel G. A. Smith
                              RHF Reference
                       32 Threads,  30517 MiB Core
         ---------------------------------------------------------

  ==> Geometry <==

    Molecular point group: c1
    Full point group: C1

    Geometry (in Angstrom), charge = 0, multiplicity = 1:

       Center              X                  Y                   Z               Mass       
    ------------   -----------------  -----------------  -----------------  -----------------
         C           -0.513736460289    -0.826952426505     0.214576150449    12.000000000000
         C           -2.826164460289    -0.226655426505    -0.271252849551    12.000000000000
         C           -1.443868460289    -0.332461426505    -0.917024849551    12.000000000000
         C           -1.216825460289    -0.369786426505     1.531419150449    12.000000000000
         C           -2.485058460289     0.378435573495     1.092563150449    12.000000000000
         C            0.905123539711    -0.340747426505     0.067041150449    12.000000000000
         C           -3.840781460289     0.567141573495    -1.081453849551    12.000000000000
         C            1.207391539711     1.025943573495     0.174027150449    12.000000000000
         C            1.951250539711    -1.232614426505    -0.198450849551    12.000000000000
         C            2.515749539711     1.484618573495     0.023773150449    12.000000000000
         C            3.263545539711    -0.778719426505    -0.351697849551    12.000000000000
         C            3.549801539711     0.582564573495    -0.241650849551    12.000000000000
         H           -0.495315460289    -1.924238426505     0.189800150449     1.007825032230
         H           -3.212601460289    -1.244323426505    -0.109710849551     1.007825032230
         H           -1.128477460289     0.665763573495    -1.249788849551     1.007825032230
         H           -1.416219460289    -0.989917426505    -1.793621849551     1.007825032230
         H           -0.557339460289     0.246148573495     2.150200150449     1.007825032230
         H           -1.483424460289    -1.247490426505     2.130407150449     1.007825032230
         H           -3.303529460289     0.300455573495     1.817091150449     1.007825032230
         H           -2.271993460289     1.447944573495     0.956933150449     1.007825032230
         H           -3.474909460289     1.585311573495    -1.254289849551     1.007825032230
         H           -4.021755460289     0.103421573495    -2.056458849551     1.007825032230
         H           -4.800047460289     0.636849573495    -0.558326849551     1.007825032230
         H            0.410100539711     1.739074573495     0.380507150449     1.007825032230
         H            1.735449539711    -2.296836426505    -0.282530849551     1.007825032230
         H            2.690528639711     2.352059273495     0.096261050449     1.007825032230
         H            4.061506539711    -1.489144426505    -0.556117849551     1.007825032230
         H            4.570258539711     0.939268573495    -0.358878849551     1.007825032230

  Running in c1 symmetry.

  Rotational constants: A =      0.07867  B =      0.01606  C =      0.01573 [cm^-1]
  Rotational constants: A =   2358.56272  B =    481.41857  C =    471.66860 [MHz]
  Nuclear repulsion =  677.122193580946941

  Charge       = 0
  Multiplicity = 1
  Electrons    = 88
  Nalpha       = 44
  Nbeta        = 44

  ==> Algorithm <==

  SCF Algorithm Type is DF.
  DIIS enabled.
  MOM disabled.
  Fractional occupation disabled.
  Guess Type is SAD.
  Energy threshold   = 1.00e-10
  Density threshold  = 1.00e-10
  Integral threshold = 1.00e-12

  ==> Primary Basis <==

  Basis Set: AUG-CC-PVTZ
    Blend: AUG-CC-PVTZ
    Number of shells: 312
    Number of basis functions: 920
    Number of Cartesian functions: 1060
    Spherical Harmonics?: true
    Max angular momentum: 3

   => Loading Basis Set <=

    Name: (AUG-CC-PVTZ AUX)
    Role: JKFIT
    Keyword: DF_BASIS_SCF
    atoms 1-12  entry C          line   162 file /home1/07844/xy3866/miniconda3/envs/p4env/share/psi4/basis/aug-cc-pvtz-jkfit.gbs 
    atoms 13-28 entry H          line    70 file /home1/07844/xy3866/miniconda3/envs/p4env/share/psi4/basis/aug-cc-pvtz-jkfit.gbs 

  ==> Integral Setup <==

  DFHelper Memory: AOs need 11.146 GiB; user supplied 22.352 GiB. Using in-core AOs.

  ==> MemDFJK: Density-Fitted J/K Matrices <==

    J tasked:                   Yes
    K tasked:                   Yes
    wK tasked:                   No
    OpenMP threads:              32
    Memory [MiB]:             22888
    Algorithm:                 Core
    Schwarz Cutoff:           1E-12
    Mask sparsity (%):      14.1238
    Fitting Condition:        1E-10

   => Auxiliary Basis Set <=

  Basis Set: (AUG-CC-PVTZ AUX)
    Blend: AUG-CC-PVTZ-JKFIT
    Number of shells: 584
    Number of basis functions: 1984
    Number of Cartesian functions: 2452
    Spherical Harmonics?: true
    Max angular momentum: 4

  Minimum eigenvalue in the overlap matrix is 2.7157360851E-07.
  Reciprocal condition number of the overlap matrix is 1.0738478157E-08.
    Using symmetric orthogonalization.

  ==> Pre-Iterations <==

  SCF Guess: Superposition of Atomic Densities via on-the-fly atomic UHF (no occupation information).

   -------------------------
    Irrep   Nso     Nmo    
   -------------------------
     A        920     920 
   -------------------------
    Total     920     920
   -------------------------

  ==> Iterations <==

                           Total Energy        Delta E     RMS |[F,P]|

   @DF-RHF iter SAD:  -464.02913495638239   -4.64029e+02   0.00000e+00 
   @DF-RHF iter   1:  -463.41995096588062    6.09184e-01   9.04897e-04 DIIS
   @DF-RHF iter   2:  -463.76795318617962   -3.48002e-01   4.45934e-04 DIIS
   @DF-RHF iter   3:  -463.85396362251839   -8.60104e-02   8.96367e-05 DIIS
   @DF-RHF iter   4:  -463.85925879898207   -5.29518e-03   3.18784e-05 DIIS
   @DF-RHF iter   5:  -463.85978914514669   -5.30346e-04   7.96724e-06 DIIS
   @DF-RHF iter   6:  -463.85982915059543   -4.00054e-05   2.53852e-06 DIIS
   @DF-RHF iter   7:  -463.85983430951541   -5.15892e-06   9.13278e-07 DIIS
   @DF-RHF iter   8:  -463.85983545235342   -1.14284e-06   4.51002e-07 DIIS
   @DF-RHF iter   9:  -463.85983591757247   -4.65219e-07   2.18874e-07 DIIS
   @DF-RHF iter  10:  -463.85983604178261   -1.24210e-07   7.94334e-08 DIIS
   @DF-RHF iter  11:  -463.85983605401242   -1.22298e-08   2.21857e-08 DIIS
   @DF-RHF iter  12:  -463.85983605455436   -5.41945e-10   9.88489e-09 DIIS
   @DF-RHF iter  13:  -463.85983605463036   -7.59997e-11   2.44378e-09 DIIS
   @DF-RHF iter  14:  -463.85983605463952   -9.15179e-12   1.02021e-09 DIIS
   @DF-RHF iter  15:  -463.85983605464259   -3.06954e-12   4.28160e-10 DIIS
   @DF-RHF iter  16:  -463.85983605464156    1.02318e-12   1.92422e-10 DIIS
   @DF-RHF iter  17:  -463.85983605464196   -3.97904e-13   9.67960e-11 DIIS
  Energy and wave function converged.


  ==> Post-Iterations <==

    Orbital Energies [Eh]
    ---------------------

    Doubly Occupied:                                                      

       1A    -11.235439     2A    -11.231767     3A    -11.227835  
       4A    -11.227790     5A    -11.227617     6A    -11.227283  
       7A    -11.220953     8A    -11.216400     9A    -11.214684  
      10A    -11.214439    11A    -11.211443    12A    -11.209189  
      13A     -1.156325    14A     -1.125350    15A     -1.041250  
      16A     -1.015786    17A     -0.988182    18A     -0.953613  
      19A     -0.892333    20A     -0.839421    21A     -0.821332  
      22A     -0.764157    23A     -0.760344    24A     -0.697083  
      25A     -0.660838    26A     -0.649941    27A     -0.621343  
      28A     -0.611759    29A     -0.588266    30A     -0.582663  
      31A     -0.574478    32A     -0.555792    33A     -0.528313  
      34A     -0.510391    35A     -0.509461    36A     -0.495772  
      37A     -0.475179    38A     -0.463013    39A     -0.460766  
      40A     -0.453879    41A     -0.450297    42A     -0.443566  
      43A     -0.331785    44A     -0.317958  

    Virtual:                                                              

      45A      0.027335    46A      0.030356    47A      0.031936  
      48A      0.035912    49A      0.041806    50A      0.043096  
      51A      0.049819    52A      0.053737    53A      0.056594  
      54A      0.059251    55A      0.060536    56A      0.072054  
      57A      0.075490    58A      0.078700    59A      0.082558  
      60A      0.088305    61A      0.096368    62A      0.103656  
      63A      0.106955    64A      0.108778    65A      0.109310  
      66A      0.113856    67A      0.117223    68A      0.119731  
      69A      0.121922    70A      0.124543    71A      0.129467  
      72A      0.131806    73A      0.133923    74A      0.136232  
      75A      0.142843    76A      0.144604    77A      0.145233  
      78A      0.148814    79A      0.151541    80A      0.153647  
      81A      0.156947    82A      0.160790    83A      0.162784  
      84A      0.165657    85A      0.169432    86A      0.173059  
      87A      0.174388    88A      0.180808    89A      0.184424  
      90A      0.187503    91A      0.190021    92A      0.195815  
      93A      0.199074    94A      0.207184    95A      0.212712  
      96A      0.217386    97A      0.222847    98A      0.229181  
      99A      0.235282   100A      0.237578   101A      0.237947  
     102A      0.245848   103A      0.249156   104A      0.256113  
     105A      0.261213   106A      0.263081   107A      0.266155  
     108A      0.270971   109A      0.272666   110A      0.278686  
     111A      0.288657   112A      0.291744   113A      0.297233  
     114A      0.300394   115A      0.305130   116A      0.308849  
     117A      0.310372   118A      0.312844   119A      0.316340  
     120A      0.319519   121A      0.325799   122A      0.327801  
     123A      0.333399   124A      0.336123   125A      0.337909  
     126A      0.343644   127A      0.347688   128A      0.349385  
     129A      0.353555   130A      0.358969   131A      0.363410  
     132A      0.365424   133A      0.367826   134A      0.369828  
     135A      0.373112   136A      0.377928   137A      0.380996  
     138A      0.384752   139A      0.387978   140A      0.392682  
     141A      0.395325   142A      0.398571   143A      0.401121  
     144A      0.405001   145A      0.410013   146A      0.417461  
     147A      0.421554   148A      0.427662   149A      0.430242  
     150A      0.433716   151A      0.436213   152A      0.438208  
     153A      0.441946   154A      0.447558   155A      0.450518  
     156A      0.452723   157A      0.457594   158A      0.461754  
     159A      0.464650   160A      0.464915   161A      0.474333  
     162A      0.477769   163A      0.481113   164A      0.483943  
     165A      0.487385   166A      0.488950   167A      0.489861  
     168A      0.496061   169A      0.499176   170A      0.500291  
     171A      0.504566   172A      0.505642   173A      0.510838  
     174A      0.513216   175A      0.515074   176A      0.519936  
     177A      0.522370   178A      0.524607   179A      0.528225  
     180A      0.532208   181A      0.532831   182A      0.539982  
     183A      0.542860   184A      0.546562   185A      0.549221  
     186A      0.550792   187A      0.554502   188A      0.561365  
     189A      0.562373   190A      0.563118   191A      0.565652  
     192A      0.569150   193A      0.575467   194A      0.578198  
     195A      0.582951   196A      0.587538   197A      0.596411  
     198A      0.598614   199A      0.601011   200A      0.602272  
     201A      0.607748   202A      0.612564   203A      0.615683  
     204A      0.620046   205A      0.626216   206A      0.630668  
     207A      0.634468   208A      0.637793   209A      0.640702  
     210A      0.644478   211A      0.648689   212A      0.657502  
     213A      0.659950   214A      0.664506   215A      0.672014  
     216A      0.676404   217A      0.677511   218A      0.683677  
     219A      0.690599   220A      0.696735   221A      0.698230  
     222A      0.700209   223A      0.703079   224A      0.707106  
     225A      0.714193   226A      0.719328   227A      0.723832  
     228A      0.729966   229A      0.733366   230A      0.740890  
     231A      0.741974   232A      0.745109   233A      0.755816  
     234A      0.756799   235A      0.758962   236A      0.769889  
     237A      0.780283   238A      0.786639   239A      0.792508  
     240A      0.795058   241A      0.798690   242A      0.808235  
     243A      0.813462   244A      0.824440   245A      0.828552  
     246A      0.837081   247A      0.841107   248A      0.848241  
     249A      0.848339   250A      0.856295   251A      0.860983  
     252A      0.863686   253A      0.870940   254A      0.873458  
     255A      0.878368   256A      0.879796   257A      0.891742  
     258A      0.892173   259A      0.895468   260A      0.902129  
     261A      0.904648   262A      0.908951   263A      0.911531  
     264A      0.914662   265A      0.916323   266A      0.920684  
     267A      0.929054   268A      0.933946   269A      0.935683  
     270A      0.940930   271A      0.946170   272A      0.949418  
     273A      0.954130   274A      0.958485   275A      0.961467  
     276A      0.965680   277A      0.966606   278A      0.975838  
     279A      0.977330   280A      0.987091   281A      0.989463  
     282A      0.995414   283A      0.997598   284A      0.999090  
     285A      1.003351   286A      1.008302   287A      1.013613  
     288A      1.019447   289A      1.021846   290A      1.028257  
     291A      1.030457   292A      1.038631   293A      1.042277  
     294A      1.044674   295A      1.048310   296A      1.055683  
     297A      1.059727   298A      1.062429   299A      1.070733  
     300A      1.074772   301A      1.078680   302A      1.082667  
     303A      1.083189   304A      1.095548   305A      1.096090  
     306A      1.098110   307A      1.102692   308A      1.107965  
     309A      1.113682   310A      1.117110   311A      1.122650  
     312A      1.127711   313A      1.129062   314A      1.132960  
     315A      1.139809   316A      1.143507   317A      1.149033  
     318A      1.151869   319A      1.156283   320A      1.159915  
     321A      1.160583   322A      1.164997   323A      1.174618  
     324A      1.179385   325A      1.184798   326A      1.189325  
     327A      1.189902   328A      1.194600   329A      1.199946  
     330A      1.202919   331A      1.208023   332A      1.210764  
     333A      1.217576   334A      1.223336   335A      1.226447  
     336A      1.227674   337A      1.232630   338A      1.239060  
     339A      1.243727   340A      1.252005   341A      1.261126  
     342A      1.265227   343A      1.271930   344A      1.275488  
     345A      1.280107   346A      1.285038   347A      1.285880  
     348A      1.297021   349A      1.299130   350A      1.308041  
     351A      1.313121   352A      1.317224   353A      1.320841  
     354A      1.322782   355A      1.335244   356A      1.343913  
     357A      1.346360   358A      1.350510   359A      1.352308  
     360A      1.359304   361A      1.368540   362A      1.373443  
     363A      1.379614   364A      1.382328   365A      1.384239  
     366A      1.393382   367A      1.399831   368A      1.405529  
     369A      1.406331   370A      1.412308   371A      1.415842  
     372A      1.426110   373A      1.428561   374A      1.436913  
     375A      1.442562   376A      1.449938   377A      1.450627  
     378A      1.460696   379A      1.465962   380A      1.471659  
     381A      1.475876   382A      1.482349   383A      1.486571  
     384A      1.488824   385A      1.496954   386A      1.505972  
     387A      1.516292   388A      1.520708   389A      1.526329  
     390A      1.527163   391A      1.534242   392A      1.552524  
     393A      1.553156   394A      1.553905   395A      1.560220  
     396A      1.571711   397A      1.576152   398A      1.583749  
     399A      1.588621   400A      1.598773   401A      1.602572  
     402A      1.604027   403A      1.614758   404A      1.625367  
     405A      1.635266   406A      1.637725   407A      1.641130  
     408A      1.653126   409A      1.657924   410A      1.669454  
     411A      1.670909   412A      1.680850   413A      1.687768  
     414A      1.689138   415A      1.705883   416A      1.708917  
     417A      1.712365   418A      1.715295   419A      1.724979  
     420A      1.728441   421A      1.735919   422A      1.738564  
     423A      1.741767   424A      1.747933   425A      1.754026  
     426A      1.757479   427A      1.766218   428A      1.767236  
     429A      1.772009   430A      1.778946   431A      1.781205  
     432A      1.786854   433A      1.787726   434A      1.792947  
     435A      1.806490   436A      1.810708   437A      1.814073  
     438A      1.821935   439A      1.830761   440A      1.835577  
     441A      1.842862   442A      1.846636   443A      1.853862  
     444A      1.860753   445A      1.865600   446A      1.868636  
     447A      1.877834   448A      1.887514   449A      1.891962  
     450A      1.896877   451A      1.900474   452A      1.904282  
     453A      1.910134   454A      1.913085   455A      1.921943  
     456A      1.925420   457A      1.929736   458A      1.940859  
     459A      1.949314   460A      1.953141   461A      1.955017  
     462A      1.959321   463A      1.965766   464A      1.972849  
     465A      1.983820   466A      1.990891   467A      1.998527  
     468A      2.005056   469A      2.013921   470A      2.021355  
     471A      2.026687   472A      2.029047   473A      2.037539  
     474A      2.042788   475A      2.044674   476A      2.052163  
     477A      2.055265   478A      2.062230   479A      2.066364  
     480A      2.072819   481A      2.075583   482A      2.082526  
     483A      2.088412   484A      2.090972   485A      2.098760  
     486A      2.100676   487A      2.115739   488A      2.116051  
     489A      2.122802   490A      2.129748   491A      2.136536  
     492A      2.145800   493A      2.151063   494A      2.160211  
     495A      2.168961   496A      2.170420   497A      2.177425  
     498A      2.192804   499A      2.205702   500A      2.208800  
     501A      2.213311   502A      2.220614   503A      2.229440  
     504A      2.236529   505A      2.240133   506A      2.250876  
     507A      2.258208   508A      2.262848   509A      2.263629  
     510A      2.268278   511A      2.284393   512A      2.288221  
     513A      2.294880   514A      2.305986   515A      2.309162  
     516A      2.322741   517A      2.335184   518A      2.347257  
     519A      2.352407   520A      2.357795   521A      2.373561  
     522A      2.379530   523A      2.385859   524A      2.391384  
     525A      2.404131   526A      2.405994   527A      2.411250  
     528A      2.421551   529A      2.427015   530A      2.438379  
     531A      2.452455   532A      2.453336   533A      2.467950  
     534A      2.470697   535A      2.477276   536A      2.490127  
     537A      2.496802   538A      2.501856   539A      2.512554  
     540A      2.521174   541A      2.530763   542A      2.537192  
     543A      2.560684   544A      2.569641   545A      2.574582  
     546A      2.584617   547A      2.593144   548A      2.597715  
     549A      2.603270   550A      2.615563   551A      2.630331  
     552A      2.641660   553A      2.647038   554A      2.651494  
     555A      2.673644   556A      2.679092   557A      2.694997  
     558A      2.703243   559A      2.725382   560A      2.734188  
     561A      2.739585   562A      2.749682   563A      2.765634  
     564A      2.772731   565A      2.793851   566A      2.814641  
     567A      2.824331   568A      2.840135   569A      2.852499  
     570A      2.877313   571A      2.890583   572A      2.921122  
     573A      2.966277   574A      2.993583   575A      3.052770  
     576A      3.075529   577A      3.090424   578A      3.128168  
     579A      3.141559   580A      3.190663   581A      3.200424  
     582A      3.216893   583A      3.234258   584A      3.263190  
     585A      3.278856   586A      3.305032   587A      3.325494  
     588A      3.344649   589A      3.357554   590A      3.368795  
     591A      3.377459   592A      3.392435   593A      3.398361  
     594A      3.409009   595A      3.431111   596A      3.444221  
     597A      3.445982   598A      3.456725   599A      3.461637  
     600A      3.486297   601A      3.490701   602A      3.492795  
     603A      3.505576   604A      3.515151   605A      3.530730  
     606A      3.534319   607A      3.547523   608A      3.555061  
     609A      3.559215   610A      3.573434   611A      3.578873  
     612A      3.581301   613A      3.588168   614A      3.597658  
     615A      3.612522   616A      3.619246   617A      3.628771  
     618A      3.635533   619A      3.644235   620A      3.652303  
     621A      3.657825   622A      3.661785   623A      3.674207  
     624A      3.677997   625A      3.688590   626A      3.697531  
     627A      3.712266   628A      3.718109   629A      3.725026  
     630A      3.728237   631A      3.738840   632A      3.760160  
     633A      3.763964   634A      3.778339   635A      3.783295  
     636A      3.791765   637A      3.796555   638A      3.796874  
     639A      3.809285   640A      3.816088   641A      3.821414  
     642A      3.843594   643A      3.850985   644A      3.857018  
     645A      3.859437   646A      3.864463   647A      3.875821  
     648A      3.881675   649A      3.892794   650A      3.896861  
     651A      3.903056   652A      3.907002   653A      3.913893  
     654A      3.921937   655A      3.932353   656A      3.939029  
     657A      3.944115   658A      3.958435   659A      3.963354  
     660A      3.968721   661A      3.975312   662A      3.986993  
     663A      3.990873   664A      4.001501   665A      4.006974  
     666A      4.010177   667A      4.015066   668A      4.018811  
     669A      4.030443   670A      4.038198   671A      4.042244  
     672A      4.049088   673A      4.052548   674A      4.058344  
     675A      4.061954   676A      4.076165   677A      4.082785  
     678A      4.084757   679A      4.096754   680A      4.104171  
     681A      4.113156   682A      4.114562   683A      4.132619  
     684A      4.142779   685A      4.151480   686A      4.159511  
     687A      4.161345   688A      4.168292   689A      4.172542  
     690A      4.178877   691A      4.193888   692A      4.197480  
     693A      4.209418   694A      4.216533   695A      4.217941  
     696A      4.234856   697A      4.248472   698A      4.250187  
     699A      4.259432   700A      4.262399   701A      4.269059  
     702A      4.276665   703A      4.282371   704A      4.288880  
     705A      4.296548   706A      4.308119   707A      4.315997  
     708A      4.321998   709A      4.328040   710A      4.331252  
     711A      4.341974   712A      4.348086   713A      4.357476  
     714A      4.363919   715A      4.370109   716A      4.379598  
     717A      4.386830   718A      4.397660   719A      4.404438  
     720A      4.415388   721A      4.430092   722A      4.439254  
     723A      4.445531   724A      4.454735   725A      4.470743  
     726A      4.480416   727A      4.484585   728A      4.488705  
     729A      4.504129   730A      4.512906   731A      4.515584  
     732A      4.535563   733A      4.541105   734A      4.545869  
     735A      4.549223   736A      4.563543   737A      4.565597  
     738A      4.567171   739A      4.581264   740A      4.584079  
     741A      4.605412   742A      4.606726   743A      4.622309  
     744A      4.632125   745A      4.650533   746A      4.654464  
     747A      4.668999   748A      4.672677   749A      4.679833  
     750A      4.687555   751A      4.703688   752A      4.706920  
     753A      4.720304   754A      4.736365   755A      4.748991  
     756A      4.758788   757A      4.765780   758A      4.766456  
     759A      4.777214   760A      4.788061   761A      4.790981  
     762A      4.795574   763A      4.809344   764A      4.828344  
     765A      4.843330   766A      4.849653   767A      4.863333  
     768A      4.881834   769A      4.892788   770A      4.898051  
     771A      4.909782   772A      4.915365   773A      4.919034  
     774A      4.932140   775A      4.942453   776A      4.957395  
     777A      4.962415   778A      4.971453   779A      4.982957  
     780A      4.996331   781A      5.005721   782A      5.014511  
     783A      5.024870   784A      5.035224   785A      5.037670  
     786A      5.068241   787A      5.073484   788A      5.081777  
     789A      5.090213   790A      5.096974   791A      5.109862  
     792A      5.123581   793A      5.132656   794A      5.144088  
     795A      5.150602   796A      5.155488   797A      5.161736  
     798A      5.168853   799A      5.172163   800A      5.184463  
     801A      5.189944   802A      5.200369   803A      5.222781  
     804A      5.229752   805A      5.233487   806A      5.236900  
     807A      5.258474   808A      5.266380   809A      5.275785  
     810A      5.288100   811A      5.302152   812A      5.306414  
     813A      5.310003   814A      5.322876   815A      5.339749  
     816A      5.348030   817A      5.350010   818A      5.360112  
     819A      5.365040   820A      5.375301   821A      5.386559  
     822A      5.399774   823A      5.410825   824A      5.415331  
     825A      5.427656   826A      5.433569   827A      5.458132  
     828A      5.471218   829A      5.491863   830A      5.499847  
     831A      5.503296   832A      5.508555   833A      5.522656  
     834A      5.548815   835A      5.552453   836A      5.567611  
     837A      5.585319   838A      5.594812   839A      5.601426  
     840A      5.613266   841A      5.620842   842A      5.632250  
     843A      5.641210   844A      5.661998   845A      5.692682  
     846A      5.697337   847A      5.716847   848A      5.728304  
     849A      5.738082   850A      5.752633   851A      5.763166  
     852A      5.780966   853A      5.785028   854A      5.809409  
     855A      5.821471   856A      5.845797   857A      5.868456  
     858A      5.882945   859A      5.893221   860A      5.913835  
     861A      5.922659   862A      5.940165   863A      5.956349  
     864A      5.987225   865A      5.992394   866A      6.023551  
     867A      6.029278   868A      6.049103   869A      6.064281  
     870A      6.084484   871A      6.102943   872A      6.146106  
     873A      6.164377   874A      6.175750   875A      6.209131  
     876A      6.221312   877A      6.232311   878A      6.248946  
     879A      6.283638   880A      6.325745   881A      6.330035  
     882A      6.356413   883A      6.361833   884A      6.377772  
     885A      6.410491   886A      6.446980   887A      6.473357  
     888A      6.490872   889A      6.546205   890A      6.591838  
     891A      6.687280   892A      6.704941   893A      6.722633  
     894A      6.775868   895A      6.818034   896A      6.843424  
     897A      6.885823   898A      6.908447   899A      6.915757  
     900A      6.946510   901A      6.997710   902A      7.007134  
     903A      7.044667   904A      7.101131   905A      7.107880  
     906A      7.139130   907A      7.268666   908A      7.489512  
     909A     16.619548   910A     17.057159   911A     18.057781  
     912A     18.536675   913A     18.988824   914A     19.278999  
     915A     19.769412   916A     19.896258   917A     20.123443  
     918A     20.418690   919A     21.511739   920A     21.828631  

    Final Occupation by Irrep:
              A 
    DOCC [    44 ]

  @DF-RHF Final Energy:  -463.85983605464196

   => Energetics <=

    Nuclear Repulsion Energy =            677.1221935809469414
    One-Electron Energy =               -1969.9531071649089427
    Two-Electron Energy =                 828.9710775293200413
    Total Energy =                       -463.8598360546419599

Computation Completed

*** tstop() called on c418-114.stampede2.tacc.utexas.edu at Sun Mar  7 14:33:22 2021
Module time:
	user time   =    1514.59 seconds =      25.24 minutes
	system time =      73.45 seconds =       1.22 minutes
	total time  =         75 seconds =       1.25 minutes
Total time:
	user time   =    1514.59 seconds =      25.24 minutes
	system time =      73.45 seconds =       1.22 minutes
	total time  =         75 seconds =       1.25 minutes
   => Loading Basis Set <=

    Name: (AUG-CC-PVTZ AUX)
    Role: RIFIT
    Keyword: DF_BASIS_MP2
    atoms 1-12  entry C          line   148 file /home1/07844/xy3866/miniconda3/envs/p4env/share/psi4/basis/aug-cc-pvtz-ri.gbs 
    atoms 13-28 entry H          line    30 file /home1/07844/xy3866/miniconda3/envs/p4env/share/psi4/basis/aug-cc-pvtz-ri.gbs 


*** tstart() called on c418-114.stampede2.tacc.utexas.edu
*** at Sun Mar  7 14:33:23 2021


  //>>>>>>>>>>>>>>>>>>>>>>>>>>>>>>>>>>>//
  //               DFMP2               //
  //<<<<<<<<<<<<<<<<<<<<<<<<<<<<<<<<<<<//

	 --------------------------------------------------------
	                          DF-MP2                         
	      2nd-Order Density-Fitted Moller-Plesset Theory     
	              RMP2 Wavefunction,  32 Threads             
	                                                         
	        Rob Parrish, Justin Turney, Andy Simmonett,      
	           Ed Hohenstein, and C. David Sherrill          
	 --------------------------------------------------------

   => Auxiliary Basis Set <=

  Basis Set: (AUG-CC-PVTZ AUX)
    Blend: AUG-CC-PVTZ-RI
    Number of shells: 560
    Number of basis functions: 2008
    Number of Cartesian functions: 2512
    Spherical Harmonics?: true
    Max angular momentum: 4

	 --------------------------------------------------------
	                 NBF =   920, NAUX =  2008
	 --------------------------------------------------------
	   CLASS    FOCC     OCC    AOCC    AVIR     VIR    FVIR
	   PAIRS       0      44      44     876     876       0
	 --------------------------------------------------------

  DFHelper Memory: AOs need 11.767 GiB; user supplied 22.352 GiB. Using in-core AOs.


         ------------------------------------------------------------
                                     CPHF                           
                                  Rob Parrish                       
         ------------------------------------------------------------

  ==> Geometry <==

    Molecular point group: c1
    Full point group: C1

    Geometry (in Angstrom), charge = 0, multiplicity = 1:

       Center              X                  Y                   Z               Mass       
    ------------   -----------------  -----------------  -----------------  -----------------
         C           -0.513736460289    -0.826952426505     0.214576150449    12.000000000000
         C           -2.826164460289    -0.226655426505    -0.271252849551    12.000000000000
         C           -1.443868460289    -0.332461426505    -0.917024849551    12.000000000000
         C           -1.216825460289    -0.369786426505     1.531419150449    12.000000000000
         C           -2.485058460289     0.378435573495     1.092563150449    12.000000000000
         C            0.905123539711    -0.340747426505     0.067041150449    12.000000000000
         C           -3.840781460289     0.567141573495    -1.081453849551    12.000000000000
         C            1.207391539711     1.025943573495     0.174027150449    12.000000000000
         C            1.951250539711    -1.232614426505    -0.198450849551    12.000000000000
         C            2.515749539711     1.484618573495     0.023773150449    12.000000000000
         C            3.263545539711    -0.778719426505    -0.351697849551    12.000000000000
         C            3.549801539711     0.582564573495    -0.241650849551    12.000000000000
         H           -0.495315460289    -1.924238426505     0.189800150449     1.007825032230
         H           -3.212601460289    -1.244323426505    -0.109710849551     1.007825032230
         H           -1.128477460289     0.665763573495    -1.249788849551     1.007825032230
         H           -1.416219460289    -0.989917426505    -1.793621849551     1.007825032230
         H           -0.557339460289     0.246148573495     2.150200150449     1.007825032230
         H           -1.483424460289    -1.247490426505     2.130407150449     1.007825032230
         H           -3.303529460289     0.300455573495     1.817091150449     1.007825032230
         H           -2.271993460289     1.447944573495     0.956933150449     1.007825032230
         H           -3.474909460289     1.585311573495    -1.254289849551     1.007825032230
         H           -4.021755460289     0.103421573495    -2.056458849551     1.007825032230
         H           -4.800047460289     0.636849573495    -0.558326849551     1.007825032230
         H            0.410100539711     1.739074573495     0.380507150449     1.007825032230
         H            1.735449539711    -2.296836426505    -0.282530849551     1.007825032230
         H            2.690528639711     2.352059273495     0.096261050449     1.007825032230
         H            4.061506539711    -1.489144426505    -0.556117849551     1.007825032230
         H            4.570258539711     0.939268573495    -0.358878849551     1.007825032230

  Nuclear repulsion =  677.122193580947055
  Reference energy  = -463.859836054641960

  ==> Basis Set <==

  Basis Set: AUG-CC-PVTZ
    Blend: AUG-CC-PVTZ
    Number of shells: 312
    Number of basis functions: 920
    Number of Cartesian functions: 1060
    Spherical Harmonics?: true
    Max angular momentum: 3

  ==> CGRSolver (by Rob Parrish) <==

   Number of roots    =         1
   Preconditioning    =    JACOBI
   Convergence cutoff =     1E-06
   Maximum iterations =       100

  ==> CPHFRHamiltonian (by Rob Parrish) <== 

  ==> MemDFJK: Density-Fitted J/K Matrices <==

    J tasked:                   Yes
    K tasked:                   Yes
    wK tasked:                   No
    OpenMP threads:              32
    Memory [MiB]:             22888
    Algorithm:                 Core
    Schwarz Cutoff:           1E-12
    Mask sparsity (%):       9.1576
    Fitting Condition:        1E-10

   => Auxiliary Basis Set <=

  Basis Set: (AUG-CC-PVTZ AUX)
    Blend: AUG-CC-PVTZ-JKFIT
    Number of shells: 584
    Number of basis functions: 1984
    Number of Cartesian functions: 2452
    Spherical Harmonics?: true
    Max angular momentum: 4

  ==> CPHF Iterations <==

  => Iterations <=

             Iter  Converged  Remaining    Residual
  CGR           1          0          1   8.102E-02
  CGR           2          0          1   1.624E-02
  CGR           3          0          1   7.030E-03
  CGR           4          0          1   4.114E-03
  CGR           5          0          1   1.901E-03
  CGR           6          0          1   7.048E-04
  CGR           7          0          1   1.988E-04
  CGR           8          0          1   5.027E-05
  CGR           9          0          1   1.803E-05
  CGR          10          0          1   7.593E-06
  CGR          11          0          1   3.907E-06
  CGR          12          0          1   1.267E-06
  CGR          13          1          0   4.906E-07

    CGRSolver converged.

	-----------------------------------------------------------
	 ==================> DF-MP2 Energies <==================== 
	-----------------------------------------------------------
	 Reference Energy          =    -463.8598360546419599 [Eh]
	 Singles Energy            =      -0.0000000000000000 [Eh]
	 Same-Spin Energy          =      -0.5193502112934066 [Eh]
	 Opposite-Spin Energy      =      -1.7258783541995846 [Eh]
	 Correlation Energy        =      -2.2452285654929911 [Eh]
	 Total Energy              =    -466.1050646201349537 [Eh]
	-----------------------------------------------------------
	 ================> DF-SCS-MP2 Energies <================== 
	-----------------------------------------------------------
	 SCS Same-Spin Scale       =       0.3333333333333333 [-]
	 SCS Opposite-Spin Scale   =       1.2000000000000000 [-]
	 SCS Same-Spin Energy      =      -0.1731167370978022 [Eh]
	 SCS Opposite-Spin Energy  =      -2.0710540250395013 [Eh]
	 SCS Correlation Energy    =      -2.2441707621373035 [Eh]
	 SCS Total Energy          =    -466.1040068167792469 [Eh]
	-----------------------------------------------------------



Properties will be evaluated at  -0.000000,   0.000000,  -0.000000 [a0]

Properties computed using the MP2 density matrix

  Nuclear Dipole Moment: [e a0]
     X:   -11.9038      Y:     0.7728      Z:    -0.4674

  Electronic Dipole Moment: [e a0]
     X:    11.6886      Y:    -0.8328      Z:     0.4834

  Dipole Moment: [e a0]
     X:    -0.2151      Y:    -0.0600      Z:     0.0160     Total:     0.2239

  Dipole Moment: [D]
     X:    -0.5468      Y:    -0.1524      Z:     0.0407     Total:     0.5691


*** tstop() called on c418-114.stampede2.tacc.utexas.edu at Sun Mar  7 14:40:49 2021
Module time:
	user time   =    5045.42 seconds =      84.09 minutes
	system time =      94.01 seconds =       1.57 minutes
	total time  =        446 seconds =       7.43 minutes
Total time:
	user time   =    6561.40 seconds =     109.36 minutes
	system time =     167.49 seconds =       2.79 minutes
	total time  =        522 seconds =       8.70 minutes

    Psi4 stopped on: Sunday, 07 March 2021 02:40PM
    Psi4 wall time for execution: 0:08:43.81

*** Psi4 exiting successfully. Buy a developer a beer!
