
    -----------------------------------------------------------------------
          Psi4: An Open-Source Ab Initio Electronic Structure Package
                               Psi4 1.4a3.dev225 

                         Git: Rev {master} 7105e37 


    D. G. A. Smith, L. A. Burns, A. C. Simmonett, R. M. Parrish,
    M. C. Schieber, R. Galvelis, P. Kraus, H. Kruse, R. Di Remigio,
    A. Alenaizan, A. M. James, S. Lehtola, J. P. Misiewicz, M. Scheurer,
    R. A. Shaw, J. B. Schriber, Y. Xie, Z. L. Glick, D. A. Sirianni,
    J. S. O'Brien, J. M. Waldrop, A. Kumar, E. G. Hohenstein,
    B. P. Pritchard, B. R. Brooks, H. F. Schaefer III, A. Yu. Sokolov,
    K. Patkowski, A. E. DePrince III, U. Bozkaya, R. A. King,
    F. A. Evangelista, J. M. Turney, T. D. Crawford, C. D. Sherrill,
    J. Chem. Phys. 152(18) 184108 (2020). https://doi.org/10.1063/5.0006002

                            Additional Code Authors
    E. T. Seidl, C. L. Janssen, E. F. Valeev, M. L. Leininger,
    J. F. Gonthier, R. M. Richard, H. R. McAlexander, M. Saitow, X. Wang,
    P. Verma, and M. H. Lechner

             Previous Authors, Complete List of Code Contributors,
                       and Citations for Specific Modules
    https://github.com/psi4/psi4/blob/master/codemeta.json
    https://github.com/psi4/psi4/graphs/contributors
    http://psicode.org/psi4manual/master/introduction.html#citing-psifour

    -----------------------------------------------------------------------


    Psi4 started on: Sunday, 07 March 2021 03:34PM

    Process ID: 249067
    Host:       c418-114.stampede2.tacc.utexas.edu
    PSIDATADIR: /home1/07844/xy3866/miniconda3/envs/p4env/share/psi4
    Memory:     500.0 MiB
    Threads:    32
    
  ==> Input File <==

--------------------------------------------------------------------------
#psi4
#
memory 32 gb

molecule  {
0 1
  C       -0.4426020    -0.8338200     0.2172010
  C       -2.7550300    -0.2335230    -0.2686280
  C       -1.3727340    -0.3393290    -0.9144000
  C       -1.1456910    -0.3766540     1.5340440
  C       -2.4139240     0.3715680     1.0951880
  C        0.9762580    -0.3476150     0.0696660
  C       -3.7696470     0.5602740    -1.0788290
  C        1.2785260     1.0190760     0.1766520
  C        2.0223850    -1.2394820    -0.1958260
  C        2.5868840     1.4777510     0.0263980
  C        3.3346800    -0.7855870    -0.3490730
  C        3.6209360     0.5756970    -0.2390260
  H       -0.4241810    -1.9311060     0.1924250
  H       -3.1414670    -1.2511910    -0.1070860
  H       -1.0573430     0.6588960    -1.2471640
  H       -1.3450850    -0.9967850    -1.7909970
  H       -0.4862050     0.2392810     2.1528250
  H       -1.4122900    -1.2543580     2.1330320
  H       -3.2323950     0.2935880     1.8197160
  H       -2.2008590     1.4410770     0.9595580
  H       -3.4037750     1.5784440    -1.2516650
  H       -3.9506210     0.0965540    -2.0538340
  H       -4.7289130     0.6299820    -0.5557020
  H        0.4812350     1.7322070     0.3831320
  H        1.8065840    -2.3037040    -0.2799060
  H        2.8010350     2.5405970     0.1152150
  H        4.0592832    -1.4307015    -0.5347003
  H        4.6413930     0.9324010    -0.3562540
units angstrom
no_reorient  #important for SAPT in psi4, default
symmetry c1  #important for SAPT in psi4, default
}

set PROPERTIES_ORIGIN ["COM"]
properties('MP2/aug-cc-pvtz', properties = ['dipole'])
--------------------------------------------------------------------------

  Memory set to  29.802 GiB by Python driver.
    SCF Algorithm Type (re)set to DF.

*** tstart() called on c418-114.stampede2.tacc.utexas.edu
*** at Sun Mar  7 15:34:32 2021

   => Loading Basis Set <=

    Name: AUG-CC-PVTZ
    Role: ORBITAL
    Keyword: BASIS
    atoms 1-12  entry C          line   239 file /home1/07844/xy3866/miniconda3/envs/p4env/share/psi4/basis/aug-cc-pvtz.gbs 
    atoms 13-28 entry H          line    40 file /home1/07844/xy3866/miniconda3/envs/p4env/share/psi4/basis/aug-cc-pvtz.gbs 


         ---------------------------------------------------------
                                   SCF
               by Justin Turney, Rob Parrish, Andy Simmonett
                          and Daniel G. A. Smith
                              RHF Reference
                       32 Threads,  30517 MiB Core
         ---------------------------------------------------------

  ==> Geometry <==

    Molecular point group: c1
    Full point group: C1

    Geometry (in Angstrom), charge = 0, multiplicity = 1:

       Center              X                  Y                   Z               Mass       
    ------------   -----------------  -----------------  -----------------  -----------------
         C           -0.513522553667    -0.828593366899     0.214355094493    12.000000000000
         C           -2.825950553667    -0.228296366899    -0.271473905507    12.000000000000
         C           -1.443654553667    -0.334102366899    -0.917245905507    12.000000000000
         C           -1.216611553667    -0.371427366899     1.531198094493    12.000000000000
         C           -2.484844553667     0.376794633101     1.092342094493    12.000000000000
         C            0.905337446333    -0.342388366899     0.066820094493    12.000000000000
         C           -3.840567553667     0.565500633101    -1.081674905507    12.000000000000
         C            1.207605446333     1.024302633101     0.173806094493    12.000000000000
         C            1.951464446333    -1.234255366899    -0.198671905507    12.000000000000
         C            2.515963446333     1.482977633101     0.023552094493    12.000000000000
         C            3.263759446333    -0.780360366899    -0.351918905507    12.000000000000
         C            3.550015446333     0.580923633101    -0.241871905507    12.000000000000
         H           -0.495101553667    -1.925879366899     0.189579094493     1.007825032230
         H           -3.212387553667    -1.245964366899    -0.109931905507     1.007825032230
         H           -1.128263553667     0.664122633101    -1.250009905507     1.007825032230
         H           -1.416005553667    -0.991558366899    -1.793842905507     1.007825032230
         H           -0.557125553667     0.244507633101     2.149979094493     1.007825032230
         H           -1.483210553667    -1.249131366899     2.130186094493     1.007825032230
         H           -3.303315553667     0.298814633101     1.816870094493     1.007825032230
         H           -2.271779553667     1.446303633101     0.956712094493     1.007825032230
         H           -3.474695553667     1.583670633101    -1.254510905507     1.007825032230
         H           -4.021541553667     0.101780633101    -2.056679905507     1.007825032230
         H           -4.799833553667     0.635208633101    -0.558547905507     1.007825032230
         H            0.410314446333     1.737433633101     0.380286094493     1.007825032230
         H            1.735663446333    -2.298477366899    -0.282751905507     1.007825032230
         H            2.730114446333     2.545823633101     0.112369094493     1.007825032230
         H            3.988362646333    -1.425474866899    -0.537546205507     1.007825032230
         H            4.570472446333     0.937627633101    -0.359099905507     1.007825032230

  Running in c1 symmetry.

  Rotational constants: A =      0.07840  B =      0.01606  C =      0.01573 [cm^-1]
  Rotational constants: A =   2350.36373  B =    481.59667  C =    471.49632 [MHz]
  Nuclear repulsion =  676.494890699848952

  Charge       = 0
  Multiplicity = 1
  Electrons    = 88
  Nalpha       = 44
  Nbeta        = 44

  ==> Algorithm <==

  SCF Algorithm Type is DF.
  DIIS enabled.
  MOM disabled.
  Fractional occupation disabled.
  Guess Type is SAD.
  Energy threshold   = 1.00e-10
  Density threshold  = 1.00e-10
  Integral threshold = 1.00e-12

  ==> Primary Basis <==

  Basis Set: AUG-CC-PVTZ
    Blend: AUG-CC-PVTZ
    Number of shells: 312
    Number of basis functions: 920
    Number of Cartesian functions: 1060
    Spherical Harmonics?: true
    Max angular momentum: 3

   => Loading Basis Set <=

    Name: (AUG-CC-PVTZ AUX)
    Role: JKFIT
    Keyword: DF_BASIS_SCF
    atoms 1-12  entry C          line   162 file /home1/07844/xy3866/miniconda3/envs/p4env/share/psi4/basis/aug-cc-pvtz-jkfit.gbs 
    atoms 13-28 entry H          line    70 file /home1/07844/xy3866/miniconda3/envs/p4env/share/psi4/basis/aug-cc-pvtz-jkfit.gbs 

  ==> Integral Setup <==

  DFHelper Memory: AOs need 11.143 GiB; user supplied 22.352 GiB. Using in-core AOs.

  ==> MemDFJK: Density-Fitted J/K Matrices <==

    J tasked:                   Yes
    K tasked:                   Yes
    wK tasked:                   No
    OpenMP threads:              32
    Memory [MiB]:             22888
    Algorithm:                 Core
    Schwarz Cutoff:           1E-12
    Mask sparsity (%):      14.1467
    Fitting Condition:        1E-10

   => Auxiliary Basis Set <=

  Basis Set: (AUG-CC-PVTZ AUX)
    Blend: AUG-CC-PVTZ-JKFIT
    Number of shells: 584
    Number of basis functions: 1984
    Number of Cartesian functions: 2452
    Spherical Harmonics?: true
    Max angular momentum: 4

  Minimum eigenvalue in the overlap matrix is 3.1313262793E-07.
  Reciprocal condition number of the overlap matrix is 1.2391026278E-08.
    Using symmetric orthogonalization.

  ==> Pre-Iterations <==

  SCF Guess: Superposition of Atomic Densities via on-the-fly atomic UHF (no occupation information).

   -------------------------
    Irrep   Nso     Nmo    
   -------------------------
     A        920     920 
   -------------------------
    Total     920     920
   -------------------------

  ==> Iterations <==

                           Total Energy        Delta E     RMS |[F,P]|

   @DF-RHF iter SAD:  -464.00930037804386   -4.64009e+02   0.00000e+00 
   @DF-RHF iter   1:  -463.44944739495213    5.59853e-01   9.03124e-04 DIIS
   @DF-RHF iter   2:  -463.79548475506130   -3.46037e-01   4.48445e-04 DIIS
   @DF-RHF iter   3:  -463.88276063752107   -8.72759e-02   8.91298e-05 DIIS
   @DF-RHF iter   4:  -463.88802426908785   -5.26363e-03   3.13534e-05 DIIS
   @DF-RHF iter   5:  -463.88853434318276   -5.10074e-04   7.96995e-06 DIIS
   @DF-RHF iter   6:  -463.88857270493111   -3.83617e-05   2.41945e-06 DIIS
   @DF-RHF iter   7:  -463.88857697426965   -4.26934e-06   7.81703e-07 DIIS
   @DF-RHF iter   8:  -463.88857766715381   -6.92884e-07   3.46766e-07 DIIS
   @DF-RHF iter   9:  -463.88857791251610   -2.45362e-07   1.79070e-07 DIIS
   @DF-RHF iter  10:  -463.88857799633786   -8.38218e-08   7.15547e-08 DIIS
   @DF-RHF iter  11:  -463.88857800870568   -1.23678e-08   2.08770e-08 DIIS
   @DF-RHF iter  12:  -463.88857800920761   -5.01927e-10   8.87597e-09 DIIS
   @DF-RHF iter  13:  -463.88857800927167   -6.40625e-11   2.21310e-09 DIIS
   @DF-RHF iter  14:  -463.88857800927804   -6.36646e-12   9.16668e-10 DIIS
   @DF-RHF iter  15:  -463.88857800927838   -3.41061e-13   4.03876e-10 DIIS
   @DF-RHF iter  16:  -463.88857800928122   -2.84217e-12   1.80040e-10 DIIS
   @DF-RHF iter  17:  -463.88857800927894    2.27374e-12   8.87063e-11 DIIS
  Energy and wave function converged.


  ==> Post-Iterations <==

    Orbital Energies [Eh]
    ---------------------

    Doubly Occupied:                                                      

       1A    -11.235881     2A    -11.232958     3A    -11.228309  
       4A    -11.228098     5A    -11.228020     6A    -11.227468  
       7A    -11.221001     8A    -11.220475     9A    -11.216473  
      10A    -11.214713    11A    -11.214523    12A    -11.211457  
      13A     -1.155934    14A     -1.124915    15A     -1.039911  
      16A     -1.011171    17A     -0.988550    18A     -0.953593  
      19A     -0.892425    20A     -0.832509    21A     -0.815802  
      22A     -0.763430    23A     -0.761684    24A     -0.691488  
      25A     -0.660379    26A     -0.641217    27A     -0.621663  
      28A     -0.610478    29A     -0.587813    30A     -0.582277  
      31A     -0.573278    32A     -0.555941    33A     -0.528359  
      34A     -0.512054    35A     -0.509570    36A     -0.491813  
      37A     -0.475100    38A     -0.463158    39A     -0.461469  
      40A     -0.453537    41A     -0.450154    42A     -0.443803  
      43A     -0.331922    44A     -0.318323  

    Virtual:                                                              

      45A      0.027263    46A      0.030513    47A      0.031875  
      48A      0.035912    49A      0.041686    50A      0.043142  
      51A      0.049764    52A      0.053675    53A      0.056686  
      54A      0.059274    55A      0.060537    56A      0.071736  
      57A      0.075250    58A      0.078823    59A      0.082631  
      60A      0.088747    61A      0.096216    62A      0.103460  
      63A      0.106863    64A      0.108827    65A      0.109319  
      66A      0.113934    67A      0.117857    68A      0.119724  
      69A      0.121488    70A      0.124630    71A      0.128666  
      72A      0.131740    73A      0.133541    74A      0.136966  
      75A      0.142792    76A      0.144513    77A      0.145332  
      78A      0.148930    79A      0.151263    80A      0.153819  
      81A      0.157044    82A      0.160697    83A      0.162433  
      84A      0.165676    85A      0.169003    86A      0.172890  
      87A      0.174358    88A      0.180827    89A      0.184406  
      90A      0.187858    91A      0.190205    92A      0.195934  
      93A      0.199325    94A      0.206952    95A      0.212694  
      96A      0.217195    97A      0.222827    98A      0.229040  
      99A      0.234935   100A      0.237605   101A      0.237878  
     102A      0.245808   103A      0.249438   104A      0.256657  
     105A      0.261478   106A      0.263040   107A      0.266483  
     108A      0.270211   109A      0.272770   110A      0.278961  
     111A      0.288736   112A      0.291241   113A      0.296036  
     114A      0.300462   115A      0.305244   116A      0.307947  
     117A      0.309317   118A      0.313692   119A      0.316036  
     120A      0.319675   121A      0.325365   122A      0.326802  
     123A      0.330572   124A      0.335173   125A      0.339006  
     126A      0.341865   127A      0.346495   128A      0.349510  
     129A      0.355877   130A      0.358456   131A      0.362474  
     132A      0.364182   133A      0.366953   134A      0.369597  
     135A      0.373546   136A      0.376101   137A      0.380282  
     138A      0.384717   139A      0.387239   140A      0.392334  
     141A      0.395349   142A      0.398476   143A      0.400106  
     144A      0.405396   145A      0.407927   146A      0.417297  
     147A      0.421778   148A      0.426569   149A      0.428643  
     150A      0.433056   151A      0.435523   152A      0.437725  
     153A      0.441964   154A      0.448242   155A      0.449260  
     156A      0.452442   157A      0.456854   158A      0.461613  
     159A      0.464254   160A      0.465073   161A      0.473273  
     162A      0.480456   163A      0.481563   164A      0.484038  
     165A      0.487510   166A      0.488803   167A      0.489823  
     168A      0.494026   169A      0.498329   170A      0.500666  
     171A      0.503418   172A      0.505285   173A      0.510736  
     174A      0.512375   175A      0.513996   176A      0.520268  
     177A      0.521603   178A      0.526620   179A      0.527831  
     180A      0.530560   181A      0.533777   182A      0.538859  
     183A      0.543606   184A      0.546362   185A      0.547075  
     186A      0.550151   187A      0.552478   188A      0.554568  
     189A      0.562338   190A      0.563793   191A      0.566053  
     192A      0.570507   193A      0.573318   194A      0.578321  
     195A      0.583998   196A      0.587649   197A      0.594748  
     198A      0.598239   199A      0.598485   200A      0.602110  
     201A      0.604932   202A      0.612115   203A      0.616478  
     204A      0.620570   205A      0.625013   206A      0.631386  
     207A      0.634700   208A      0.637155   209A      0.639861  
     210A      0.644227   211A      0.649507   212A      0.656429  
     213A      0.658701   214A      0.663545   215A      0.672726  
     216A      0.676176   217A      0.678263   218A      0.683784  
     219A      0.690222   220A      0.696248   221A      0.698527  
     222A      0.701677   223A      0.705243   224A      0.706053  
     225A      0.713681   226A      0.719105   227A      0.721902  
     228A      0.727357   229A      0.733454   230A      0.735768  
     231A      0.740478   232A      0.746611   233A      0.754047  
     234A      0.754610   235A      0.760776   236A      0.768998  
     237A      0.779745   238A      0.781892   239A      0.789790  
     240A      0.793285   241A      0.797119   242A      0.804572  
     243A      0.813608   244A      0.823507   245A      0.828855  
     246A      0.836875   247A      0.838989   248A      0.845933  
     249A      0.848225   250A      0.857318   251A      0.861018  
     252A      0.862862   253A      0.871897   254A      0.873482  
     255A      0.876300   256A      0.882620   257A      0.890817  
     258A      0.894670   259A      0.895743   260A      0.899199  
     261A      0.905746   262A      0.907160   263A      0.910060  
     264A      0.912574   265A      0.918353   266A      0.922295  
     267A      0.929402   268A      0.932840   269A      0.936203  
     270A      0.939746   271A      0.944049   272A      0.948835  
     273A      0.951466   274A      0.954050   275A      0.962408  
     276A      0.963188   277A      0.966955   278A      0.975107  
     279A      0.977619   280A      0.987566   281A      0.993273  
     282A      0.994251   283A      0.996995   284A      1.000121  
     285A      1.002622   286A      1.009911   287A      1.013795  
     288A      1.017993   289A      1.020353   290A      1.026040  
     291A      1.030225   292A      1.037378   293A      1.041573  
     294A      1.044220   295A      1.048625   296A      1.056282  
     297A      1.059319   298A      1.062529   299A      1.070326  
     300A      1.076112   301A      1.076394   302A      1.081009  
     303A      1.082605   304A      1.091453   305A      1.095309  
     306A      1.097703   307A      1.106475   308A      1.109522  
     309A      1.113486   310A      1.119544   311A      1.123766  
     312A      1.125282   313A      1.128190   314A      1.133455  
     315A      1.137500   316A      1.144210   317A      1.149245  
     318A      1.153741   319A      1.155372   320A      1.159714  
     321A      1.161573   322A      1.166462   323A      1.174594  
     324A      1.180102   325A      1.180651   326A      1.187727  
     327A      1.188568   328A      1.193051   329A      1.193749  
     330A      1.198766   331A      1.204828   332A      1.207178  
     333A      1.211444   334A      1.218145   335A      1.223918  
     336A      1.230764   337A      1.234887   338A      1.236815  
     339A      1.241947   340A      1.250032   341A      1.258882  
     342A      1.263190   343A      1.270471   344A      1.274753  
     345A      1.276189   346A      1.280438   347A      1.283167  
     348A      1.287353   349A      1.296355   350A      1.300559  
     351A      1.310796   352A      1.312713   353A      1.320920  
     354A      1.324782   355A      1.330604   356A      1.334530  
     357A      1.345107   358A      1.348712   359A      1.352536  
     360A      1.358721   361A      1.361345   362A      1.370417  
     363A      1.372206   364A      1.377204   365A      1.386364  
     366A      1.392556   367A      1.398101   368A      1.400376  
     369A      1.407756   370A      1.411603   371A      1.418552  
     372A      1.420264   373A      1.428626   374A      1.429588  
     375A      1.437754   376A      1.448861   377A      1.451376  
     378A      1.454809   379A      1.466095   380A      1.469198  
     381A      1.471997   382A      1.478268   383A      1.484933  
     384A      1.487263   385A      1.497352   386A      1.505800  
     387A      1.513524   388A      1.518097   389A      1.522108  
     390A      1.526708   391A      1.534367   392A      1.538912  
     393A      1.549742   394A      1.555475   395A      1.561383  
     396A      1.572759   397A      1.574524   398A      1.584526  
     399A      1.585223   400A      1.597935   401A      1.601195  
     402A      1.605609   403A      1.616795   404A      1.625262  
     405A      1.633974   406A      1.635128   407A      1.639264  
     408A      1.646736   409A      1.656663   410A      1.666141  
     411A      1.671790   412A      1.680960   413A      1.683511  
     414A      1.687892   415A      1.701951   416A      1.706786  
     417A      1.710486   418A      1.715967   419A      1.717770  
     420A      1.728300   421A      1.732251   422A      1.737072  
     423A      1.739033   424A      1.746351   425A      1.749929  
     426A      1.753830   427A      1.759869   428A      1.764946  
     429A      1.770844   430A      1.780545   431A      1.780965  
     432A      1.785392   433A      1.785935   434A      1.792024  
     435A      1.807413   436A      1.810532   437A      1.813637  
     438A      1.822733   439A      1.833125   440A      1.834387  
     441A      1.842172   442A      1.846865   443A      1.854075  
     444A      1.861042   445A      1.864439   446A      1.869632  
     447A      1.879104   448A      1.885407   449A      1.888763  
     450A      1.895698   451A      1.903105   452A      1.904098  
     453A      1.906368   454A      1.909779   455A      1.916265  
     456A      1.924592   457A      1.931484   458A      1.944521  
     459A      1.946804   460A      1.951075   461A      1.958082  
     462A      1.960923   463A      1.963259   464A      1.968530  
     465A      1.983772   466A      1.994932   467A      1.999440  
     468A      2.002891   469A      2.019404   470A      2.021940  
     471A      2.023524   472A      2.031985   473A      2.033401  
     474A      2.042103   475A      2.044366   476A      2.050563  
     477A      2.057096   478A      2.061754   479A      2.063845  
     480A      2.066286   481A      2.073386   482A      2.076748  
     483A      2.083056   484A      2.087325   485A      2.093400  
     486A      2.102628   487A      2.112681   488A      2.118662  
     489A      2.122398   490A      2.129418   491A      2.133269  
     492A      2.143488   493A      2.149933   494A      2.153354  
     495A      2.162813   496A      2.168470   497A      2.175225  
     498A      2.191429   499A      2.198670   500A      2.207484  
     501A      2.217249   502A      2.219547   503A      2.228678  
     504A      2.232984   505A      2.239947   506A      2.244818  
     507A      2.260993   508A      2.264029   509A      2.270379  
     510A      2.273723   511A      2.277455   512A      2.286418  
     513A      2.293974   514A      2.295128   515A      2.313026  
     516A      2.324976   517A      2.331969   518A      2.344241  
     519A      2.350375   520A      2.360732   521A      2.370641  
     522A      2.376129   523A      2.382638   524A      2.390707  
     525A      2.399543   526A      2.406009   527A      2.414387  
     528A      2.418456   529A      2.422668   530A      2.428561  
     531A      2.439013   532A      2.446995   533A      2.453509  
     534A      2.468571   535A      2.479269   536A      2.492590  
     537A      2.495165   538A      2.498133   539A      2.507442  
     540A      2.513177   541A      2.530896   542A      2.541638  
     543A      2.542469   544A      2.567425   545A      2.578327  
     546A      2.582805   547A      2.588017   548A      2.595205  
     549A      2.609495   550A      2.612337   551A      2.625382  
     552A      2.630646   553A      2.642113   554A      2.654902  
     555A      2.667258   556A      2.678873   557A      2.684935  
     558A      2.705508   559A      2.719891   560A      2.729929  
     561A      2.735148   562A      2.745741   563A      2.766685  
     564A      2.776348   565A      2.796758   566A      2.812808  
     567A      2.826329   568A      2.838402   569A      2.847254  
     570A      2.882034   571A      2.905395   572A      2.927421  
     573A      2.962758   574A      2.975108   575A      3.036360  
     576A      3.069971   577A      3.085113   578A      3.130015  
     579A      3.140635   580A      3.191910   581A      3.204469  
     582A      3.225247   583A      3.228483   584A      3.254660  
     585A      3.267720   586A      3.305328   587A      3.321802  
     588A      3.349187   589A      3.359980   590A      3.370541  
     591A      3.379511   592A      3.381838   593A      3.390561  
     594A      3.407746   595A      3.425295   596A      3.443789  
     597A      3.447703   598A      3.458932   599A      3.475673  
     600A      3.480304   601A      3.487828   602A      3.493494  
     603A      3.500911   604A      3.511539   605A      3.527563  
     606A      3.529783   607A      3.543704   608A      3.552037  
     609A      3.563413   610A      3.574849   611A      3.578976  
     612A      3.587558   613A      3.589748   614A      3.596220  
     615A      3.599476   616A      3.613027   617A      3.629078  
     618A      3.630095   619A      3.641052   620A      3.648799  
     621A      3.653457   622A      3.659954   623A      3.666714  
     624A      3.675968   625A      3.679710   626A      3.693221  
     627A      3.713591   628A      3.717469   629A      3.719352  
     630A      3.728708   631A      3.737870   632A      3.759661  
     633A      3.763567   634A      3.780304   635A      3.784135  
     636A      3.792833   637A      3.797065   638A      3.799202  
     639A      3.811776   640A      3.816437   641A      3.823948  
     642A      3.845621   643A      3.850100   644A      3.856758  
     645A      3.858963   646A      3.865184   647A      3.867238  
     648A      3.877480   649A      3.887190   650A      3.896662  
     651A      3.901408   652A      3.905060   653A      3.911089  
     654A      3.919076   655A      3.926437   656A      3.941361  
     657A      3.944083   658A      3.953341   659A      3.961866  
     660A      3.963778   661A      3.979023   662A      3.982558  
     663A      3.992366   664A      3.997761   665A      4.007203  
     666A      4.007935   667A      4.014791   668A      4.017024  
     669A      4.030030   670A      4.034694   671A      4.037509  
     672A      4.044278   673A      4.051172   674A      4.055075  
     675A      4.067304   676A      4.070025   677A      4.079240  
     678A      4.081827   679A      4.087274   680A      4.108792  
     681A      4.110440   682A      4.118819   683A      4.124885  
     684A      4.134383   685A      4.142278   686A      4.148906  
     687A      4.164359   688A      4.169006   689A      4.174767  
     690A      4.175409   691A      4.191157   692A      4.195619  
     693A      4.206075   694A      4.211477   695A      4.217866  
     696A      4.231671   697A      4.241738   698A      4.250595  
     699A      4.258276   700A      4.261542   701A      4.265340  
     702A      4.268403   703A      4.276248   704A      4.282750  
     705A      4.293085   706A      4.305041   707A      4.309569  
     708A      4.320869   709A      4.326841   710A      4.330019  
     711A      4.335725   712A      4.346663   713A      4.355732  
     714A      4.361624   715A      4.370283   716A      4.377696  
     717A      4.379302   718A      4.386287   719A      4.405955  
     720A      4.415632   721A      4.425489   722A      4.437853  
     723A      4.443577   724A      4.455272   725A      4.462278  
     726A      4.474914   727A      4.478292   728A      4.485443  
     729A      4.486854   730A      4.511627   731A      4.516046  
     732A      4.519122   733A      4.528547   734A      4.539048  
     735A      4.540136   736A      4.551331   737A      4.561358  
     738A      4.567806   739A      4.577261   740A      4.581390  
     741A      4.596856   742A      4.603359   743A      4.609287  
     744A      4.626010   745A      4.632370   746A      4.654420  
     747A      4.658522   748A      4.667274   749A      4.670011  
     750A      4.684991   751A      4.693439   752A      4.699272  
     753A      4.708213   754A      4.726192   755A      4.742803  
     756A      4.749982   757A      4.761278   758A      4.765888  
     759A      4.773864   760A      4.782613   761A      4.785928  
     762A      4.793577   763A      4.805973   764A      4.830160  
     765A      4.838261   766A      4.843497   767A      4.850291  
     768A      4.869597   769A      4.879288   770A      4.889165  
     771A      4.893771   772A      4.911940   773A      4.916656  
     774A      4.933573   775A      4.936984   776A      4.945664  
     777A      4.965134   778A      4.972325   779A      4.979794  
     780A      4.984860   781A      4.997715   782A      5.012317  
     783A      5.026290   784A      5.029432   785A      5.040839  
     786A      5.046262   787A      5.066915   788A      5.071431  
     789A      5.088502   790A      5.091595   791A      5.112905  
     792A      5.121915   793A      5.126991   794A      5.133729  
     795A      5.142144   796A      5.145405   797A      5.157623  
     798A      5.167864   799A      5.180349   800A      5.186609  
     801A      5.196009   802A      5.199019   803A      5.206356  
     804A      5.210463   805A      5.231079   806A      5.238650  
     807A      5.247205   808A      5.257690   809A      5.272707  
     810A      5.277757   811A      5.280395   812A      5.294133  
     813A      5.302798   814A      5.312653   815A      5.323292  
     816A      5.335026   817A      5.350874   818A      5.354444  
     819A      5.362057   820A      5.370299   821A      5.375924  
     822A      5.380797   823A      5.407757   824A      5.409469  
     825A      5.419377   826A      5.428924   827A      5.435673  
     828A      5.468533   829A      5.485190   830A      5.494951  
     831A      5.497603   832A      5.506670   833A      5.518261  
     834A      5.519937   835A      5.541498   836A      5.554654  
     837A      5.562432   838A      5.575059   839A      5.591735  
     840A      5.599278   841A      5.608500   842A      5.622680  
     843A      5.635332   844A      5.658767   845A      5.666592  
     846A      5.688747   847A      5.704697   848A      5.722904  
     849A      5.726779   850A      5.740365   851A      5.760258  
     852A      5.771126   853A      5.779981   854A      5.783856  
     855A      5.816229   856A      5.829885   857A      5.842355  
     858A      5.862335   859A      5.882720   860A      5.908093  
     861A      5.914237   862A      5.920077   863A      5.931758  
     864A      5.938414   865A      5.949465   866A      5.986787  
     867A      5.991520   868A      6.025264   869A      6.029414  
     870A      6.050350   871A      6.069191   872A      6.125134  
     873A      6.157558   874A      6.172914   875A      6.200190  
     876A      6.213566   877A      6.223783   878A      6.240984  
     879A      6.283514   880A      6.308576   881A      6.323820  
     882A      6.332321   883A      6.336006   884A      6.362626  
     885A      6.374659   886A      6.409135   887A      6.448864  
     888A      6.482502   889A      6.515571   890A      6.545175  
     891A      6.604092   892A      6.622720   893A      6.666199  
     894A      6.699826   895A      6.738523   896A      6.813490  
     897A      6.841106   898A      6.884612   899A      6.907722  
     900A      6.941055   901A      6.945640   902A      7.009016  
     903A      7.043735   904A      7.065484   905A      7.107526  
     906A      7.135205   907A      7.203319   908A      7.397397  
     909A     16.341700   910A     16.997439   911A     18.049000  
     912A     18.538243   913A     18.966885   914A     19.287960  
     915A     19.735629   916A     19.857186   917A     19.930799  
     918A     20.328445   919A     20.900378   920A     21.632934  

    Final Occupation by Irrep:
              A 
    DOCC [    44 ]

  @DF-RHF Final Energy:  -463.88857800927894

   => Energetics <=

    Nuclear Repulsion Energy =            676.4948906998489520
    One-Electron Energy =               -1968.8007440408023285
    Two-Electron Energy =                 828.4172753316745457
    Total Energy =                       -463.8885780092789446

Computation Completed

*** tstop() called on c418-114.stampede2.tacc.utexas.edu at Sun Mar  7 15:35:47 2021
Module time:
	user time   =    1500.55 seconds =      25.01 minutes
	system time =      77.66 seconds =       1.29 minutes
	total time  =         75 seconds =       1.25 minutes
Total time:
	user time   =    1500.55 seconds =      25.01 minutes
	system time =      77.66 seconds =       1.29 minutes
	total time  =         75 seconds =       1.25 minutes
   => Loading Basis Set <=

    Name: (AUG-CC-PVTZ AUX)
    Role: RIFIT
    Keyword: DF_BASIS_MP2
    atoms 1-12  entry C          line   148 file /home1/07844/xy3866/miniconda3/envs/p4env/share/psi4/basis/aug-cc-pvtz-ri.gbs 
    atoms 13-28 entry H          line    30 file /home1/07844/xy3866/miniconda3/envs/p4env/share/psi4/basis/aug-cc-pvtz-ri.gbs 


*** tstart() called on c418-114.stampede2.tacc.utexas.edu
*** at Sun Mar  7 15:35:48 2021


  //>>>>>>>>>>>>>>>>>>>>>>>>>>>>>>>>>>>//
  //               DFMP2               //
  //<<<<<<<<<<<<<<<<<<<<<<<<<<<<<<<<<<<//

	 --------------------------------------------------------
	                          DF-MP2                         
	      2nd-Order Density-Fitted Moller-Plesset Theory     
	              RMP2 Wavefunction,  32 Threads             
	                                                         
	        Rob Parrish, Justin Turney, Andy Simmonett,      
	           Ed Hohenstein, and C. David Sherrill          
	 --------------------------------------------------------

   => Auxiliary Basis Set <=

  Basis Set: (AUG-CC-PVTZ AUX)
    Blend: AUG-CC-PVTZ-RI
    Number of shells: 560
    Number of basis functions: 2008
    Number of Cartesian functions: 2512
    Spherical Harmonics?: true
    Max angular momentum: 4

	 --------------------------------------------------------
	                 NBF =   920, NAUX =  2008
	 --------------------------------------------------------
	   CLASS    FOCC     OCC    AOCC    AVIR     VIR    FVIR
	   PAIRS       0      44      44     876     876       0
	 --------------------------------------------------------

  DFHelper Memory: AOs need 11.766 GiB; user supplied 22.352 GiB. Using in-core AOs.


         ------------------------------------------------------------
                                     CPHF                           
                                  Rob Parrish                       
         ------------------------------------------------------------

  ==> Geometry <==

    Molecular point group: c1
    Full point group: C1

    Geometry (in Angstrom), charge = 0, multiplicity = 1:

       Center              X                  Y                   Z               Mass       
    ------------   -----------------  -----------------  -----------------  -----------------
         C           -0.513522553667    -0.828593366899     0.214355094493    12.000000000000
         C           -2.825950553667    -0.228296366899    -0.271473905507    12.000000000000
         C           -1.443654553667    -0.334102366899    -0.917245905507    12.000000000000
         C           -1.216611553667    -0.371427366899     1.531198094493    12.000000000000
         C           -2.484844553667     0.376794633101     1.092342094493    12.000000000000
         C            0.905337446333    -0.342388366899     0.066820094493    12.000000000000
         C           -3.840567553667     0.565500633101    -1.081674905507    12.000000000000
         C            1.207605446333     1.024302633101     0.173806094493    12.000000000000
         C            1.951464446333    -1.234255366899    -0.198671905507    12.000000000000
         C            2.515963446333     1.482977633101     0.023552094493    12.000000000000
         C            3.263759446333    -0.780360366899    -0.351918905507    12.000000000000
         C            3.550015446333     0.580923633101    -0.241871905507    12.000000000000
         H           -0.495101553667    -1.925879366899     0.189579094493     1.007825032230
         H           -3.212387553667    -1.245964366899    -0.109931905507     1.007825032230
         H           -1.128263553667     0.664122633101    -1.250009905507     1.007825032230
         H           -1.416005553667    -0.991558366899    -1.793842905507     1.007825032230
         H           -0.557125553667     0.244507633101     2.149979094493     1.007825032230
         H           -1.483210553667    -1.249131366899     2.130186094493     1.007825032230
         H           -3.303315553667     0.298814633101     1.816870094493     1.007825032230
         H           -2.271779553667     1.446303633101     0.956712094493     1.007825032230
         H           -3.474695553667     1.583670633101    -1.254510905507     1.007825032230
         H           -4.021541553667     0.101780633101    -2.056679905507     1.007825032230
         H           -4.799833553667     0.635208633101    -0.558547905507     1.007825032230
         H            0.410314446333     1.737433633101     0.380286094493     1.007825032230
         H            1.735663446333    -2.298477366899    -0.282751905507     1.007825032230
         H            2.730114446333     2.545823633101     0.112369094493     1.007825032230
         H            3.988362646333    -1.425474866899    -0.537546205507     1.007825032230
         H            4.570472446333     0.937627633101    -0.359099905507     1.007825032230

  Nuclear repulsion =  676.494890699849066
  Reference energy  = -463.888578009278945

  ==> Basis Set <==

  Basis Set: AUG-CC-PVTZ
    Blend: AUG-CC-PVTZ
    Number of shells: 312
    Number of basis functions: 920
    Number of Cartesian functions: 1060
    Spherical Harmonics?: true
    Max angular momentum: 3

  ==> CGRSolver (by Rob Parrish) <==

   Number of roots    =         1
   Preconditioning    =    JACOBI
   Convergence cutoff =     1E-06
   Maximum iterations =       100

  ==> CPHFRHamiltonian (by Rob Parrish) <== 

  ==> MemDFJK: Density-Fitted J/K Matrices <==

    J tasked:                   Yes
    K tasked:                   Yes
    wK tasked:                   No
    OpenMP threads:              32
    Memory [MiB]:             22888
    Algorithm:                 Core
    Schwarz Cutoff:           1E-12
    Mask sparsity (%):       9.1671
    Fitting Condition:        1E-10

   => Auxiliary Basis Set <=

  Basis Set: (AUG-CC-PVTZ AUX)
    Blend: AUG-CC-PVTZ-JKFIT
    Number of shells: 584
    Number of basis functions: 1984
    Number of Cartesian functions: 2452
    Spherical Harmonics?: true
    Max angular momentum: 4

  ==> CPHF Iterations <==

  => Iterations <=

             Iter  Converged  Remaining    Residual
  CGR           1          0          1   8.123E-02
  CGR           2          0          1   1.634E-02
  CGR           3          0          1   7.112E-03
  CGR           4          0          1   4.172E-03
  CGR           5          0          1   1.889E-03
  CGR           6          0          1   6.888E-04
  CGR           7          0          1   2.024E-04
  CGR           8          0          1   5.604E-05
  CGR           9          0          1   1.934E-05
  CGR          10          0          1   8.492E-06
  CGR          11          0          1   4.781E-06
  CGR          12          0          1   1.372E-06
  CGR          13          1          0   4.854E-07

    CGRSolver converged.

	-----------------------------------------------------------
	 ==================> DF-MP2 Energies <==================== 
	-----------------------------------------------------------
	 Reference Energy          =    -463.8885780092789446 [Eh]
	 Singles Energy            =      -0.0000000000000000 [Eh]
	 Same-Spin Energy          =      -0.5193738758788299 [Eh]
	 Opposite-Spin Energy      =      -1.7259004937461873 [Eh]
	 Correlation Energy        =      -2.2452743696250170 [Eh]
	 Total Energy              =    -466.1338523789039527 [Eh]
	-----------------------------------------------------------
	 ================> DF-SCS-MP2 Energies <================== 
	-----------------------------------------------------------
	 SCS Same-Spin Scale       =       0.3333333333333333 [-]
	 SCS Opposite-Spin Scale   =       1.2000000000000000 [-]
	 SCS Same-Spin Energy      =      -0.1731246252929433 [Eh]
	 SCS Opposite-Spin Energy  =      -2.0710805924954245 [Eh]
	 SCS Correlation Energy    =      -2.2442052177883678 [Eh]
	 SCS Total Energy          =    -466.1327832270673071 [Eh]
	-----------------------------------------------------------



Properties will be evaluated at  -0.000000,   0.000000,  -0.000000 [a0]

Properties computed using the MP2 density matrix

  Nuclear Dipole Moment: [e a0]
     X:   -11.9324      Y:     0.9926      Z:    -0.4377

  Electronic Dipole Moment: [e a0]
     X:    11.7217      Y:    -1.0808      Z:     0.4497

  Dipole Moment: [e a0]
     X:    -0.2108      Y:    -0.0882      Z:     0.0120     Total:     0.2288

  Dipole Moment: [D]
     X:    -0.5357      Y:    -0.2242      Z:     0.0304     Total:     0.5815


*** tstop() called on c418-114.stampede2.tacc.utexas.edu at Sun Mar  7 15:43:10 2021
Module time:
	user time   =    5011.02 seconds =      83.52 minutes
	system time =     109.68 seconds =       1.83 minutes
	total time  =        442 seconds =       7.37 minutes
Total time:
	user time   =    6512.95 seconds =     108.55 minutes
	system time =     187.36 seconds =       3.12 minutes
	total time  =        518 seconds =       8.63 minutes

    Psi4 stopped on: Sunday, 07 March 2021 03:43PM
    Psi4 wall time for execution: 0:08:39.92

*** Psi4 exiting successfully. Buy a developer a beer!
