
    -----------------------------------------------------------------------
          Psi4: An Open-Source Ab Initio Electronic Structure Package
                               Psi4 1.3.2 release

                         Git: Rev {HEAD} ecbda83 


    R. M. Parrish, L. A. Burns, D. G. A. Smith, A. C. Simmonett,
    A. E. DePrince III, E. G. Hohenstein, U. Bozkaya, A. Yu. Sokolov,
    R. Di Remigio, R. M. Richard, J. F. Gonthier, A. M. James,
    H. R. McAlexander, A. Kumar, M. Saitow, X. Wang, B. P. Pritchard,
    P. Verma, H. F. Schaefer III, K. Patkowski, R. A. King, E. F. Valeev,
    F. A. Evangelista, J. M. Turney, T. D. Crawford, and C. D. Sherrill,
    J. Chem. Theory Comput. 13(7) pp 3185--3197 (2017).
    (doi: 10.1021/acs.jctc.7b00174)


                         Additional Contributions by
    P. Kraus, H. Kruse, M. H. Lechner, M. C. Schieber, R. A. Shaw,
    A. Alenaizan, R. Galvelis, Z. L. Glick, S. Lehtola, and J. P. Misiewicz

    -----------------------------------------------------------------------


    Psi4 started on: Thursday, 05 November 2020 01:57PM

    Process ID: 78658
    Host:       node142.bme.utexas.edu
    PSIDATADIR: /home/xy3866/psi4conda/share/psi4
    Memory:     500.0 MiB
    Threads:    8
    
  ==> Input File <==

--------------------------------------------------------------------------
#psi4
#
memory 32 gb

molecule  {
0 1
  S       -2.3164830    -0.1817160    -0.0786020
  O        2.8587681    -0.4943860    -0.0323307
  C        0.4864880    -0.2823360    -0.0275950
  C       -0.7075030     0.6590380     0.0612160
  C        1.8055740     0.4668710     0.0258770
  H        0.4421100    -0.8587610    -0.9561370
  H        0.4659560    -1.0006030     0.7993460
  H       -0.6918870     1.3735120    -0.7679060
  H       -0.6788470     1.2393610     0.9882120
  H        1.8727330     1.1687090    -0.8189890
  H        1.8690250     1.0558810     0.9533790
  H       -2.1500500    -0.9869150     0.9815770
  H        3.6929260    -0.0445400    -0.0102600
units angstrom
no_reorient  #important for SAPT in psi4, default
symmetry c1  #important for SAPT in psi4, default
}

set PROPERTIES_ORIGIN ["COM"]
properties('MP2/aug-cc-pvtz', properties = ['dipole'])
--------------------------------------------------------------------------

  Memory set to  29.802 GiB by Python driver.
    SCF Algorithm Type (re)set to DF.

*** tstart() called on node142.bme.utexas.edu
*** at Thu Nov  5 13:57:05 2020

   => Loading Basis Set <=

    Name: AUG-CC-PVTZ
    Role: ORBITAL
    Keyword: BASIS
    atoms 1    entry S          line   902 file /home/xy3866/psi4conda/share/psi4/basis/aug-cc-pvtz.gbs 
    atoms 2    entry O          line   327 file /home/xy3866/psi4conda/share/psi4/basis/aug-cc-pvtz.gbs 
    atoms 3-5  entry C          line   235 file /home/xy3866/psi4conda/share/psi4/basis/aug-cc-pvtz.gbs 
    atoms 6-13 entry H          line    36 file /home/xy3866/psi4conda/share/psi4/basis/aug-cc-pvtz.gbs 


         ---------------------------------------------------------
                                   SCF
               by Justin Turney, Rob Parrish, Andy Simmonett
                          and Daniel G. A. Smith
                              RHF Reference
                        8 Threads,  30517 MiB Core
         ---------------------------------------------------------

  ==> Geometry <==

    Molecular point group: c1
    Full point group: C1

    Geometry (in Angstrom), charge = 0, multiplicity = 1:

       Center              X                  Y                   Z               Mass       
    ------------   -----------------  -----------------  -----------------  -----------------
         S           -2.267992054580    -0.163974464233    -0.066238059516    31.972071174400
         O            2.907259045420    -0.476644464233    -0.019966759516    15.994914619570
         C            0.534978945420    -0.264594464233    -0.015231059516    12.000000000000
         C           -0.659012054580     0.676779535767     0.073579940484    12.000000000000
         C            1.854064945420     0.484612535767     0.038240940484    12.000000000000
         H            0.490600945420    -0.841019464233    -0.943773059516     1.007825032230
         H            0.514446945420    -0.982861464233     0.811709940484     1.007825032230
         H           -0.643396054580     1.391253535767    -0.755542059516     1.007825032230
         H           -0.630356054580     1.257102535767     1.000575940484     1.007825032230
         H            1.921223945420     1.186450535767    -0.806625059516     1.007825032230
         H            1.917515945420     1.073622535767     0.965742940484     1.007825032230
         H           -2.101559054580    -0.969173464233     0.993940940484     1.007825032230
         H            3.741416945420    -0.026798464233     0.002103940484     1.007825032230

  Running in c1 symmetry.

  Rotational constants: A =      0.59482  B =      0.04404  C =      0.04222 [cm^-1]
  Rotational constants: A =  17832.17645  B =   1320.14895  C =   1265.64992 [MHz]
  Nuclear repulsion =  223.475606387232574

  Charge       = 0
  Multiplicity = 1
  Electrons    = 50
  Nalpha       = 25
  Nbeta        = 25

  ==> Algorithm <==

  SCF Algorithm Type is DF.
  DIIS enabled.
  MOM disabled.
  Fractional occupation disabled.
  Guess Type is SAD.
  Energy threshold   = 1.00e-10
  Density threshold  = 1.00e-10
  Integral threshold = 0.00e+00

  ==> Primary Basis <==

  Basis Set: AUG-CC-PVTZ
    Blend: AUG-CC-PVTZ
    Number of shells: 144
    Number of basis function: 418
    Number of Cartesian functions: 479
    Spherical Harmonics?: true
    Max angular momentum: 3

   => Loading Basis Set <=

    Name: (AUG-CC-PVTZ AUX)
    Role: JKFIT
    Keyword: DF_BASIS_SCF
    atoms 1    entry S          line   730 file /home/xy3866/psi4conda/share/psi4/basis/aug-cc-pvtz-jkfit.gbs 
    atoms 2    entry O          line   286 file /home/xy3866/psi4conda/share/psi4/basis/aug-cc-pvtz-jkfit.gbs 
    atoms 3-5  entry C          line   162 file /home/xy3866/psi4conda/share/psi4/basis/aug-cc-pvtz-jkfit.gbs 
    atoms 6-13 entry H          line    70 file /home/xy3866/psi4conda/share/psi4/basis/aug-cc-pvtz-jkfit.gbs 

  ==> Pre-Iterations <==

   -------------------------------------------------------
    Irrep   Nso     Nmo     Nalpha   Nbeta   Ndocc  Nsocc
   -------------------------------------------------------
     A        418     418       0       0       0       0
   -------------------------------------------------------
    Total     418     418      25      25      25       0
   -------------------------------------------------------

  ==> Integral Setup <==

  DFHelper Memory: AOs need 1.232 GiB; user supplied 22.352 GiB. Using in-core AOs.

  ==> MemDFJK: Density-Fitted J/K Matrices <==

    J tasked:                   Yes
    K tasked:                   Yes
    wK tasked:                   No
    OpenMP threads:               8
    Memory [MiB]:             22888
    Algorithm:                 Core
    Schwarz Cutoff:           1E-12
    Mask sparsity (%):       2.5011
    Fitting Condition:        1E-10

   => Auxiliary Basis Set <=

  Basis Set: (AUG-CC-PVTZ AUX)
    Blend: AUG-CC-PVTZ-JKFIT
    Number of shells: 274
    Number of basis function: 930
    Number of Cartesian functions: 1144
    Spherical Harmonics?: true
    Max angular momentum: 4

  Minimum eigenvalue in the overlap matrix is 1.2268480044E-05.
  Using Symmetric Orthogonalization.

  SCF Guess: Superposition of Atomic Densities via on-the-fly atomic UHF.

  ==> Iterations <==

                           Total Energy        Delta E     RMS |[F,P]|

   @DF-RHF iter SAD:  -590.15472948149170   -5.90155e+02   0.00000e+00 
   @DF-RHF iter   1:  -590.54987309857768   -3.95144e-01   1.37447e-03 DIIS
   @DF-RHF iter   2:  -590.69793937040481   -1.48066e-01   7.22975e-04 DIIS
   @DF-RHF iter   3:  -590.73556604755640   -3.76267e-02   1.31829e-04 DIIS
   @DF-RHF iter   4:  -590.73813052840137   -2.56448e-03   4.13058e-05 DIIS
   @DF-RHF iter   5:  -590.73833308820883   -2.02560e-04   1.11972e-05 DIIS
   @DF-RHF iter   6:  -590.73835278258457   -1.96944e-05   3.41650e-06 DIIS
   @DF-RHF iter   7:  -590.73835496603283   -2.18345e-06   8.86894e-07 DIIS
   @DF-RHF iter   8:  -590.73835517292537   -2.06893e-07   2.93897e-07 DIIS
   @DF-RHF iter   9:  -590.73835519253237   -1.96070e-08   8.32171e-08 DIIS
   @DF-RHF iter  10:  -590.73835519411557   -1.58320e-09   2.25120e-08 DIIS
   @DF-RHF iter  11:  -590.73835519422505   -1.09480e-10   5.38927e-09 DIIS
   @DF-RHF iter  12:  -590.73835519423415   -9.09495e-12   1.40607e-09 DIIS
   @DF-RHF iter  13:  -590.73835519423324    9.09495e-13   4.31948e-10 DIIS
   @DF-RHF iter  14:  -590.73835519423255    6.82121e-13   1.46466e-10 DIIS
   @DF-RHF iter  15:  -590.73835519423335   -7.95808e-13   5.56478e-11 DIIS
  Energy and wave function converged.


  ==> Post-Iterations <==

    Orbital Energies [Eh]
    ---------------------

    Doubly Occupied:                                                      

       1A    -91.952337     2A    -20.562608     3A    -11.284730  
       4A    -11.265572     5A    -11.230642     6A     -8.953481  
       7A     -6.634837     8A     -6.633819     9A     -6.632792  
      10A     -1.366462    11A     -1.088236    12A     -0.988584  
      13A     -0.871329    14A     -0.811992    15A     -0.701345  
      16A     -0.672194    17A     -0.608903    18A     -0.591143  
      19A     -0.548481    20A     -0.530676    21A     -0.508170  
      22A     -0.491834    23A     -0.452178    24A     -0.447428  
      25A     -0.357158  

    Virtual:                                                              

      26A      0.026203    27A      0.036922    28A      0.038604  
      29A      0.041949    30A      0.058551    31A      0.061061  
      32A      0.062859    33A      0.066019    34A      0.092665  
      35A      0.095660    36A      0.109697    37A      0.118685  
      38A      0.124035    39A      0.128935    40A      0.134918  
      41A      0.136217    42A      0.140387    43A      0.146020  
      44A      0.155876    45A      0.165716    46A      0.169568  
      47A      0.185163    48A      0.189572    49A      0.199418  
      50A      0.210214    51A      0.213380    52A      0.221319  
      53A      0.230931    54A      0.234920    55A      0.243630  
      56A      0.250123    57A      0.267535    58A      0.277118  
      59A      0.288778    60A      0.294844    61A      0.302997  
      62A      0.314681    63A      0.319285    64A      0.324900  
      65A      0.334234    66A      0.340480    67A      0.345627  
      68A      0.357700    69A      0.369485    70A      0.373395  
      71A      0.380642    72A      0.384357    73A      0.387726  
      74A      0.390855    75A      0.392430    76A      0.397492  
      77A      0.404668    78A      0.408065    79A      0.422705  
      80A      0.426702    81A      0.433045    82A      0.435054  
      83A      0.441601    84A      0.449115    85A      0.450070  
      86A      0.456760    87A      0.462873    88A      0.473035  
      89A      0.479577    90A      0.485751    91A      0.497544  
      92A      0.504042    93A      0.513549    94A      0.520911  
      95A      0.524797    96A      0.533746    97A      0.547844  
      98A      0.557746    99A      0.558602   100A      0.568291  
     101A      0.581434   102A      0.596972   103A      0.606283  
     104A      0.616295   105A      0.620186   106A      0.646556  
     107A      0.652673   108A      0.678012   109A      0.683875  
     110A      0.692863   111A      0.717925   112A      0.728586  
     113A      0.736020   114A      0.756618   115A      0.769401  
     116A      0.772149   117A      0.775783   118A      0.788917  
     119A      0.802000   120A      0.813117   121A      0.818925  
     122A      0.822778   123A      0.826148   124A      0.839881  
     125A      0.847455   126A      0.857843   127A      0.867001  
     128A      0.884523   129A      0.891081   130A      0.894136  
     131A      0.898091   132A      0.901034   133A      0.915438  
     134A      0.920699   135A      0.927560   136A      0.938165  
     137A      0.941251   138A      0.949836   139A      0.966787  
     140A      0.981156   141A      0.982636   142A      0.991304  
     143A      1.007550   144A      1.013056   145A      1.019248  
     146A      1.029030   147A      1.036356   148A      1.058014  
     149A      1.061601   150A      1.077794   151A      1.079440  
     152A      1.091108   153A      1.101711   154A      1.107247  
     155A      1.118144   156A      1.124911   157A      1.131624  
     158A      1.146891   159A      1.148983   160A      1.156168  
     161A      1.165523   162A      1.186585   163A      1.197790  
     164A      1.204847   165A      1.218949   166A      1.221845  
     167A      1.232131   168A      1.238528   169A      1.242581  
     170A      1.250365   171A      1.271361   172A      1.277354  
     173A      1.290765   174A      1.300333   175A      1.324673  
     176A      1.333213   177A      1.351376   178A      1.359825  
     179A      1.390088   180A      1.394137   181A      1.403340  
     182A      1.423229   183A      1.427738   184A      1.452985  
     185A      1.457000   186A      1.474329   187A      1.478495  
     188A      1.499478   189A      1.506811   190A      1.523861  
     191A      1.539152   192A      1.550433   193A      1.553728  
     194A      1.567253   195A      1.586439   196A      1.596618  
     197A      1.607249   198A      1.628345   199A      1.641856  
     200A      1.643313   201A      1.659252   202A      1.663530  
     203A      1.673689   204A      1.691933   205A      1.704871  
     206A      1.712450   207A      1.722349   208A      1.730126  
     209A      1.739060   210A      1.741384   211A      1.751830  
     212A      1.764020   213A      1.783929   214A      1.796440  
     215A      1.801743   216A      1.812230   217A      1.830007  
     218A      1.858482   219A      1.873310   220A      1.881133  
     221A      1.895156   222A      1.902339   223A      1.939579  
     224A      1.954549   225A      1.965335   226A      1.980315  
     227A      1.990424   228A      2.005852   229A      2.025429  
     230A      2.042791   231A      2.061482   232A      2.075936  
     233A      2.086871   234A      2.118313   235A      2.140471  
     236A      2.182064   237A      2.191256   238A      2.200491  
     239A      2.225396   240A      2.237604   241A      2.249060  
     242A      2.283720   243A      2.294010   244A      2.301493  
     245A      2.315766   246A      2.325942   247A      2.347076  
     248A      2.364089   249A      2.403175   250A      2.420172  
     251A      2.439878   252A      2.443550   253A      2.492403  
     254A      2.506939   255A      2.511852   256A      2.546630  
     257A      2.559646   258A      2.571144   259A      2.590771  
     260A      2.599308   261A      2.620645   262A      2.659575  
     263A      2.688104   264A      2.712322   265A      2.722254  
     266A      2.765886   267A      2.827743   268A      2.847519  
     269A      2.881778   270A      2.896273   271A      2.920084  
     272A      2.968358   273A      2.973202   274A      2.998622  
     275A      3.019289   276A      3.072291   277A      3.074583  
     278A      3.142270   279A      3.152025   280A      3.213574  
     281A      3.223387   282A      3.327046   283A      3.351187  
     284A      3.400345   285A      3.410289   286A      3.454640  
     287A      3.494681   288A      3.525199   289A      3.555357  
     290A      3.574509   291A      3.613108   292A      3.625534  
     293A      3.633588   294A      3.669806   295A      3.684786  
     296A      3.709118   297A      3.726685   298A      3.760325  
     299A      3.774977   300A      3.796700   301A      3.810077  
     302A      3.837166   303A      3.855945   304A      3.871315  
     305A      3.919806   306A      3.932505   307A      3.933935  
     308A      3.964644   309A      3.967227   310A      3.985563  
     311A      4.005981   312A      4.018122   313A      4.046745  
     314A      4.064643   315A      4.079402   316A      4.102129  
     317A      4.104217   318A      4.121252   319A      4.149042  
     320A      4.181795   321A      4.194430   322A      4.217800  
     323A      4.256593   324A      4.269992   325A      4.283400  
     326A      4.290385   327A      4.296712   328A      4.339621  
     329A      4.357570   330A      4.387679   331A      4.395002  
     332A      4.410252   333A      4.438025   334A      4.452708  
     335A      4.476601   336A      4.493515   337A      4.546944  
     338A      4.555406   339A      4.598194   340A      4.603142  
     341A      4.615088   342A      4.627875   343A      4.662454  
     344A      4.675517   345A      4.698877   346A      4.714121  
     347A      4.742673   348A      4.756316   349A      4.778503  
     350A      4.788932   351A      4.821095   352A      4.869051  
     353A      4.886155   354A      4.902809   355A      4.919102  
     356A      4.942978   357A      4.974400   358A      5.018390  
     359A      5.073056   360A      5.094044   361A      5.102300  
     362A      5.117106   363A      5.134660   364A      5.161667  
     365A      5.180368   366A      5.193264   367A      5.206864  
     368A      5.243084   369A      5.271561   370A      5.283021  
     371A      5.331104   372A      5.362276   373A      5.393064  
     374A      5.425476   375A      5.440180   376A      5.480755  
     377A      5.515349   378A      5.550335   379A      5.566872  
     380A      5.588169   381A      5.632354   382A      5.657160  
     383A      5.662038   384A      5.703253   385A      5.717209  
     386A      5.811126   387A      5.885786   388A      5.975167  
     389A      6.008251   390A      6.097275   391A      6.134340  
     392A      6.145499   393A      6.169139   394A      6.203080  
     395A      6.284668   396A      6.401513   397A      6.432825  
     398A      6.692439   399A      6.728735   400A      6.760739  
     401A      6.911518   402A      6.927763   403A      6.930914  
     404A      7.114632   405A      7.330300   406A      7.395113  
     407A      7.511400   408A      7.539548   409A      7.586813  
     410A      7.819528   411A      7.929959   412A      8.065527  
     413A      8.238768   414A      8.614501   415A     15.967427  
     416A     17.134714   417A     17.912010   418A     18.580181  

    Final Occupation by Irrep:
              A 
    DOCC [    25 ]

  @DF-RHF Final Energy:  -590.73835519423335

   => Energetics <=

    Nuclear Repulsion Energy =            223.4756063872325740
    One-Electron Energy =               -1256.0540592493775875
    Two-Electron Energy =                 441.8400976679116638
    Total Energy =                       -590.7383551942333497

Computation Completed

*** tstop() called on node142.bme.utexas.edu at Thu Nov  5 13:57:23 2020
Module time:
	user time   =     109.50 seconds =       1.82 minutes
	system time =       4.63 seconds =       0.08 minutes
	total time  =         18 seconds =       0.30 minutes
Total time:
	user time   =     109.50 seconds =       1.82 minutes
	system time =       4.63 seconds =       0.08 minutes
	total time  =         18 seconds =       0.30 minutes
   => Loading Basis Set <=

    Name: (AUG-CC-PVTZ AUX)
    Role: RIFIT
    Keyword: DF_BASIS_MP2
    atoms 1    entry S          line   666 file /home/xy3866/psi4conda/share/psi4/basis/aug-cc-pvtz-ri.gbs 
    atoms 2    entry O          line   264 file /home/xy3866/psi4conda/share/psi4/basis/aug-cc-pvtz-ri.gbs 
    atoms 3-5  entry C          line   148 file /home/xy3866/psi4conda/share/psi4/basis/aug-cc-pvtz-ri.gbs 
    atoms 6-13 entry H          line    30 file /home/xy3866/psi4conda/share/psi4/basis/aug-cc-pvtz-ri.gbs 


*** tstart() called on node142.bme.utexas.edu
*** at Thu Nov  5 13:57:23 2020


  //>>>>>>>>>>>>>>>>>>>>>>>>>>>>>>>>>>>//
  //               DFMP2               //
  //<<<<<<<<<<<<<<<<<<<<<<<<<<<<<<<<<<<//

	 --------------------------------------------------------
	                          DF-MP2                         
	      2nd-Order Density-Fitted Moller-Plesset Theory     
	              RMP2 Wavefunction,   8 Threads             
	                                                         
	        Rob Parrish, Justin Turney, Andy Simmonett,      
	           Ed Hohenstein, and C. David Sherrill          
	 --------------------------------------------------------

   => Auxiliary Basis Set <=

  Basis Set: (AUG-CC-PVTZ AUX)
    Blend: AUG-CC-PVTZ-RI
    Number of shells: 261
    Number of basis function: 939
    Number of Cartesian functions: 1175
    Spherical Harmonics?: true
    Max angular momentum: 4

	 --------------------------------------------------------
	                 NBF =   418, NAUX =   939
	 --------------------------------------------------------
	   CLASS    FOCC     OCC    AOCC    AVIR     VIR    FVIR
	   PAIRS       0      25      25     393     393       0
	 --------------------------------------------------------

  DFHelper Memory: AOs need 1.232 GiB; user supplied 22.352 GiB. Using in-core AOs.


         ------------------------------------------------------------
                                     CPHF                           
                                  Rob Parrish                       
         ------------------------------------------------------------

  ==> Geometry <==

    Molecular point group: c1
    Full point group: C1

    Geometry (in Angstrom), charge = 0, multiplicity = 1:

       Center              X                  Y                   Z               Mass       
    ------------   -----------------  -----------------  -----------------  -----------------
         S           -2.267992054580    -0.163974464233    -0.066238059516    31.972071174400
         O            2.907259045420    -0.476644464233    -0.019966759516    15.994914619570
         C            0.534978945420    -0.264594464233    -0.015231059516    12.000000000000
         C           -0.659012054580     0.676779535767     0.073579940484    12.000000000000
         C            1.854064945420     0.484612535767     0.038240940484    12.000000000000
         H            0.490600945420    -0.841019464233    -0.943773059516     1.007825032230
         H            0.514446945420    -0.982861464233     0.811709940484     1.007825032230
         H           -0.643396054580     1.391253535767    -0.755542059516     1.007825032230
         H           -0.630356054580     1.257102535767     1.000575940484     1.007825032230
         H            1.921223945420     1.186450535767    -0.806625059516     1.007825032230
         H            1.917515945420     1.073622535767     0.965742940484     1.007825032230
         H           -2.101559054580    -0.969173464233     0.993940940484     1.007825032230
         H            3.741416945420    -0.026798464233     0.002103940484     1.007825032230

  Nuclear repulsion =  223.475606387232574
  Reference energy  = -590.738355194233350

  ==> Basis Set <==

  Basis Set: AUG-CC-PVTZ
    Blend: AUG-CC-PVTZ
    Number of shells: 144
    Number of basis function: 418
    Number of Cartesian functions: 479
    Spherical Harmonics?: true
    Max angular momentum: 3

  ==> CGRSolver (by Rob Parrish) <==

   Number of roots    =         1
   Preconditioning    =    JACOBI
   Convergence cutoff =     1E-06
   Maximum iterations =       100

  ==> CPHFRHamiltonian (by Rob Parrish) <== 

  ==> MemDFJK: Density-Fitted J/K Matrices <==

    J tasked:                   Yes
    K tasked:                   Yes
    wK tasked:                   No
    OpenMP threads:               8
    Memory [MiB]:             22888
    Algorithm:                 Core
    Schwarz Cutoff:           1E-12
    Mask sparsity (%):       2.5011
    Fitting Condition:        1E-10

   => Auxiliary Basis Set <=

  Basis Set: (AUG-CC-PVTZ AUX)
    Blend: AUG-CC-PVTZ-JKFIT
    Number of shells: 274
    Number of basis function: 930
    Number of Cartesian functions: 1144
    Spherical Harmonics?: true
    Max angular momentum: 4

  ==> CPHF Iterations <==

  => Iterations <=

             Iter  Converged  Remaining    Residual
  CGR           1          0          1   8.448E-02
  CGR           2          0          1   1.774E-02
  CGR           3          0          1   7.044E-03
  CGR           4          0          1   2.005E-03
  CGR           5          0          1   5.014E-04
  CGR           6          0          1   1.887E-04
  CGR           7          0          1   4.840E-05
  CGR           8          0          1   1.679E-05
  CGR           9          0          1   5.719E-06
  CGR          10          0          1   1.797E-06
  CGR          11          1          0   7.192E-07

    CGRSolver converged.

	-----------------------------------------------------------
	 ==================> DF-MP2 Energies <==================== 
	-----------------------------------------------------------
	 Reference Energy          =    -590.7383551942333497 [Eh]
	 Singles Energy            =      -0.0000000000000000 [Eh]
	 Same-Spin Energy          =      -0.2469401861249267 [Eh]
	 Opposite-Spin Energy      =      -0.8287183353644110 [Eh]
	 Correlation Energy        =      -1.0756585214893377 [Eh]
	 Total Energy              =    -591.8140137157226945 [Eh]
	-----------------------------------------------------------
	 ================> DF-SCS-MP2 Energies <================== 
	-----------------------------------------------------------
	 SCS Same-Spin Scale       =       0.3333333333333333 [-]
	 SCS Opposite-Spin Scale   =       1.2000000000000000 [-]
	 SCS Same-Spin Energy      =      -0.0823133953749756 [Eh]
	 SCS Opposite-Spin Energy  =      -0.9944620024372931 [Eh]
	 SCS Correlation Energy    =      -1.0767753978122687 [Eh]
	 SCS Total Energy          =    -591.8151305920456480 [Eh]
	-----------------------------------------------------------



Properties will be evaluated at  -0.000000,  -0.000000,   0.000000 [a0]

Properties computed using the MP2 density matrix

  Nuclear Dipole Moment: [e a0]
     X:     4.8382      Y:     1.9514      Z:     1.1870

  Electronic Dipole Moment: [e a0]
     X:    -4.1983      Y:    -1.2782      Z:    -0.9115

  Dipole Moment: [e a0]
     X:     0.6400      Y:     0.6731      Z:     0.2755     Total:     0.9688

  Dipole Moment: [D]
     X:     1.6267      Y:     1.7109      Z:     0.7002     Total:     2.4624


*** tstop() called on node142.bme.utexas.edu at Thu Nov  5 13:58:20 2020
Module time:
	user time   =     349.98 seconds =       5.83 minutes
	system time =       8.85 seconds =       0.15 minutes
	total time  =         57 seconds =       0.95 minutes
Total time:
	user time   =     460.39 seconds =       7.67 minutes
	system time =      13.52 seconds =       0.23 minutes
	total time  =         75 seconds =       1.25 minutes

    Psi4 stopped on: Thursday, 05 November 2020 01:58PM
    Psi4 wall time for execution: 0:01:14.61

*** Psi4 exiting successfully. Buy a developer a beer!
