6380                                                                    
Freq      RMP2-FC                                                     6-31G(d)            
Number of atoms                            I               17
Info1-9                                    I   N=           9
          29          27        1002           0           0         100
           6           2           1
Charge                                     I                1
Multiplicity                               I                1
Number of electrons                        I               42
Number of alpha electrons                  I               21
Number of beta electrons                   I               21
Number of basis functions                  I               99
Number of independent functions            I               99
Number of point charges in /Mol/           I                0
Number of translation vectors              I                0
Atomic numbers                             I   N=          17
           7           6           6           6           6           1
           1           1           1           1           1           1
           1           1           1           1           1
Nuclear charges                            R   N=          17
  7.00000000E+00  6.00000000E+00  6.00000000E+00  6.00000000E+00  6.00000000E+00
  1.00000000E+00  1.00000000E+00  1.00000000E+00  1.00000000E+00  1.00000000E+00
  1.00000000E+00  1.00000000E+00  1.00000000E+00  1.00000000E+00  1.00000000E+00
  1.00000000E+00  1.00000000E+00
Current cartesian coordinates              R   N=          51
 -3.44143619E-08  2.76721717E-07 -2.53588981E-07  2.81479418E+00  1.75163303E-01
 -3.10392336E-01 -6.30046096E-01 -3.26820661E-01  2.74705329E+00 -9.76464713E-01
 -2.22465412E+00 -1.46543752E+00 -1.20828306E+00  2.37631113E+00 -9.71223108E-01
  3.49878236E+00  1.79588681E+00  7.61468667E-01  3.66785239E+00 -1.55966079E+00
  4.01048099E-01  3.24613670E+00  4.11755919E-01 -2.31075181E+00 -2.67660894E+00
 -4.51295534E-01  2.94594590E+00  2.57469259E-01 -2.05662972E+00  3.42789720E+00
  8.84088783E-02  1.29891689E+00  3.78833657E+00 -3.01956257E+00 -2.33014441E+00
 -1.22440956E+00 -5.07190114E-01 -1.96404750E+00 -3.45424032E+00 -8.54850261E-02
 -3.93547565E+00 -7.42446629E-01 -3.24906060E+00  2.22479365E+00 -7.35126968E-01
 -4.84042314E-01  3.97501037E+00  1.07251450E-01 -7.36701619E-01  2.59089013E+00
 -2.96497276E+00
Force Field                                I                0
Int Atom Types                             I   N=          17
           0           0           0           0           0           0
           0           0           0           0           0           0
           0           0           0           0           0
MM charges                                 R   N=          17
  0.00000000E+00  0.00000000E+00  0.00000000E+00  0.00000000E+00  0.00000000E+00
  0.00000000E+00  0.00000000E+00  0.00000000E+00  0.00000000E+00  0.00000000E+00
  0.00000000E+00  0.00000000E+00  0.00000000E+00  0.00000000E+00  0.00000000E+00
  0.00000000E+00  0.00000000E+00
Integer atomic weights                     I   N=          17
          14          12          12          12          12           1
           1           1           1           1           1           1
           1           1           1           1           1
Real atomic weights                        R   N=          17
  1.40030740E+01  1.20000000E+01  1.20000000E+01  1.20000000E+01  1.20000000E+01
  1.00782504E+00  1.00782504E+00  1.00782504E+00  1.00782504E+00  1.00782504E+00
  1.00782504E+00  1.00782504E+00  1.00782504E+00  1.00782504E+00  1.00782504E+00
  1.00782504E+00  1.00782504E+00
Atom fragment info                         I   N=          17
           0           0           0           0           0           0
           0           0           0           0           0           0
           0           0           0           0           0
Atom residue num                           I   N=          17
           0           0           0           0           0           0
           0           0           0           0           0           0
           0           0           0           0           0
Nuclear spins                              I   N=          17
           2           0           0           0           0           1
           1           1           1           1           1           1
           1           1           1           1           1
Nuclear ZEff                               R   N=          17
 -4.55000000E+00 -3.60000000E+00 -3.60000000E+00 -3.60000000E+00 -3.60000000E+00
 -1.00000000E+00 -1.00000000E+00 -1.00000000E+00 -1.00000000E+00 -1.00000000E+00
 -1.00000000E+00 -1.00000000E+00 -1.00000000E+00 -1.00000000E+00 -1.00000000E+00
 -1.00000000E+00 -1.00000000E+00
Nuclear QMom                               R   N=          17
  2.04400000E+00  0.00000000E+00  0.00000000E+00  0.00000000E+00  0.00000000E+00
  0.00000000E+00  0.00000000E+00  0.00000000E+00  0.00000000E+00  0.00000000E+00
  0.00000000E+00  0.00000000E+00  0.00000000E+00  0.00000000E+00  0.00000000E+00
  0.00000000E+00  0.00000000E+00
Nuclear GFac                               R   N=          17
  4.03761000E-01  0.00000000E+00  0.00000000E+00  0.00000000E+00  0.00000000E+00
  2.79284600E+00  2.79284600E+00  2.79284600E+00  2.79284600E+00  2.79284600E+00
  2.79284600E+00  2.79284600E+00  2.79284600E+00  2.79284600E+00  2.79284600E+00
  2.79284600E+00  2.79284600E+00
MicOpt                                     I   N=          17
          -1          -1          -1          -1          -1          -1
          -1          -1          -1          -1          -1          -1
          -1          -1          -1          -1          -1
Number of contracted shells                I               44
Number of primitive shells                 I              103
Pure/Cartesian d shells                    I                1
Pure/Cartesian f shells                    I                0
Highest angular momentum                   I                2
Largest degree of contraction              I                6
Shell types                                I   N=          44
           0          -1          -1           2           0          -1
          -1           2           0          -1          -1           2
           0          -1          -1           2           0          -1
          -1           2           0           0           0           0
           0           0           0           0           0           0
           0           0           0           0           0           0
           0           0           0           0           0           0
           0           0
Number of primitives per shell             I   N=          44
           6           3           1           1           6           3
           1           1           6           3           1           1
           6           3           1           1           6           3
           1           1           3           1           3           1
           3           1           3           1           3           1
           3           1           3           1           3           1
           3           1           3           1           3           1
           3           1
Shell to atom map                          I   N=          44
           1           1           1           1           2           2
           2           2           3           3           3           3
           4           4           4           4           5           5
           5           5           6           6           7           7
           8           8           9           9          10          10
          11          11          12          12          13          13
          14          14          15          15          16          16
          17          17
Primitive exponents                        R   N=         103
  4.17351146E+03  6.27457911E+02  1.42902093E+02  4.02343293E+01  1.28202129E+01
  4.39043701E+00  1.16263619E+01  2.71627981E+00  7.72218397E-01  2.12031498E-01
  8.00000000E-01  3.04752488E+03  4.57369518E+02  1.03948685E+02  2.92101553E+01
  9.28666296E+00  3.16392696E+00  7.86827235E+00  1.88128854E+00  5.44249258E-01
  1.68714478E-01  8.00000000E-01  3.04752488E+03  4.57369518E+02  1.03948685E+02
  2.92101553E+01  9.28666296E+00  3.16392696E+00  7.86827235E+00  1.88128854E+00
  5.44249258E-01  1.68714478E-01  8.00000000E-01  3.04752488E+03  4.57369518E+02
  1.03948685E+02  2.92101553E+01  9.28666296E+00  3.16392696E+00  7.86827235E+00
  1.88128854E+00  5.44249258E-01  1.68714478E-01  8.00000000E-01  3.04752488E+03
  4.57369518E+02  1.03948685E+02  2.92101553E+01  9.28666296E+00  3.16392696E+00
  7.86827235E+00  1.88128854E+00  5.44249258E-01  1.68714478E-01  8.00000000E-01
  1.87311370E+01  2.82539436E+00  6.40121692E-01  1.61277759E-01  1.87311370E+01
  2.82539436E+00  6.40121692E-01  1.61277759E-01  1.87311370E+01  2.82539436E+00
  6.40121692E-01  1.61277759E-01  1.87311370E+01  2.82539436E+00  6.40121692E-01
  1.61277759E-01  1.87311370E+01  2.82539436E+00  6.40121692E-01  1.61277759E-01
  1.87311370E+01  2.82539436E+00  6.40121692E-01  1.61277759E-01  1.87311370E+01
  2.82539436E+00  6.40121692E-01  1.61277759E-01  1.87311370E+01  2.82539436E+00
  6.40121692E-01  1.61277759E-01  1.87311370E+01  2.82539436E+00  6.40121692E-01
  1.61277759E-01  1.87311370E+01  2.82539436E+00  6.40121692E-01  1.61277759E-01
  1.87311370E+01  2.82539436E+00  6.40121692E-01  1.61277759E-01  1.87311370E+01
  2.82539436E+00  6.40121692E-01  1.61277759E-01
Contraction coefficients                   R   N=         103
  1.83477216E-03  1.39946270E-02  6.85865518E-02  2.32240873E-01  4.69069948E-01
  3.60455199E-01 -1.14961182E-01 -1.69117479E-01  1.14585195E+00  1.00000000E+00
  1.00000000E+00  1.83473713E-03  1.40373228E-02  6.88426223E-02  2.32184443E-01
  4.67941348E-01  3.62311985E-01 -1.19332420E-01 -1.60854152E-01  1.14345644E+00
  1.00000000E+00  1.00000000E+00  1.83473713E-03  1.40373228E-02  6.88426223E-02
  2.32184443E-01  4.67941348E-01  3.62311985E-01 -1.19332420E-01 -1.60854152E-01
  1.14345644E+00  1.00000000E+00  1.00000000E+00  1.83473713E-03  1.40373228E-02
  6.88426223E-02  2.32184443E-01  4.67941348E-01  3.62311985E-01 -1.19332420E-01
 -1.60854152E-01  1.14345644E+00  1.00000000E+00  1.00000000E+00  1.83473713E-03
  1.40373228E-02  6.88426223E-02  2.32184443E-01  4.67941348E-01  3.62311985E-01
 -1.19332420E-01 -1.60854152E-01  1.14345644E+00  1.00000000E+00  1.00000000E+00
  3.34946043E-02  2.34726953E-01  8.13757326E-01  1.00000000E+00  3.34946043E-02
  2.34726953E-01  8.13757326E-01  1.00000000E+00  3.34946043E-02  2.34726953E-01
  8.13757326E-01  1.00000000E+00  3.34946043E-02  2.34726953E-01  8.13757326E-01
  1.00000000E+00  3.34946043E-02  2.34726953E-01  8.13757326E-01  1.00000000E+00
  3.34946043E-02  2.34726953E-01  8.13757326E-01  1.00000000E+00  3.34946043E-02
  2.34726953E-01  8.13757326E-01  1.00000000E+00  3.34946043E-02  2.34726953E-01
  8.13757326E-01  1.00000000E+00  3.34946043E-02  2.34726953E-01  8.13757326E-01
  1.00000000E+00  3.34946043E-02  2.34726953E-01  8.13757326E-01  1.00000000E+00
  3.34946043E-02  2.34726953E-01  8.13757326E-01  1.00000000E+00  3.34946043E-02
  2.34726953E-01  8.13757326E-01  1.00000000E+00
P(S=P) Contraction coefficients            R   N=         103
  0.00000000E+00  0.00000000E+00  0.00000000E+00  0.00000000E+00  0.00000000E+00
  0.00000000E+00  6.75797439E-02  3.23907296E-01  7.40895140E-01  1.00000000E+00
  0.00000000E+00  0.00000000E+00  0.00000000E+00  0.00000000E+00  0.00000000E+00
  0.00000000E+00  0.00000000E+00  6.89990666E-02  3.16423961E-01  7.44308291E-01
  1.00000000E+00  0.00000000E+00  0.00000000E+00  0.00000000E+00  0.00000000E+00
  0.00000000E+00  0.00000000E+00  0.00000000E+00  6.89990666E-02  3.16423961E-01
  7.44308291E-01  1.00000000E+00  0.00000000E+00  0.00000000E+00  0.00000000E+00
  0.00000000E+00  0.00000000E+00  0.00000000E+00  0.00000000E+00  6.89990666E-02
  3.16423961E-01  7.44308291E-01  1.00000000E+00  0.00000000E+00  0.00000000E+00
  0.00000000E+00  0.00000000E+00  0.00000000E+00  0.00000000E+00  0.00000000E+00
  6.89990666E-02  3.16423961E-01  7.44308291E-01  1.00000000E+00  0.00000000E+00
  0.00000000E+00  0.00000000E+00  0.00000000E+00  0.00000000E+00  0.00000000E+00
  0.00000000E+00  0.00000000E+00  0.00000000E+00  0.00000000E+00  0.00000000E+00
  0.00000000E+00  0.00000000E+00  0.00000000E+00  0.00000000E+00  0.00000000E+00
  0.00000000E+00  0.00000000E+00  0.00000000E+00  0.00000000E+00  0.00000000E+00
  0.00000000E+00  0.00000000E+00  0.00000000E+00  0.00000000E+00  0.00000000E+00
  0.00000000E+00  0.00000000E+00  0.00000000E+00  0.00000000E+00  0.00000000E+00
  0.00000000E+00  0.00000000E+00  0.00000000E+00  0.00000000E+00  0.00000000E+00
  0.00000000E+00  0.00000000E+00  0.00000000E+00  0.00000000E+00  0.00000000E+00
  0.00000000E+00  0.00000000E+00  0.00000000E+00  0.00000000E+00  0.00000000E+00
  0.00000000E+00  0.00000000E+00  0.00000000E+00
Coordinates of each shell                  R   N=         132
 -3.44143619E-08  2.76721717E-07 -2.53588981E-07 -3.44143619E-08  2.76721717E-07
 -2.53588981E-07 -3.44143619E-08  2.76721717E-07 -2.53588981E-07 -3.44143619E-08
  2.76721717E-07 -2.53588981E-07  2.81479418E+00  1.75163303E-01 -3.10392336E-01
  2.81479418E+00  1.75163303E-01 -3.10392336E-01  2.81479418E+00  1.75163303E-01
 -3.10392336E-01  2.81479418E+00  1.75163303E-01 -3.10392336E-01 -6.30046096E-01
 -3.26820661E-01  2.74705329E+00 -6.30046096E-01 -3.26820661E-01  2.74705329E+00
 -6.30046096E-01 -3.26820661E-01  2.74705329E+00 -6.30046096E-01 -3.26820661E-01
  2.74705329E+00 -9.76464713E-01 -2.22465412E+00 -1.46543752E+00 -9.76464713E-01
 -2.22465412E+00 -1.46543752E+00 -9.76464713E-01 -2.22465412E+00 -1.46543752E+00
 -9.76464713E-01 -2.22465412E+00 -1.46543752E+00 -1.20828306E+00  2.37631113E+00
 -9.71223108E-01 -1.20828306E+00  2.37631113E+00 -9.71223108E-01 -1.20828306E+00
  2.37631113E+00 -9.71223108E-01 -1.20828306E+00  2.37631113E+00 -9.71223108E-01
  3.49878236E+00  1.79588681E+00  7.61468667E-01  3.49878236E+00  1.79588681E+00
  7.61468667E-01  3.66785239E+00 -1.55966079E+00  4.01048099E-01  3.66785239E+00
 -1.55966079E+00  4.01048099E-01  3.24613670E+00  4.11755919E-01 -2.31075181E+00
  3.24613670E+00  4.11755919E-01 -2.31075181E+00 -2.67660894E+00 -4.51295534E-01
  2.94594590E+00 -2.67660894E+00 -4.51295534E-01  2.94594590E+00  2.57469259E-01
 -2.05662972E+00  3.42789720E+00  2.57469259E-01 -2.05662972E+00  3.42789720E+00
  8.84088783E-02  1.29891689E+00  3.78833657E+00  8.84088783E-02  1.29891689E+00
  3.78833657E+00 -3.01956257E+00 -2.33014441E+00 -1.22440956E+00 -3.01956257E+00
 -2.33014441E+00 -1.22440956E+00 -5.07190114E-01 -1.96404750E+00 -3.45424032E+00
 -5.07190114E-01 -1.96404750E+00 -3.45424032E+00 -8.54850261E-02 -3.93547565E+00
 -7.42446629E-01 -8.54850261E-02 -3.93547565E+00 -7.42446629E-01 -3.24906060E+00
  2.22479365E+00 -7.35126968E-01 -3.24906060E+00  2.22479365E+00 -7.35126968E-01
 -4.84042314E-01  3.97501037E+00  1.07251450E-01 -4.84042314E-01  3.97501037E+00
  1.07251450E-01 -7.36701619E-01  2.59089013E+00 -2.96497276E+00 -7.36701619E-01
  2.59089013E+00 -2.96497276E+00
Constraint Structure                       R   N=          51
 -3.44143619E-08  2.76721717E-07 -2.53588981E-07  2.81479418E+00  1.75163303E-01
 -3.10392336E-01 -6.30046096E-01 -3.26820661E-01  2.74705329E+00 -9.76464713E-01
 -2.22465412E+00 -1.46543752E+00 -1.20828306E+00  2.37631113E+00 -9.71223108E-01
  3.49878236E+00  1.79588681E+00  7.61468667E-01  3.66785239E+00 -1.55966079E+00
  4.01048099E-01  3.24613670E+00  4.11755919E-01 -2.31075181E+00 -2.67660894E+00
 -4.51295534E-01  2.94594590E+00  2.57469259E-01 -2.05662972E+00  3.42789720E+00
  8.84088783E-02  1.29891689E+00  3.78833657E+00 -3.01956257E+00 -2.33014441E+00
 -1.22440956E+00 -5.07190114E-01 -1.96404750E+00 -3.45424032E+00 -8.54850261E-02
 -3.93547565E+00 -7.42446629E-01 -3.24906060E+00  2.22479365E+00 -7.35126968E-01
 -4.84042314E-01  3.97501037E+00  1.07251450E-01 -7.36701619E-01  2.59089013E+00
 -2.96497276E+00
Num ILSW                                   I              100
ILSW                                       I   N=         100
           0           1           0           0           2           0
           0           0           0           0           0          -1
           0           0           0           0           0           0
           0           0           0           0           1           0
           1           0           0           0           0           0
           0           0      100000           0          -1           0
           0           0           0           0           0           0
           0           0           0           1           1           0
           0           0           1           0           0           0
           0           0           4          40           0           0
           0           0           0           0           0           0
           0           0           0           0           0           0
           0           0           0           0           0           0
           0           0           0           0           0           0
           0           0           0           0           0           0
           0           0           0           0           0           0
           0           0           0           0
Num RLSW                                   I               40
RLSW                                       R   N=          40
  1.00000000E+00  1.00000000E+00  1.00000000E+00  1.00000000E+00  1.00000000E+00
  0.00000000E+00  0.00000000E+00  1.00000000E+00  0.00000000E+00  0.00000000E+00
  0.00000000E+00  0.00000000E+00  1.00000000E+00  0.00000000E+00  0.00000000E+00
  0.00000000E+00  0.00000000E+00  1.00000000E+00  0.00000000E+00  0.00000000E+00
  0.00000000E+00  0.00000000E+00  1.00000000E+00  0.00000000E+00  0.00000000E+00
  0.00000000E+00  0.00000000E+00  1.00000000E+00  0.00000000E+00  0.00000000E+00
  0.00000000E+00  0.00000000E+00  0.00000000E+00  0.00000000E+00  0.00000000E+00
  0.00000000E+00  0.00000000E+00  0.00000000E+00  1.00000000E+00  1.00000000E+00
MxBond                                     I                4
NBond                                      I   N=          17
           4           4           4           4           4           1
           1           1           1           1           1           1
           1           1           1           1           1
IBond                                      I   N=          68
           2           3           4           5           1           6
           7           8           1           9          10          11
           1          12          13          14           1          15
          16          17           2           0           0           0
           2           0           0           0           2           0
           0           0           3           0           0           0
           3           0           0           0           3           0
           0           0           4           0           0           0
           4           0           0           0           4           0
           0           0           5           0           0           0
           5           0           0           0           5           0
           0           0
RBond                                      R   N=          68
  1.00000000E+00  1.00000000E+00  1.00000000E+00  1.00000000E+00  1.00000000E+00
  1.00000000E+00  1.00000000E+00  1.00000000E+00  1.00000000E+00  1.00000000E+00
  1.00000000E+00  1.00000000E+00  1.00000000E+00  1.00000000E+00  1.00000000E+00
  1.00000000E+00  1.00000000E+00  1.00000000E+00  1.00000000E+00  1.00000000E+00
  1.00000000E+00  0.00000000E+00  0.00000000E+00  0.00000000E+00  1.00000000E+00
  0.00000000E+00  0.00000000E+00  0.00000000E+00  1.00000000E+00  0.00000000E+00
  0.00000000E+00  0.00000000E+00  1.00000000E+00  0.00000000E+00  0.00000000E+00
  0.00000000E+00  1.00000000E+00  0.00000000E+00  0.00000000E+00  0.00000000E+00
  1.00000000E+00  0.00000000E+00  0.00000000E+00  0.00000000E+00  1.00000000E+00
  0.00000000E+00  0.00000000E+00  0.00000000E+00  1.00000000E+00  0.00000000E+00
  0.00000000E+00  0.00000000E+00  1.00000000E+00  0.00000000E+00  0.00000000E+00
  0.00000000E+00  1.00000000E+00  0.00000000E+00  0.00000000E+00  0.00000000E+00
  1.00000000E+00  0.00000000E+00  0.00000000E+00  0.00000000E+00  1.00000000E+00
  0.00000000E+00  0.00000000E+00  0.00000000E+00
Virial Ratio                               R      2.001758456919424E+00
SCF Energy                                 R     -2.126840503747372E+02
MP2 Energy                                 R     -2.133745548703298E+02
Total Energy                               R     -2.133745548703298E+02
Post-SCF wavefunction norm                 R      1.563193754222106E+00
RMS Force                                  R      1.793085926610429E-07
RMS Density                                R      1.326730221382750E-09
External E-field                           R   N=          35
  0.00000000E+00  0.00000000E+00  0.00000000E+00  0.00000000E+00  0.00000000E+00
  0.00000000E+00  0.00000000E+00  0.00000000E+00  0.00000000E+00  0.00000000E+00
  0.00000000E+00  0.00000000E+00  0.00000000E+00  0.00000000E+00  0.00000000E+00
  0.00000000E+00  0.00000000E+00  0.00000000E+00  0.00000000E+00  0.00000000E+00
  0.00000000E+00  0.00000000E+00  0.00000000E+00  0.00000000E+00  0.00000000E+00
  0.00000000E+00  0.00000000E+00  0.00000000E+00  0.00000000E+00  0.00000000E+00
  0.00000000E+00  0.00000000E+00  0.00000000E+00  0.00000000E+00  0.00000000E+00
IOpCl                                      I                0
IROHF                                      I                0
Alpha Orbital Energies                     R   N=          99
 -1.58791349E+01 -1.14582908E+01 -1.14582907E+01 -1.14582907E+01 -1.14582580E+01
 -1.51555991E+00 -1.17675957E+00 -1.17675954E+00 -1.17675951E+00 -1.02531105E+00
 -8.73986089E-01 -8.73986032E-01 -8.73985973E-01 -7.84508342E-01 -7.84508334E-01
 -7.34895761E-01 -7.34895730E-01 -7.34895646E-01 -7.22884992E-01 -7.22884876E-01
 -7.22884729E-01  1.20067289E-02  8.65782960E-02  8.65784197E-02  8.65784720E-02
  1.01946745E-01  1.28039276E-01  1.28039370E-01  1.28039402E-01  1.44728356E-01
  1.44728361E-01  1.75745058E-01  1.75745471E-01  1.75745539E-01  2.01308847E-01
  2.01308893E-01  2.01308995E-01  4.98416244E-01  4.98416247E-01  5.12612083E-01
  5.12612099E-01  5.12612132E-01  6.36054310E-01  6.74144643E-01  6.74144790E-01
  6.74144919E-01  8.48562825E-01  8.48562884E-01  8.48562903E-01  8.91183516E-01
  8.91183557E-01  8.91183679E-01  9.29128058E-01  9.60311704E-01  9.60311775E-01
  9.60311940E-01  9.97166118E-01  1.01365170E+00  1.01365171E+00  1.03833037E+00
  1.03833056E+00  1.03833088E+00  1.06520520E+00  1.06520525E+00  1.06520535E+00
  1.40891378E+00  1.40891380E+00  1.56360757E+00  1.56360825E+00  1.56360858E+00
  1.81846973E+00  1.81846993E+00  1.81847032E+00  1.86671329E+00  2.02050308E+00
  2.02050480E+00  2.02050511E+00  2.21278027E+00  2.21278029E+00  2.22453535E+00
  2.22453538E+00  2.22453567E+00  2.34140608E+00  2.37767739E+00  2.37767756E+00
  2.37767787E+00  2.38340856E+00  2.38340858E+00  2.38340862E+00  2.71163662E+00
  2.71163663E+00  2.85146729E+00  2.85146797E+00  2.85146820E+00  4.30877382E+00
  4.51170873E+00  4.51170875E+00  4.51170876E+00  4.62691465E+00
Alpha MO coefficients                      R   N=        9801
  9.95174083E-01  2.51616593E-02 -1.77995121E-09 -7.31126953E-11  5.92833610E-10
 -4.80023097E-03  2.78602483E-09  5.96577407E-10 -1.40673724E-09 -3.07582511E-03
 -3.07582380E-03 -3.07582352E-03 -1.30869967E-10  8.49348450E-11 -8.33711955E-11
 -5.53235977E-06  1.42075863E-04 -3.40187813E-04 -2.11697130E-05  3.75131488E-05
  1.31951139E-03 -4.48858398E-04 -2.79322101E-05  4.94961745E-05 -3.13917094E-05
 -5.08238628E-05 -5.06621933E-05  1.40175208E-06 -2.48395033E-06 -1.54552006E-07
 -5.53205985E-06  1.42077571E-04  7.61455192E-05  3.94986269E-05 -3.32001278E-04
  1.31951643E-03  1.00470165E-04  5.21166773E-05 -4.38058020E-04 -4.99220423E-05
 -5.06363980E-05 -3.23212538E-05  5.85338926E-07 -4.92003845E-06 -2.55218494E-06
 -5.53211727E-06  1.42077275E-04  1.18012661E-04  2.68865454E-04  1.77108707E-04
  1.31951510E-03  1.55711524E-04  3.54753447E-04  2.33685149E-04 -4.85519380E-05
 -3.87150543E-05 -4.56123125E-05  6.17532984E-06  4.06783401E-06  9.26778092E-06
 -5.53208778E-06  1.42077514E-04  1.46029519E-04 -2.87194217E-04  1.17379326E-04
  1.31951489E-03  1.92678497E-04 -3.78937081E-04  1.54875251E-04 -4.73050935E-05
 -3.69973631E-05 -4.85770956E-05 -8.16217854E-06  3.33598433E-06 -6.56089871E-06
 -7.79768899E-05 -1.36611456E-04 -7.79767559E-05 -1.36611875E-04 -7.79768597E-05
 -1.36611856E-04 -7.79770233E-05 -1.36611968E-04 -7.79770820E-05 -1.36611753E-04
 -7.79769671E-05 -1.36612554E-04 -7.79769035E-05 -1.36612043E-04 -7.79770913E-05
 -1.36611797E-04 -7.79769340E-05 -1.36612082E-04 -7.79769897E-05 -1.36611467E-04
 -7.79769938E-05 -1.36611859E-04 -7.79769267E-05 -1.36612444E-04 -5.75475462E-07
  3.05220044E-06  2.59433803E-04  1.37400279E-05 -2.18401043E-05  5.33575946E-07
  1.56706966E-04  8.30392970E-06 -1.31924363E-05 -4.33692721E-04  2.27499230E-04
  2.03992485E-04 -5.00877025E-05  8.89990224E-05  5.59158348E-06  8.63565297E-01
  2.48496243E-02 -9.80986675E-04 -6.00006189E-05  1.05231022E-04 -1.30975616E-02
  1.16864390E-03  6.04878330E-05 -9.44237656E-05 -1.49932284E-03 -1.33790037E-03
 -1.33744865E-03 -1.01481167E-05  1.65857629E-05  8.82616420E-07 -2.64325568E-01
 -7.60901407E-03 -1.72341831E-04 -3.68304709E-05  2.68835283E-04  4.01952413E-03
  1.31016877E-03  6.46386843E-05 -6.67077825E-05  4.88147505E-04  3.89786679E-04
  3.98628793E-04  2.13102708E-05 -1.44997145E-04 -7.54649080E-06 -2.92247369E-01
 -8.41255222E-03 -2.14782469E-04 -2.38178994E-04 -1.43456136E-04  4.44327073E-03
  1.30286857E-03  3.00774669E-05 -1.37403824E-04  5.60285001E-04  4.33004497E-04
  4.18223001E-04  1.14578454E-04  6.12793568E-05 -1.24091108E-05 -3.01243876E-01
 -8.67145475E-03 -2.42861700E-04  2.49688853E-04 -9.49922082E-05  4.57979874E-03
  1.29803940E-03  1.13830659E-04 -1.29096641E-04  5.93471610E-04  4.23860643E-04
  4.37661250E-04 -1.08025595E-04  3.56575104E-05  1.70960680E-05  2.26703445E-04
  2.13633229E-03  2.25202546E-04  2.12893067E-03  2.31363727E-04  2.15928993E-03
  5.87942036E-05 -2.02829999E-05 -1.35604799E-04 -9.78120770E-04 -1.34104026E-04
 -9.70718228E-04  4.98619867E-05 -9.72008424E-05 -1.38375801E-04 -1.02467889E-03
 -1.44537305E-04 -1.05503278E-03  4.69843991E-05 -1.21983447E-04 -1.45913488E-04
 -1.07242355E-03 -1.41253376E-04 -1.04945856E-03 -2.05490657E-08  1.08926531E-07
 -1.37041810E-05  2.60351179E-04  1.00312418E-06  1.78043289E-08 -8.28066186E-06
  1.57262621E-04  6.11549468E-07 -3.44231744E-05 -6.44700993E-05  9.88146612E-05
  2.97627570E-04 -5.26726468E-06  3.15310290E-04  7.88277968E-03  2.26773276E-04
 -1.96235193E-06 -1.13755717E-04  4.37406558E-07 -1.19341780E-04 -7.11531420E-05
  1.32494885E-03  5.26012060E-06  3.69567584E-06 -2.31372896E-05 -1.86907806E-05
 -1.63046691E-04 -1.07279748E-06 -5.68126609E-06 -8.58740406E-02 -2.47137680E-03
 -1.33611802E-05 -1.23285489E-04  8.38145613E-05  1.30352566E-03 -7.31054175E-05
  1.32329818E-03  1.97433975E-05  1.30586074E-04  1.64518293E-04  1.19901374E-04
  1.08355863E-05  8.85332112E-06 -1.60709971E-04 -6.61357389E-01 -1.90327401E-02
 -2.24678829E-04 -6.38725747E-04 -3.46573160E-04  1.00371787E-02 -1.09863079E-04
  1.23364417E-03 -5.50987277E-05  1.00595870E-03  1.19315095E-03  9.97279412E-04
  1.37448876E-05 -9.80696932E-06  3.89463143E-05  7.39553477E-01  2.12829237E-02
  3.25101884E-04 -7.40911140E-04  2.56090200E-04 -1.12233203E-02 -1.42120518E-05
  1.21582475E-03  4.97414746E-05 -1.12845008E-03 -1.31211570E-03 -1.13382289E-03
  3.32097165E-05  3.88949083E-06  1.59345134E-05 -1.07882604E-04 -5.22207024E-04
  1.25920723E-04  6.29776786E-04 -1.18376497E-05 -4.89775365E-05 -2.61825465E-05
 -2.30162276E-04  9.59289723E-05  3.71502662E-04 -1.37874540E-04 -7.80482145E-04
 -2.10278503E-04 -1.81546637E-03 -2.25924666E-04 -1.89256803E-03 -8.81665287E-05
 -1.21380643E-03  2.37868307E-04  2.04368517E-03  1.26176327E-04  1.49335837E-03
  2.22221375E-04  1.96658194E-03  6.18903549E-08 -3.28416134E-07  2.18629246E-05
  1.49969530E-07  2.59794925E-04 -5.61088594E-08  1.32051315E-05  8.59970795E-08
  1.56929623E-04  5.58629218E-05  2.93485140E-04 -3.49111115E-04 -5.81479245E-06
  2.03620486E-04  1.25899104E-04 -2.23923136E-02 -6.44172920E-04  1.29987009E-05
  1.33522502E-06 -1.15502824E-04  3.38963861E-04  1.15258091E-04  1.01328928E-06
  1.32176732E-03  8.62794308E-06  1.43410776E-05  8.53589591E-05 -5.10827356E-07
 -1.55382658E-04 -1.74451728E-05  8.15819045E-01  2.34780257E-02  1.74062333E-04
  9.51595737E-05 -9.13417110E-04 -1.23819045E-02  1.43190540E-04  1.73186173E-05
  1.18303982E-03 -1.24537825E-03 -1.26758196E-03 -1.42989271E-03  2.95248027E-06
 -3.17995925E-06  2.98290855E-06 -4.69318333E-01 -1.35058899E-02 -1.73179861E-04
 -3.72948603E-04 -3.58648637E-04  7.12159974E-03  8.27670419E-05 -6.41691307E-05
  1.27943911E-03  7.18910284E-04  6.84595795E-04  8.64871206E-04  3.00726914E-06
  3.74574070E-05  9.40971471E-05 -3.24726965E-01 -9.34481394E-03 -1.49640827E-04
  2.75525473E-04 -2.25656811E-04  4.92725519E-03  8.68617448E-05  4.87669912E-05
  1.30258821E-03  4.99246023E-04  4.66015143E-04  6.04288199E-04 -3.39257062E-06
  4.90943816E-05 -1.24161268E-04 -8.54060237E-05 -4.47369040E-04 -6.12754095E-05
 -3.28468582E-04  1.29074897E-04  6.09414279E-04  2.57324135E-04  2.22920199E-03
  2.06865647E-04  1.98059015E-03  1.82734896E-04  1.86168652E-03 -1.53787124E-04