216_THF Gaussian SP Calculation on node58.bme.utexas.edu                
Freq      RMP2-FC                                                     6-31G(d)            
Number of atoms                            I               13
Info1-9                                    I   N=           9
          24          23        1002           0           0         100
           6           2           1
Charge                                     I                0
Multiplicity                               I                1
Number of electrons                        I               40
Number of alpha electrons                  I               20
Number of beta electrons                   I               20
Number of basis functions                  I               91
Number of independent functions            I               91
Number of point charges in /Mol/           I                0
Number of translation vectors              I                0
Atomic numbers                             I   N=          13
           8           6           6           6           6           1
           1           1           1           1           1           1
           1
Nuclear charges                            R   N=          13
  8.00000000E+00  6.00000000E+00  6.00000000E+00  6.00000000E+00  6.00000000E+00
  1.00000000E+00  1.00000000E+00  1.00000000E+00  1.00000000E+00  1.00000000E+00
  1.00000000E+00  1.00000000E+00  1.00000000E+00
Current cartesian coordinates              R   N=          39
  8.86323835E-06 -2.36637483E+00 -2.36949899E-05  1.36861803E+00  1.86832242E+00
  4.57944130E-01 -1.36864388E+00  1.86829974E+00 -4.57958315E-01  2.19920013E+00
 -7.95734999E-01 -2.62415435E-01 -2.19918462E+00 -7.95755091E-01  2.62446224E-01
  2.53707314E+00  3.33604935E+00 -4.08808380E-01  1.43421155E+00  2.11216085E+00
  2.51183681E+00 -2.53711506E+00  3.33602712E+00  4.08771958E-01 -1.43424390E+00
  2.11209933E+00 -2.51185543E+00  2.86035342E+00 -8.62403373E-01 -2.22997064E+00
  3.69065265E+00 -1.55563568E+00  9.52526473E-01 -2.86026972E+00 -8.62409821E-01
  2.23002608E+00 -3.69067097E+00 -1.55568148E+00 -9.52436936E-01
Force Field                                I                0
Int Atom Types                             I   N=          13
           0           0           0           0           0           0
           0           0           0           0           0           0
           0
MM charges                                 R   N=          13
  0.00000000E+00  0.00000000E+00  0.00000000E+00  0.00000000E+00  0.00000000E+00
  0.00000000E+00  0.00000000E+00  0.00000000E+00  0.00000000E+00  0.00000000E+00
  0.00000000E+00  0.00000000E+00  0.00000000E+00
Integer atomic weights                     I   N=          13
          16          12          12          12          12           1
           1           1           1           1           1           1
           1
Real atomic weights                        R   N=          13
  1.59949146E+01  1.20000000E+01  1.20000000E+01  1.20000000E+01  1.20000000E+01
  1.00782504E+00  1.00782504E+00  1.00782504E+00  1.00782504E+00  1.00782504E+00
  1.00782504E+00  1.00782504E+00  1.00782504E+00
Atom fragment info                         I   N=          13
           0           0           0           0           0           0
           0           0           0           0           0           0
           0
Atom residue num                           I   N=          13
           0           0           0           0           0           0
           0           0           0           0           0           0
           0
Nuclear spins                              I   N=          13
           0           0           0           0           0           1
           1           1           1           1           1           1
           1
Nuclear ZEff                               R   N=          13
 -5.60000000E+00 -3.60000000E+00 -3.60000000E+00 -3.60000000E+00 -3.60000000E+00
 -1.00000000E+00 -1.00000000E+00 -1.00000000E+00 -1.00000000E+00 -1.00000000E+00
 -1.00000000E+00 -1.00000000E+00 -1.00000000E+00
Nuclear QMom                               R   N=          13
  0.00000000E+00  0.00000000E+00  0.00000000E+00  0.00000000E+00  0.00000000E+00
  0.00000000E+00  0.00000000E+00  0.00000000E+00  0.00000000E+00  0.00000000E+00
  0.00000000E+00  0.00000000E+00  0.00000000E+00
Nuclear GFac                               R   N=          13
  0.00000000E+00  0.00000000E+00  0.00000000E+00  0.00000000E+00  0.00000000E+00
  2.79284600E+00  2.79284600E+00  2.79284600E+00  2.79284600E+00  2.79284600E+00
  2.79284600E+00  2.79284600E+00  2.79284600E+00
MicOpt                                     I   N=          13
          -1          -1          -1          -1          -1          -1
          -1          -1          -1          -1          -1          -1
          -1
Number of contracted shells                I               36
Number of primitive shells                 I               87
Pure/Cartesian d shells                    I                1
Pure/Cartesian f shells                    I                0
Highest angular momentum                   I                2
Largest degree of contraction              I                6
Shell types                                I   N=          36
           0          -1          -1           2           0          -1
          -1           2           0          -1          -1           2
           0          -1          -1           2           0          -1
          -1           2           0           0           0           0
           0           0           0           0           0           0
           0           0           0           0           0           0
Number of primitives per shell             I   N=          36
           6           3           1           1           6           3
           1           1           6           3           1           1
           6           3           1           1           6           3
           1           1           3           1           3           1
           3           1           3           1           3           1
           3           1           3           1           3           1
Shell to atom map                          I   N=          36
           1           1           1           1           2           2
           2           2           3           3           3           3
           4           4           4           4           5           5
           5           5           6           6           7           7
           8           8           9           9          10          10
          11          11          12          12          13          13
Primitive exponents                        R   N=          87
  5.48467166E+03  8.25234946E+02  1.88046958E+02  5.29645000E+01  1.68975704E+01
  5.79963534E+00  1.55396162E+01  3.59993359E+00  1.01376175E+00  2.70005823E-01
  8.00000000E-01  3.04752488E+03  4.57369518E+02  1.03948685E+02  2.92101553E+01
  9.28666296E+00  3.16392696E+00  7.86827235E+00  1.88128854E+00  5.44249258E-01
  1.68714478E-01  8.00000000E-01  3.04752488E+03  4.57369518E+02  1.03948685E+02
  2.92101553E+01  9.28666296E+00  3.16392696E+00  7.86827235E+00  1.88128854E+00
  5.44249258E-01  1.68714478E-01  8.00000000E-01  3.04752488E+03  4.57369518E+02
  1.03948685E+02  2.92101553E+01  9.28666296E+00  3.16392696E+00  7.86827235E+00
  1.88128854E+00  5.44249258E-01  1.68714478E-01  8.00000000E-01  3.04752488E+03
  4.57369518E+02  1.03948685E+02  2.92101553E+01  9.28666296E+00  3.16392696E+00
  7.86827235E+00  1.88128854E+00  5.44249258E-01  1.68714478E-01  8.00000000E-01
  1.87311370E+01  2.82539436E+00  6.40121692E-01  1.61277759E-01  1.87311370E+01
  2.82539436E+00  6.40121692E-01  1.61277759E-01  1.87311370E+01  2.82539436E+00
  6.40121692E-01  1.61277759E-01  1.87311370E+01  2.82539436E+00  6.40121692E-01
  1.61277759E-01  1.87311370E+01  2.82539436E+00  6.40121692E-01  1.61277759E-01
  1.87311370E+01  2.82539436E+00  6.40121692E-01  1.61277759E-01  1.87311370E+01
  2.82539436E+00  6.40121692E-01  1.61277759E-01  1.87311370E+01  2.82539436E+00
  6.40121692E-01  1.61277759E-01
Contraction coefficients                   R   N=          87
  1.83107443E-03  1.39501722E-02  6.84450781E-02  2.32714336E-01  4.70192898E-01
  3.58520853E-01 -1.10777550E-01 -1.48026263E-01  1.13076702E+00  1.00000000E+00
  1.00000000E+00  1.83473713E-03  1.40373228E-02  6.88426223E-02  2.32184443E-01
  4.67941348E-01  3.62311985E-01 -1.19332420E-01 -1.60854152E-01  1.14345644E+00
  1.00000000E+00  1.00000000E+00  1.83473713E-03  1.40373228E-02  6.88426223E-02
  2.32184443E-01  4.67941348E-01  3.62311985E-01 -1.19332420E-01 -1.60854152E-01
  1.14345644E+00  1.00000000E+00  1.00000000E+00  1.83473713E-03  1.40373228E-02
  6.88426223E-02  2.32184443E-01  4.67941348E-01  3.62311985E-01 -1.19332420E-01
 -1.60854152E-01  1.14345644E+00  1.00000000E+00  1.00000000E+00  1.83473713E-03
  1.40373228E-02  6.88426223E-02  2.32184443E-01  4.67941348E-01  3.62311985E-01
 -1.19332420E-01 -1.60854152E-01  1.14345644E+00  1.00000000E+00  1.00000000E+00
  3.34946043E-02  2.34726953E-01  8.13757326E-01  1.00000000E+00  3.34946043E-02
  2.34726953E-01  8.13757326E-01  1.00000000E+00  3.34946043E-02  2.34726953E-01
  8.13757326E-01  1.00000000E+00  3.34946043E-02  2.34726953E-01  8.13757326E-01
  1.00000000E+00  3.34946043E-02  2.34726953E-01  8.13757326E-01  1.00000000E+00
  3.34946043E-02  2.34726953E-01  8.13757326E-01  1.00000000E+00  3.34946043E-02
  2.34726953E-01  8.13757326E-01  1.00000000E+00  3.34946043E-02  2.34726953E-01
  8.13757326E-01  1.00000000E+00
P(S=P) Contraction coefficients            R   N=          87
  0.00000000E+00  0.00000000E+00  0.00000000E+00  0.00000000E+00  0.00000000E+00
  0.00000000E+00  7.08742682E-02  3.39752839E-01  7.27158577E-01  1.00000000E+00
  0.00000000E+00  0.00000000E+00  0.00000000E+00  0.00000000E+00  0.00000000E+00
  0.00000000E+00  0.00000000E+00  6.89990666E-02  3.16423961E-01  7.44308291E-01
  1.00000000E+00  0.00000000E+00  0.00000000E+00  0.00000000E+00  0.00000000E+00
  0.00000000E+00  0.00000000E+00  0.00000000E+00  6.89990666E-02  3.16423961E-01
  7.44308291E-01  1.00000000E+00  0.00000000E+00  0.00000000E+00  0.00000000E+00
  0.00000000E+00  0.00000000E+00  0.00000000E+00  0.00000000E+00  6.89990666E-02
  3.16423961E-01  7.44308291E-01  1.00000000E+00  0.00000000E+00  0.00000000E+00
  0.00000000E+00  0.00000000E+00  0.00000000E+00  0.00000000E+00  0.00000000E+00
  6.89990666E-02  3.16423961E-01  7.44308291E-01  1.00000000E+00  0.00000000E+00
  0.00000000E+00  0.00000000E+00  0.00000000E+00  0.00000000E+00  0.00000000E+00
  0.00000000E+00  0.00000000E+00  0.00000000E+00  0.00000000E+00  0.00000000E+00
  0.00000000E+00  0.00000000E+00  0.00000000E+00  0.00000000E+00  0.00000000E+00
  0.00000000E+00  0.00000000E+00  0.00000000E+00  0.00000000E+00  0.00000000E+00
  0.00000000E+00  0.00000000E+00  0.00000000E+00  0.00000000E+00  0.00000000E+00
  0.00000000E+00  0.00000000E+00  0.00000000E+00  0.00000000E+00  0.00000000E+00
  0.00000000E+00  0.00000000E+00
Coordinates of each shell                  R   N=         108
  8.86323835E-06 -2.36637483E+00 -2.36949899E-05  8.86323835E-06 -2.36637483E+00
 -2.36949899E-05  8.86323835E-06 -2.36637483E+00 -2.36949899E-05  8.86323835E-06
 -2.36637483E+00 -2.36949899E-05  1.36861803E+00  1.86832242E+00  4.57944130E-01
  1.36861803E+00  1.86832242E+00  4.57944130E-01  1.36861803E+00  1.86832242E+00
  4.57944130E-01  1.36861803E+00  1.86832242E+00  4.57944130E-01 -1.36864388E+00
  1.86829974E+00 -4.57958315E-01 -1.36864388E+00  1.86829974E+00 -4.57958315E-01
 -1.36864388E+00  1.86829974E+00 -4.57958315E-01 -1.36864388E+00  1.86829974E+00
 -4.57958315E-01  2.19920013E+00 -7.95734999E-01 -2.62415435E-01  2.19920013E+00
 -7.95734999E-01 -2.62415435E-01  2.19920013E+00 -7.95734999E-01 -2.62415435E-01
  2.19920013E+00 -7.95734999E-01 -2.62415435E-01 -2.19918462E+00 -7.95755091E-01
  2.62446224E-01 -2.19918462E+00 -7.95755091E-01  2.62446224E-01 -2.19918462E+00
 -7.95755091E-01  2.62446224E-01 -2.19918462E+00 -7.95755091E-01  2.62446224E-01
  2.53707314E+00  3.33604935E+00 -4.08808380E-01  2.53707314E+00  3.33604935E+00
 -4.08808380E-01  1.43421155E+00  2.11216085E+00  2.51183681E+00  1.43421155E+00
  2.11216085E+00  2.51183681E+00 -2.53711506E+00  3.33602712E+00  4.08771958E-01
 -2.53711506E+00  3.33602712E+00  4.08771958E-01 -1.43424390E+00  2.11209933E+00
 -2.51185543E+00 -1.43424390E+00  2.11209933E+00 -2.51185543E+00  2.86035342E+00
 -8.62403373E-01 -2.22997064E+00  2.86035342E+00 -8.62403373E-01 -2.22997064E+00
  3.69065265E+00 -1.55563568E+00  9.52526473E-01  3.69065265E+00 -1.55563568E+00
  9.52526473E-01 -2.86026972E+00 -8.62409821E-01  2.23002608E+00 -2.86026972E+00
 -8.62409821E-01  2.23002608E+00 -3.69067097E+00 -1.55568148E+00 -9.52436936E-01
 -3.69067097E+00 -1.55568148E+00 -9.52436936E-01
Constraint Structure                       R   N=          39
  8.86323835E-06 -2.36637483E+00 -2.36949899E-05  1.36861803E+00  1.86832242E+00
  4.57944130E-01 -1.36864388E+00  1.86829974E+00 -4.57958315E-01  2.19920013E+00
 -7.95734999E-01 -2.62415435E-01 -2.19918462E+00 -7.95755091E-01  2.62446224E-01
  2.53707314E+00  3.33604935E+00 -4.08808380E-01  1.43421155E+00  2.11216085E+00
  2.51183681E+00 -2.53711506E+00  3.33602712E+00  4.08771958E-01 -1.43424390E+00
  2.11209933E+00 -2.51185543E+00  2.86035342E+00 -8.62403373E-01 -2.22997064E+00
  3.69065265E+00 -1.55563568E+00  9.52526473E-01 -2.86026972E+00 -8.62409821E-01
  2.23002608E+00 -3.69067097E+00 -1.55568148E+00 -9.52436936E-01
Num ILSW                                   I              100
ILSW                                       I   N=         100
           0           1           0           0           2           0
           0           0           0           0           0          -1
           0           0           0           0           0           0
           0           0           0           0           1           0
           1           0           0           0           0           0
           0           0      100000           0          -1           0
           0           0           0           0           0           0
           0           0           0           1           1           0
           0           0           1           0           0           0
           0           0           4          40           0           0
           0           0           0           0           0           0
           0           0           0           0           0           0
           0           0           0           0           0           0
           0           0           0           0           0           0
           0           0           0           0           0           0
           0           0           0           0           0           0
           0           0           0           0
Num RLSW                                   I               40
RLSW                                       R   N=          40
  1.00000000E+00  1.00000000E+00  1.00000000E+00  1.00000000E+00  1.00000000E+00
  0.00000000E+00  0.00000000E+00  1.00000000E+00  0.00000000E+00  0.00000000E+00
  0.00000000E+00  0.00000000E+00  1.00000000E+00  0.00000000E+00  0.00000000E+00
  0.00000000E+00  0.00000000E+00  1.00000000E+00  0.00000000E+00  0.00000000E+00
  0.00000000E+00  0.00000000E+00  1.00000000E+00  0.00000000E+00  0.00000000E+00
  0.00000000E+00  0.00000000E+00  1.00000000E+00  0.00000000E+00  0.00000000E+00
  0.00000000E+00  0.00000000E+00  0.00000000E+00  0.00000000E+00  0.00000000E+00
  0.00000000E+00  0.00000000E+00  0.00000000E+00  1.00000000E+00  1.00000000E+00
MxBond                                     I                4
NBond                                      I   N=          13
           2           4           4           4           4           1
           1           1           1           1           1           1
           1
IBond                                      I   N=          52
           4           5           0           0           3           4
           6           7           2           5           8           9
           1           2          10          11           1           3
          12          13           2           0           0           0
           2           0           0           0           3           0
           0           0           3           0           0           0
           4           0           0           0           4           0
           0           0           5           0           0           0
           5           0           0           0
RBond                                      R   N=          52
  1.00000000E+00  1.00000000E+00  0.00000000E+00  0.00000000E+00  1.00000000E+00
  1.00000000E+00  1.00000000E+00  1.00000000E+00  1.00000000E+00  1.00000000E+00
  1.00000000E+00  1.00000000E+00  1.00000000E+00  1.00000000E+00  1.00000000E+00
  1.00000000E+00  1.00000000E+00  1.00000000E+00  1.00000000E+00  1.00000000E+00
  1.00000000E+00  0.00000000E+00  0.00000000E+00  0.00000000E+00  1.00000000E+00
  0.00000000E+00  0.00000000E+00  0.00000000E+00  1.00000000E+00  0.00000000E+00
  0.00000000E+00  0.00000000E+00  1.00000000E+00  0.00000000E+00  0.00000000E+00
  0.00000000E+00  1.00000000E+00  0.00000000E+00  0.00000000E+00  0.00000000E+00
  1.00000000E+00  0.00000000E+00  0.00000000E+00  0.00000000E+00  1.00000000E+00
  0.00000000E+00  0.00000000E+00  0.00000000E+00  1.00000000E+00  0.00000000E+00
  0.00000000E+00  0.00000000E+00
Virial Ratio                               R      2.001814213323562E+00
SCF Energy                                 R     -2.309746674088764E+02
MP2 Energy                                 R     -2.316702015296838E+02
Total Energy                               R     -2.316702015296838E+02
Post-SCF wavefunction norm                 R      1.561702939986654E+00
RMS Force                                  R      2.519470388006852E-06
RMS Density                                R      1.751114138199116E-09
External E-field                           R   N=          35
  0.00000000E+00  0.00000000E+00  0.00000000E+00  0.00000000E+00  0.00000000E+00
  0.00000000E+00  0.00000000E+00  0.00000000E+00  0.00000000E+00  0.00000000E+00
  0.00000000E+00  0.00000000E+00  0.00000000E+00  0.00000000E+00  0.00000000E+00
  0.00000000E+00  0.00000000E+00  0.00000000E+00  0.00000000E+00  0.00000000E+00
  0.00000000E+00  0.00000000E+00  0.00000000E+00  0.00000000E+00  0.00000000E+00
  0.00000000E+00  0.00000000E+00  0.00000000E+00  0.00000000E+00  0.00000000E+00
  0.00000000E+00  0.00000000E+00  0.00000000E+00  0.00000000E+00  0.00000000E+00
IOpCl                                      I                0
IROHF                                      I                0
Alpha Orbital Energies                     R   N=          91
 -2.05471344E+01 -1.12698280E+01 -1.12698085E+01 -1.12274905E+01 -1.12268838E+01
 -1.35794011E+00 -1.06162472E+00 -9.88880152E-01 -8.08321864E-01 -8.07122001E-01
 -6.81265772E-01 -6.69960834E-01 -5.87684064E-01 -5.87206563E-01 -5.55564112E-01
 -5.02213331E-01 -4.94288081E-01 -4.76612993E-01 -4.61379136E-01 -4.03184746E-01
  2.26927949E-01  2.58966451E-01  2.88327249E-01  3.06857836E-01  3.09095235E-01
  3.11601528E-01  3.27040531E-01  3.52878479E-01  3.59536345E-01  3.70996795E-01
  4.15403272E-01  4.31677864E-01  4.88542204E-01  7.26810531E-01  7.28060616E-01
  7.34630688E-01  7.86289648E-01  8.06340937E-01  8.25677057E-01  8.98434789E-01
  9.26478626E-01  9.58653107E-01  9.85443863E-01  1.01161775E+00  1.08770735E+00
  1.10920602E+00  1.12577607E+00  1.14043734E+00  1.15211434E+00  1.16878823E+00
  1.18806335E+00  1.19016870E+00  1.21167052E+00  1.21633830E+00  1.37791389E+00
  1.39668585E+00  1.43164557E+00  1.55576802E+00  1.62727600E+00  1.69232323E+00
  1.74254033E+00  1.79648116E+00  1.92386097E+00  2.00522384E+00  2.10671717E+00
  2.12285433E+00  2.17666913E+00  2.20515662E+00  2.32291840E+00  2.33207594E+00
  2.33395015E+00  2.34958988E+00  2.41471565E+00  2.47578188E+00  2.55772048E+00
  2.56914018E+00  2.70096934E+00  2.71711284E+00  2.78810058E+00  2.79559684E+00
  2.86362242E+00  2.88318456E+00  3.01268263E+00  3.05498516E+00  3.11685486E+00
  3.33409640E+00  4.40810775E+00  4.61627680E+00  4.65717328E+00  4.88787752E+00
  4.96447672E+00
Alpha MO coefficients                      R   N=        8281
  9.94678533E-01  2.12026613E-02 -1.95706678E-09  1.25272005E-03  3.54402071E-08
  3.70836158E-03 -3.30273919E-10 -7.51205429E-04 -2.11668994E-08 -4.18111352E-03
 -4.04890466E-03 -3.77825043E-03 -2.49528445E-09  5.99636549E-05 -8.36793712E-09
  7.75402294E-07  4.27363596E-05  1.59066186E-05  5.03596212E-05 -6.56896781E-06
 -2.78363876E-04 -1.34123844E-04  8.90094389E-05  1.87112192E-04 -9.57939007E-06
 -5.62089955E-05 -2.10594272E-05 -3.27940745E-06  3.05752425E-06 -4.52225290E-06
  7.74310050E-07  4.27307886E-05 -1.59069806E-05  5.03614382E-05  6.57068671E-06
 -2.78333279E-04  1.34124080E-04  8.89856985E-05 -1.87126433E-04 -9.58151938E-06
 -5.62092246E-05 -2.10609178E-05  3.27967739E-06  3.05824427E-06  4.52271819E-06
 -1.98488002E-05  2.00955311E-04 -3.16323793E-04 -2.34976953E-04  4.41881287E-05
  2.46525584E-04 -1.83274027E-05  3.71900435E-04 -3.91930375E-05  6.27860386E-05
  9.08069421E-06 -5.69244625E-05  5.70303595E-05 -2.71623577E-05  2.96131443E-06
 -1.98487097E-05  2.00958148E-04  3.16322970E-04 -2.34975441E-04 -4.42003476E-05
  2.46510287E-04  1.83281564E-05  3.71897222E-04  3.92186451E-05  6.27833033E-05
  9.07794428E-06 -5.69230369E-05 -5.70296214E-05 -2.71659122E-05 -2.96084152E-06
  3.60378606E-05  5.51799714E-05  3.07042451E-06 -8.75092789E-05  3.60385632E-05
  5.51866694E-05  3.06714088E-06 -8.75180183E-05 -2.96272776E-05 -8.01204190E-05
 -1.08878654E-06 -7.46992665E-06 -2.96305171E-05 -8.01290852E-05 -1.08522767E-06
 -7.46225196E-06 -2.27303284E-08  1.13489326E-08 -1.51394251E-04  1.94535146E-08
  1.53190862E-05  2.70803310E-07 -2.29473272E-04 -3.05803296E-08  6.99217351E-05
 -8.29559279E-08 -4.86946785E-08  3.04528407E-09  5.28740897E-04  2.32516682E-08
 -5.17632214E-05 -5.08886060E-03 -3.90132630E-04  1.04615462E-05  8.92960118E-05
 -1.92879734E-05 -2.51036343E-03 -9.77309688E-04  9.01979275E-04  5.67259823E-04
  1.65330299E-04  3.15421034E-04  6.17562374E-05  3.57431816E-05  2.98414001E-05
  4.94580707E-05  5.08984790E-03  3.90138825E-04  1.04499543E-05 -8.92982149E-05
 -1.92779863E-05  2.51086626E-03 -9.77310449E-04 -9.02240924E-04  5.67241879E-04
 -1.65348527E-04 -3.15477374E-04 -6.17810907E-05  3.57194761E-05 -2.98498870E-05
  4.94796156E-05 -7.04148816E-01 -1.97152835E-02  5.30149662E-04  1.74983930E-04
 -3.51249411E-05  1.07367341E-02 -7.86805700E-04  9.44648804E-04 -6.10462089E-05
  1.09761042E-03  1.06062540E-03  9.68482221E-04 -1.86349369E-05 -4.29321807E-05
  4.16956811E-05  7.04288813E-01  1.97191197E-02  5.30261890E-04 -1.75023517E-04
 -3.51351626E-05 -1.07386527E-02 -7.86840517E-04 -9.44753471E-04 -6.10942209E-05
 -1.09778232E-03 -1.06083967E-03 -9.68703552E-04 -1.86352974E-05  4.29261173E-05
  4.17058682E-05  1.19500684E-04  4.19684924E-04  5.09026897E-05 -1.68252702E-04
 -1.19516105E-04 -4.19615940E-04 -5.09388284E-05  1.68216017E-04 -1.54193967E-04
 -1.90576054E-03 -6.00836587E-05 -1.55742218E-03  1.54222175E-04  1.90616703E-03
  6.00918567E-05  1.55772172E-03 -2.13599806E-04  1.64482118E-04  1.56471946E-08
  2.10587815E-04  4.49975542E-09  2.43012279E-03  1.78537751E-08 -3.81649164E-04
 -2.23479823E-08 -7.76089632E-04 -5.03653699E-04  7.94065443E-05 -5.61704465E-08
  1.17591599E-04 -9.82379004E-09  4.92858288E-03  5.24950412E-05  6.32366553E-05
 -7.65880138E-06 -4.27409642E-05  2.42434366E-03  1.32375827E-04 -1.19926157E-03
  2.49428399E-04 -8.90917061E-05 -2.99285260E-04 -1.20654158E-04  1.15063742E-04
 -3.09761860E-05 -9.87031528E-05  4.92757751E-03  5.24099991E-05 -6.32410486E-05
 -7.63531894E-06  4.27483432E-05  2.42389574E-03 -1.32158571E-04 -1.19915560E-03
 -2.49538197E-04 -8.90597290E-05 -2.99221138E-04 -1.20645961E-04 -1.15065065E-04
 -3.09680152E-05  9.86969773E-05  7.04237088E-01  1.92585067E-02 -5.33804571E-04
 -2.31887613E-04  3.32985880E-05 -9.46813188E-03 -3.78079102E-05 -3.73321554E-04
 -1.64377680E-05 -8.83708065E-04 -1.09178544E-03 -1.09014791E-03  1.87814407E-05
 -2.49856858E-05 -2.95633484E-05  7.04097082E-01  1.92545975E-02  5.33698658E-04
 -2.31851534E-04 -3.33098104E-05 -9.46606939E-03  3.79573463E-05 -3.73147959E-04
  1.65214087E-05 -8.83488632E-04 -1.09157425E-03 -1.08995529E-03 -1.87764448E-05
 -2.49941334E-05  2.95570677E-05 -7.37101783E-05  3.06824159E-04 -1.89781259E-04
 -1.98002402E-04 -7.36827417E-05  3.06932325E-04 -1.89780472E-04 -1.98026770E-04
  7.26854660E-05  1.89248354E-03  8.13264596E-05  1.74773480E-03  7.26483571E-05
  1.89208256E-03  8.13228101E-05  1.74744661E-03  2.44047757E-05  1.19135953E-05
 -5.33629140E-09 -2.44234986E-05  7.78934154E-10 -9.09233400E-04 -1.85020434E-08
 -2.62764778E-04 -2.85301074E-08  5.01411001E-05  1.71025530E-04 -3.33144086E-05
  2.37857877E-09  7.54072491E-06  8.33386818E-09  7.04196095E-01  2.04118273E-02
 -2.03348861E-04 -1.24392777E-04 -1.91098122E-05 -9.68313784E-03 -5.43550356E-04
  1.29035372E-03 -1.71320025E-04 -1.46915480E-03 -1.26192252E-03 -1.19155525E-03
  4.84443102E-05 -1.22412219E-04 -5.74112229E-05  7.03931431E-01  2.04042247E-02
  2.03342375E-04 -1.24329296E-04  1.91164333E-05 -9.67735717E-03  5.44272198E-04
  1.28999158E-03  1.71490121E-04 -1.46883980E-03 -1.26153750E-03 -1.19117393E-03
 -4.84256664E-05 -1.22433316E-04  5.74142984E-05 -5.18988835E-03 -3.36321158E-04
 -4.83009961E-05  1.76572136E-05  5.87150912E-05  4.02497865E-03 -7.42670916E-04
  1.51562340E-03  6.36430893E-05 -8.05497813E-05 -3.21210098E-04 -1.14700144E-04
  9.29494175E-06  4.87578191E-05 -7.25137650E-05 -5.18792087E-03 -3.36353752E-04
  4.82825225E-05  1.76077994E-05 -5.87310408E-05  4.02380414E-03  7.42621991E-04
  1.51525190E-03 -6.33075694E-05 -8.04787321E-05 -3.21098008E-04 -1.14686501E-04
 -9.23837845E-06  4.87606426E-05  7.24930343E-05 -1.11885392E-05  1.50614192E-03
  7.54401012E-05  1.99591955E-03 -1.12649405E-05  1.50550200E-03  7.53185397E-05
  1.99516996E-03 -2.08587608E-04 -2.53635080E-04 -1.40944977E-04  1.44991149E-04
 -2.08566017E-04 -2.53745477E-04 -1.40886805E-04  1.45186974E-04 -4.75891020E-10
 -2.08229803E-08  2.80713907E-05 -8.09922499E-09 -1.81987903E-06 -5.92001298E-08
  8.48890886E-05 -1.03087455E-08  1.18127612E-04 -7.77810778E-09  2.23440499E-08
 -2.07639971E-08 -2.92950116E-05  1.04205872E-09 -5.91988431E-05 -7.04128258E-01
 -2.02266478E-02  2.90606105E-05  1.54691639E-04 -3.94215437E-06  1.53856181E-02
 -1.96117823E-03 -9.95561465E-04 -5.31614534E-04  8.38115673E-04  1.02448789E-03
  1.02420701E-03 -6.25148109E-05 -5.57816610E-05 -8.93375032E-06  7.04392845E-01
  2.02343132E-02  2.91384582E-05 -1.54740739E-04 -3.92896991E-06 -1.53892066E-02
 -1.96097752E-03  9.95986887E-04 -5.31568655E-04 -8.38671693E-04 -1.02496006E-03
 -1.02465615E-03 -6.25308424E-05  5.57373405E-05 -8.91324232E-06  5.25788322E-03
 -7.97236351E-05  3.93540961E-05 -1.32277588E-04  4.97786812E-05 -3.13950619E-03
  1.25481659E-04 -1.03424168E-03 -1.00556617E-03  1.87430786E-04  2.89539232E-04
  4.22480519E-05 -1.32840314E-04  3.80551107E-06  6.66698834E-05 -5.25983936E-03
  7.96122402E-05  3.93641764E-05  1.32290467E-04  4.97558820E-05  3.14090646E-03
  1.25660292E-04  1.03478794E-03 -1.00560379E-03 -1.87463988E-04 -2.89657894E-04
 -4.22919404E-05 -1.32842535E-04 -3.78336565E-06  6.67022485E-05 -2.03225361E-04
 -1.70631162E-03 -3.21020283E-04 -1.97744936E-03  2.03220052E-04  1.70688533E-03
  3.21045383E-04  1.97819685E-03  5.99487127E-05 -3.32507181E-04  1.54520262E-04
  5.11656788E-04 -6.00177951E-05  3.32417210E-04 -1.54568632E-04 -5.11615129E-04
 -1.92405888E-01  4.24890981E-01 -4.09351455E-07  8.16179833E-02  1.89438362E-06
  4.30242845E-01 -1.42436293E-07  5.97157328E-02  1.35882716E-06  1.37143018E-02
  1.22860997E-02 -3.81072786E-03  4.23558064E-08 -2.39851014E-03  4.30236772E-07
 -2.39072680E-02  4.19170613E-02 -7.73367288E-03 -2.68115751E-02 -6.57312409E-03
  3.52892257E-02 -2.16819645E-03 -1.00980360E-02 -1.52851970E-03  5.87001026E-04
  4.87463622E-03 -6.00562908E-04 -2.61130198E-04  4.35095592E-04  1.84802736E-03
 -2.39073614E-02  4.19176010E-02  7.73397341E-03 -2.68116689E-02  6.57331237E-03
  3.52877193E-02  2.16767519E-03 -1.00972261E-02  1.52860417E-03  5.86999137E-04
  4.87461985E-03 -6.00469921E-04  2.61102774E-04  4.35090971E-04 -1.84809551E-03
 -6.71901336E-02  1.25161525E-01 -7.54823360E-02 -3.68868439E-02  9.94488430E-03
  3.22482990E-02  7.86075146E-03 -2.62444135E-03 -1.87424011E-03  1.41807682E-02
  2.86224878E-03 -4.67125595E-03  1.22611233E-02 -2.63373218E-03 -1.64625620E-03
 -6.71904486E-02  1.25162031E-01  7.54826763E-02 -3.68862757E-02 -9.94730736E-03
  3.22492088E-02 -7.86050685E-03 -2.62425915E-03  1.87436893E-03  1.41808520E-02
  2.86209676E-03 -4.67116611E-03 -1.22609654E-02 -2.63441115E-03  1.64668810E-03
  5.82376383E-03 -1.10848605E-04  8.19729634E-03  7.18075730E-04  5.82379113E-03
 -1.11170614E-04  8.19754745E-03  7.18234144E-04  2.35850837E-02  1.24202564E-03
  2.26757271E-02  1.33592805E-03  2.35851695E-02  1.24195263E-03  2.26758006E-02
  1.33599690E-03  7.27829632E-02 -1.64568024E-01 -5.32920114E-07  3.17669769E-02
 -7.41527031E-08 -2.00708371E-01 -1.64522320E-07  9.00141457E-03 -1.33695049E-07
 -3.60399286E-03  3.00214170E-03 -1.63586644E-03 -7.10678370E-08  4.03247576E-04
  5.10598498E-08 -1.33115426E-01  2.45900974E-01 -4.99561065E-02 -2.03568104E-02
 -2.17090620E-02  2.10720837E-01 -8.58023529E-03 -5.04251646E-03 -3.01776722E-03
  9.83389218E-03  2.96383366E-03  3.57281260E-03  2.80030407E-03  2.81162559E-03
  9.01997538E-04 -1.33115527E-01  2.45901267E-01  4.99561307E-02 -2.03562744E-02