080_1-Butylamine Gaussian SP Calculation on g2-node38.bme.utexas.edu    
Freq      RMP2-FC                                                     6-31G(d)            
Number of atoms                            I               16
Info1-9                                    I   N=           9
          27          26        1002           0           0         100
           6           2           1
Charge                                     I                0
Multiplicity                               I                1
Number of electrons                        I               42
Number of alpha electrons                  I               21
Number of beta electrons                   I               21
Number of basis functions                  I               97
Number of independent functions            I               97
Number of point charges in /Mol/           I                0
Number of translation vectors              I                0
Atomic numbers                             I   N=          16
           7           6           6           6           6           1
           1           1           1           1           1           1
           1           1           1           1
Nuclear charges                            R   N=          16
  7.00000000E+00  6.00000000E+00  6.00000000E+00  6.00000000E+00  6.00000000E+00
  1.00000000E+00  1.00000000E+00  1.00000000E+00  1.00000000E+00  1.00000000E+00
  1.00000000E+00  1.00000000E+00  1.00000000E+00  1.00000000E+00  1.00000000E+00
  1.00000000E+00
Current cartesian coordinates              R   N=          48
 -4.66321777E+00 -7.17270253E-01 -1.88563583E-01 -3.27662179E-02 -6.16252744E-01
 -6.24374944E-02  2.35667536E+00  9.94651646E-01  6.74870073E-02 -2.45089667E+00
  9.39518195E-01  3.64844360E-02  4.76797627E+00 -5.85602943E-01 -2.79869679E-02
 -4.86415503E-02 -1.73556930E+00 -1.80471036E+00 -3.03361483E-02 -1.97152700E+00
  1.51171792E+00  2.33435609E+00  2.12232777E+00  1.80750564E+00  2.35161991E+00
  2.34732885E+00 -1.50395699E+00 -2.44162976E+00  2.10807339E+00  1.76420234E+00
 -2.48355372E+00  2.24914208E+00 -1.56755609E+00  6.45622605E+00  6.04104413E-01
  6.13908892E-02  4.84103198E+00 -1.91269789E+00  1.55656618E+00  4.85614878E+00
 -1.68557829E+00 -1.77670304E+00 -6.27169009E+00  3.42185221E-01 -1.82843963E-01
 -4.76693959E+00 -1.84078239E+00  1.37305067E+00
Force Field                                I                0
Int Atom Types                             I   N=          16
           0           0           0           0           0           0
           0           0           0           0           0           0
           0           0           0           0
MM charges                                 R   N=          16
  0.00000000E+00  0.00000000E+00  0.00000000E+00  0.00000000E+00  0.00000000E+00
  0.00000000E+00  0.00000000E+00  0.00000000E+00  0.00000000E+00  0.00000000E+00
  0.00000000E+00  0.00000000E+00  0.00000000E+00  0.00000000E+00  0.00000000E+00
  0.00000000E+00
Integer atomic weights                     I   N=          16
          14          12          12          12          12           1
           1           1           1           1           1           1
           1           1           1           1
Real atomic weights                        R   N=          16
  1.40030740E+01  1.20000000E+01  1.20000000E+01  1.20000000E+01  1.20000000E+01
  1.00782504E+00  1.00782504E+00  1.00782504E+00  1.00782504E+00  1.00782504E+00
  1.00782504E+00  1.00782504E+00  1.00782504E+00  1.00782504E+00  1.00782504E+00
  1.00782504E+00
Atom fragment info                         I   N=          16
           0           0           0           0           0           0
           0           0           0           0           0           0
           0           0           0           0
Atom residue num                           I   N=          16
           0           0           0           0           0           0
           0           0           0           0           0           0
           0           0           0           0
Nuclear spins                              I   N=          16
           2           0           0           0           0           1
           1           1           1           1           1           1
           1           1           1           1
Nuclear ZEff                               R   N=          16
 -4.55000000E+00 -3.60000000E+00 -3.60000000E+00 -3.60000000E+00 -3.60000000E+00
 -1.00000000E+00 -1.00000000E+00 -1.00000000E+00 -1.00000000E+00 -1.00000000E+00
 -1.00000000E+00 -1.00000000E+00 -1.00000000E+00 -1.00000000E+00 -1.00000000E+00
 -1.00000000E+00
Nuclear QMom                               R   N=          16
  2.04400000E+00  0.00000000E+00  0.00000000E+00  0.00000000E+00  0.00000000E+00
  0.00000000E+00  0.00000000E+00  0.00000000E+00  0.00000000E+00  0.00000000E+00
  0.00000000E+00  0.00000000E+00  0.00000000E+00  0.00000000E+00  0.00000000E+00
  0.00000000E+00
Nuclear GFac                               R   N=          16
  4.03761000E-01  0.00000000E+00  0.00000000E+00  0.00000000E+00  0.00000000E+00
  2.79284600E+00  2.79284600E+00  2.79284600E+00  2.79284600E+00  2.79284600E+00
  2.79284600E+00  2.79284600E+00  2.79284600E+00  2.79284600E+00  2.79284600E+00
  2.79284600E+00
MicOpt                                     I   N=          16
          -1          -1          -1          -1          -1          -1
          -1          -1          -1          -1          -1          -1
          -1          -1          -1          -1
Number of contracted shells                I               42
Number of primitive shells                 I               99
Pure/Cartesian d shells                    I                1
Pure/Cartesian f shells                    I                0
Highest angular momentum                   I                2
Largest degree of contraction              I                6
Shell types                                I   N=          42
           0          -1          -1           2           0          -1
          -1           2           0          -1          -1           2
           0          -1          -1           2           0          -1
          -1           2           0           0           0           0
           0           0           0           0           0           0
           0           0           0           0           0           0
           0           0           0           0           0           0
Number of primitives per shell             I   N=          42
           6           3           1           1           6           3
           1           1           6           3           1           1
           6           3           1           1           6           3
           1           1           3           1           3           1
           3           1           3           1           3           1
           3           1           3           1           3           1
           3           1           3           1           3           1
Shell to atom map                          I   N=          42
           1           1           1           1           2           2
           2           2           3           3           3           3
           4           4           4           4           5           5
           5           5           6           6           7           7
           8           8           9           9          10          10
          11          11          12          12          13          13
          14          14          15          15          16          16
Primitive exponents                        R   N=          99
  4.17351146E+03  6.27457911E+02  1.42902093E+02  4.02343293E+01  1.28202129E+01
  4.39043701E+00  1.16263619E+01  2.71627981E+00  7.72218397E-01  2.12031498E-01
  8.00000000E-01  3.04752488E+03  4.57369518E+02  1.03948685E+02  2.92101553E+01
  9.28666296E+00  3.16392696E+00  7.86827235E+00  1.88128854E+00  5.44249258E-01
  1.68714478E-01  8.00000000E-01  3.04752488E+03  4.57369518E+02  1.03948685E+02
  2.92101553E+01  9.28666296E+00  3.16392696E+00  7.86827235E+00  1.88128854E+00
  5.44249258E-01  1.68714478E-01  8.00000000E-01  3.04752488E+03  4.57369518E+02
  1.03948685E+02  2.92101553E+01  9.28666296E+00  3.16392696E+00  7.86827235E+00
  1.88128854E+00  5.44249258E-01  1.68714478E-01  8.00000000E-01  3.04752488E+03
  4.57369518E+02  1.03948685E+02  2.92101553E+01  9.28666296E+00  3.16392696E+00
  7.86827235E+00  1.88128854E+00  5.44249258E-01  1.68714478E-01  8.00000000E-01
  1.87311370E+01  2.82539436E+00  6.40121692E-01  1.61277759E-01  1.87311370E+01
  2.82539436E+00  6.40121692E-01  1.61277759E-01  1.87311370E+01  2.82539436E+00
  6.40121692E-01  1.61277759E-01  1.87311370E+01  2.82539436E+00  6.40121692E-01
  1.61277759E-01  1.87311370E+01  2.82539436E+00  6.40121692E-01  1.61277759E-01
  1.87311370E+01  2.82539436E+00  6.40121692E-01  1.61277759E-01  1.87311370E+01
  2.82539436E+00  6.40121692E-01  1.61277759E-01  1.87311370E+01  2.82539436E+00
  6.40121692E-01  1.61277759E-01  1.87311370E+01  2.82539436E+00  6.40121692E-01
  1.61277759E-01  1.87311370E+01  2.82539436E+00  6.40121692E-01  1.61277759E-01
  1.87311370E+01  2.82539436E+00  6.40121692E-01  1.61277759E-01
Contraction coefficients                   R   N=          99
  1.83477216E-03  1.39946270E-02  6.85865518E-02  2.32240873E-01  4.69069948E-01
  3.60455199E-01 -1.14961182E-01 -1.69117479E-01  1.14585195E+00  1.00000000E+00
  1.00000000E+00  1.83473713E-03  1.40373228E-02  6.88426223E-02  2.32184443E-01
  4.67941348E-01  3.62311985E-01 -1.19332420E-01 -1.60854152E-01  1.14345644E+00
  1.00000000E+00  1.00000000E+00  1.83473713E-03  1.40373228E-02  6.88426223E-02
  2.32184443E-01  4.67941348E-01  3.62311985E-01 -1.19332420E-01 -1.60854152E-01
  1.14345644E+00  1.00000000E+00  1.00000000E+00  1.83473713E-03  1.40373228E-02
  6.88426223E-02  2.32184443E-01  4.67941348E-01  3.62311985E-01 -1.19332420E-01
 -1.60854152E-01  1.14345644E+00  1.00000000E+00  1.00000000E+00  1.83473713E-03
  1.40373228E-02  6.88426223E-02  2.32184443E-01  4.67941348E-01  3.62311985E-01
 -1.19332420E-01 -1.60854152E-01  1.14345644E+00  1.00000000E+00  1.00000000E+00
  3.34946043E-02  2.34726953E-01  8.13757326E-01  1.00000000E+00  3.34946043E-02
  2.34726953E-01  8.13757326E-01  1.00000000E+00  3.34946043E-02  2.34726953E-01
  8.13757326E-01  1.00000000E+00  3.34946043E-02  2.34726953E-01  8.13757326E-01
  1.00000000E+00  3.34946043E-02  2.34726953E-01  8.13757326E-01  1.00000000E+00
  3.34946043E-02  2.34726953E-01  8.13757326E-01  1.00000000E+00  3.34946043E-02
  2.34726953E-01  8.13757326E-01  1.00000000E+00  3.34946043E-02  2.34726953E-01
  8.13757326E-01  1.00000000E+00  3.34946043E-02  2.34726953E-01  8.13757326E-01
  1.00000000E+00  3.34946043E-02  2.34726953E-01  8.13757326E-01  1.00000000E+00
  3.34946043E-02  2.34726953E-01  8.13757326E-01  1.00000000E+00
P(S=P) Contraction coefficients            R   N=          99
  0.00000000E+00  0.00000000E+00  0.00000000E+00  0.00000000E+00  0.00000000E+00
  0.00000000E+00  6.75797439E-02  3.23907296E-01  7.40895140E-01  1.00000000E+00
  0.00000000E+00  0.00000000E+00  0.00000000E+00  0.00000000E+00  0.00000000E+00
  0.00000000E+00  0.00000000E+00  6.89990666E-02  3.16423961E-01  7.44308291E-01
  1.00000000E+00  0.00000000E+00  0.00000000E+00  0.00000000E+00  0.00000000E+00
  0.00000000E+00  0.00000000E+00  0.00000000E+00  6.89990666E-02  3.16423961E-01
  7.44308291E-01  1.00000000E+00  0.00000000E+00  0.00000000E+00  0.00000000E+00
  0.00000000E+00  0.00000000E+00  0.00000000E+00  0.00000000E+00  6.89990666E-02
  3.16423961E-01  7.44308291E-01  1.00000000E+00  0.00000000E+00  0.00000000E+00
  0.00000000E+00  0.00000000E+00  0.00000000E+00  0.00000000E+00  0.00000000E+00
  6.89990666E-02  3.16423961E-01  7.44308291E-01  1.00000000E+00  0.00000000E+00
  0.00000000E+00  0.00000000E+00  0.00000000E+00  0.00000000E+00  0.00000000E+00
  0.00000000E+00  0.00000000E+00  0.00000000E+00  0.00000000E+00  0.00000000E+00
  0.00000000E+00  0.00000000E+00  0.00000000E+00  0.00000000E+00  0.00000000E+00
  0.00000000E+00  0.00000000E+00  0.00000000E+00  0.00000000E+00  0.00000000E+00
  0.00000000E+00  0.00000000E+00  0.00000000E+00  0.00000000E+00  0.00000000E+00
  0.00000000E+00  0.00000000E+00  0.00000000E+00  0.00000000E+00  0.00000000E+00
  0.00000000E+00  0.00000000E+00  0.00000000E+00  0.00000000E+00  0.00000000E+00
  0.00000000E+00  0.00000000E+00  0.00000000E+00  0.00000000E+00  0.00000000E+00
  0.00000000E+00  0.00000000E+00  0.00000000E+00  0.00000000E+00
Coordinates of each shell                  R   N=         126
 -4.66321777E+00 -7.17270253E-01 -1.88563583E-01 -4.66321777E+00 -7.17270253E-01
 -1.88563583E-01 -4.66321777E+00 -7.17270253E-01 -1.88563583E-01 -4.66321777E+00
 -7.17270253E-01 -1.88563583E-01 -3.27662179E-02 -6.16252744E-01 -6.24374944E-02
 -3.27662179E-02 -6.16252744E-01 -6.24374944E-02 -3.27662179E-02 -6.16252744E-01
 -6.24374944E-02 -3.27662179E-02 -6.16252744E-01 -6.24374944E-02  2.35667536E+00
  9.94651646E-01  6.74870073E-02  2.35667536E+00  9.94651646E-01  6.74870073E-02
  2.35667536E+00  9.94651646E-01  6.74870073E-02  2.35667536E+00  9.94651646E-01
  6.74870073E-02 -2.45089667E+00  9.39518195E-01  3.64844360E-02 -2.45089667E+00
  9.39518195E-01  3.64844360E-02 -2.45089667E+00  9.39518195E-01  3.64844360E-02
 -2.45089667E+00  9.39518195E-01  3.64844360E-02  4.76797627E+00 -5.85602943E-01
 -2.79869679E-02  4.76797627E+00 -5.85602943E-01 -2.79869679E-02  4.76797627E+00
 -5.85602943E-01 -2.79869679E-02  4.76797627E+00 -5.85602943E-01 -2.79869679E-02
 -4.86415503E-02 -1.73556930E+00 -1.80471036E+00 -4.86415503E-02 -1.73556930E+00
 -1.80471036E+00 -3.03361483E-02 -1.97152700E+00  1.51171792E+00 -3.03361483E-02
 -1.97152700E+00  1.51171792E+00  2.33435609E+00  2.12232777E+00  1.80750564E+00
  2.33435609E+00  2.12232777E+00  1.80750564E+00  2.35161991E+00  2.34732885E+00
 -1.50395699E+00  2.35161991E+00  2.34732885E+00 -1.50395699E+00 -2.44162976E+00
  2.10807339E+00  1.76420234E+00 -2.44162976E+00  2.10807339E+00  1.76420234E+00
 -2.48355372E+00  2.24914208E+00 -1.56755609E+00 -2.48355372E+00  2.24914208E+00
 -1.56755609E+00  6.45622605E+00  6.04104413E-01  6.13908892E-02  6.45622605E+00
  6.04104413E-01  6.13908892E-02  4.84103198E+00 -1.91269789E+00  1.55656618E+00
  4.84103198E+00 -1.91269789E+00  1.55656618E+00  4.85614878E+00 -1.68557829E+00
 -1.77670304E+00  4.85614878E+00 -1.68557829E+00 -1.77670304E+00 -6.27169009E+00
  3.42185221E-01 -1.82843963E-01 -6.27169009E+00  3.42185221E-01 -1.82843963E-01
 -4.76693959E+00 -1.84078239E+00  1.37305067E+00 -4.76693959E+00 -1.84078239E+00
  1.37305067E+00
Constraint Structure                       R   N=          48
 -4.66321777E+00 -7.17270253E-01 -1.88563583E-01 -3.27662179E-02 -6.16252744E-01
 -6.24374944E-02  2.35667536E+00  9.94651646E-01  6.74870073E-02 -2.45089667E+00
  9.39518195E-01  3.64844360E-02  4.76797627E+00 -5.85602943E-01 -2.79869679E-02
 -4.86415503E-02 -1.73556930E+00 -1.80471036E+00 -3.03361483E-02 -1.97152700E+00
  1.51171792E+00  2.33435609E+00  2.12232777E+00  1.80750564E+00  2.35161991E+00
  2.34732885E+00 -1.50395699E+00 -2.44162976E+00  2.10807339E+00  1.76420234E+00
 -2.48355372E+00  2.24914208E+00 -1.56755609E+00  6.45622605E+00  6.04104413E-01
  6.13908892E-02  4.84103198E+00 -1.91269789E+00  1.55656618E+00  4.85614878E+00
 -1.68557829E+00 -1.77670304E+00 -6.27169009E+00  3.42185221E-01 -1.82843963E-01
 -4.76693959E+00 -1.84078239E+00  1.37305067E+00
Num ILSW                                   I              100
ILSW                                       I   N=         100
           0           1           0           1           2           0
           0           0           0           0           0          -1
           0           0           0           0           0           0
           0           0           0           0           1           0
           1           0           0           0           0           0
           0           0      100000           0          -1           0
           0           0           0           0           0           0
           0           0           0           1           1           0
           0           0           1           0           0           0
           0           0           4          40           0           0
           0           0           0           0           0           0
           0           0           0           0           0           0
           0           0           0           0           0           0
           0           0           0           0           0           0
           0           0           0           0           0           0
           0           0           0           0           0           0
           0           0           0           0
Num RLSW                                   I               40
RLSW                                       R   N=          40
  1.00000000E+00  1.00000000E+00  1.00000000E+00  1.00000000E+00  1.00000000E+00
  0.00000000E+00  0.00000000E+00  1.00000000E+00  0.00000000E+00  0.00000000E+00
  0.00000000E+00  0.00000000E+00  1.00000000E+00  0.00000000E+00  0.00000000E+00
  0.00000000E+00  0.00000000E+00  1.00000000E+00  0.00000000E+00  0.00000000E+00
  0.00000000E+00  0.00000000E+00  1.00000000E+00  0.00000000E+00  0.00000000E+00
  0.00000000E+00  0.00000000E+00  1.00000000E+00  0.00000000E+00  0.00000000E+00
  0.00000000E+00  0.00000000E+00  0.00000000E+00  0.00000000E+00  0.00000000E+00
  0.00000000E+00  0.00000000E+00  0.00000000E+00  1.00000000E+00  1.00000000E+00
MxBond                                     I                4
NBond                                      I   N=          16
           3           4           4           4           4           1
           1           1           1           1           1           1
           1           1           1           1
IBond                                      I   N=          64
           4          15          16           0           3           4
           6           7           2           5           8           9
           1           2          10          11           3          12
          13          14           2           0           0           0
           2           0           0           0           3           0
           0           0           3           0           0           0
           4           0           0           0           4           0
           0           0           5           0           0           0
           5           0           0           0           5           0
           0           0           1           0           0           0
           1           0           0           0
RBond                                      R   N=          64
  1.00000000E+00  1.00000000E+00  1.00000000E+00  0.00000000E+00  1.00000000E+00
  1.00000000E+00  1.00000000E+00  1.00000000E+00  1.00000000E+00  1.00000000E+00
  1.00000000E+00  1.00000000E+00  1.00000000E+00  1.00000000E+00  1.00000000E+00
  1.00000000E+00  1.00000000E+00  1.00000000E+00  1.00000000E+00  1.00000000E+00
  1.00000000E+00  0.00000000E+00  0.00000000E+00  0.00000000E+00  1.00000000E+00
  0.00000000E+00  0.00000000E+00  0.00000000E+00  1.00000000E+00  0.00000000E+00
  0.00000000E+00  0.00000000E+00  1.00000000E+00  0.00000000E+00  0.00000000E+00
  0.00000000E+00  1.00000000E+00  0.00000000E+00  0.00000000E+00  0.00000000E+00
  1.00000000E+00  0.00000000E+00  0.00000000E+00  0.00000000E+00  1.00000000E+00
  0.00000000E+00  0.00000000E+00  0.00000000E+00  1.00000000E+00  0.00000000E+00
  0.00000000E+00  0.00000000E+00  1.00000000E+00  0.00000000E+00  0.00000000E+00
  0.00000000E+00  1.00000000E+00  0.00000000E+00  0.00000000E+00  0.00000000E+00
  1.00000000E+00  0.00000000E+00  0.00000000E+00  0.00000000E+00
Virial Ratio                               R      2.001511670955029E+00
SCF Energy                                 R     -2.123158856345611E+02
MP2 Energy                                 R     -2.130062099578038E+02
Total Energy                               R     -2.130062099578038E+02
Post-SCF wavefunction norm                 R      1.564929794558918E+00
RMS Force                                  R      3.649669785612331E-07
RMS Density                                R      1.179857015792284E-09
External E-field                           R   N=          35
  0.00000000E+00  0.00000000E+00  0.00000000E+00  0.00000000E+00  0.00000000E+00
  0.00000000E+00  0.00000000E+00  0.00000000E+00  0.00000000E+00  0.00000000E+00
  0.00000000E+00  0.00000000E+00  0.00000000E+00  0.00000000E+00  0.00000000E+00
  0.00000000E+00  0.00000000E+00  0.00000000E+00  0.00000000E+00  0.00000000E+00
  0.00000000E+00  0.00000000E+00  0.00000000E+00  0.00000000E+00  0.00000000E+00
  0.00000000E+00  0.00000000E+00  0.00000000E+00  0.00000000E+00  0.00000000E+00
  0.00000000E+00  0.00000000E+00  0.00000000E+00  0.00000000E+00  0.00000000E+00
IOpCl                                      I                0
IROHF                                      I                0
Alpha Orbital Energies                     R   N=          97
 -1.55391619E+01 -1.12436957E+01 -1.12177402E+01 -1.12124279E+01 -1.12112973E+01
 -1.17180591E+00 -1.05936740E+00 -9.56864631E-01 -8.39922518E-01 -7.88495622E-01
 -6.59432017E-01 -6.34337154E-01 -6.02695685E-01 -5.73234596E-01 -5.61813825E-01
 -5.23564740E-01 -4.97559657E-01 -4.69777706E-01 -4.62941938E-01 -4.61193524E-01
 -3.85472352E-01  2.25687396E-01  2.38352487E-01  2.69994412E-01  2.79067120E-01
  2.91426681E-01  3.19128114E-01  3.32971838E-01  3.44261214E-01  3.47662768E-01
  3.51879125E-01  3.63157446E-01  3.96032628E-01  4.29660277E-01  4.45492255E-01
  4.84822709E-01  7.12464939E-01  7.32573395E-01  7.45728114E-01  7.56340172E-01
  7.90494660E-01  8.47589983E-01  8.87154119E-01  9.29594843E-01  9.49759719E-01
  1.00303380E+00  1.00709199E+00  1.02419330E+00  1.05719702E+00  1.10307067E+00
  1.13135632E+00  1.15372425E+00  1.17009086E+00  1.18696432E+00  1.19394206E+00
  1.20602709E+00  1.21518347E+00  1.22096548E+00  1.22449523E+00  1.25108261E+00
  1.26030496E+00  1.32847757E+00  1.34427957E+00  1.56383959E+00  1.64509541E+00
  1.71721674E+00  1.72778261E+00  1.74994457E+00  1.84173574E+00  1.98945404E+00
  2.07525775E+00  2.08895971E+00  2.19597667E+00  2.23108938E+00  2.25760923E+00
  2.28352235E+00  2.32790839E+00  2.34339056E+00  2.36029322E+00  2.43280916E+00
  2.52972278E+00  2.59740936E+00  2.61375275E+00  2.65255379E+00  2.73785725E+00
  2.75058267E+00  2.78277095E+00  2.83359455E+00  2.92084405E+00  2.96980068E+00
  3.12093664E+00  3.17152089E+00  4.20724089E+00  4.58189901E+00  4.70127002E+00
  4.81104304E+00  4.96225411E+00
Alpha MO coefficients                      R   N=        9409
  9.95047519E-01  2.48447359E-02 -9.88535639E-05  8.28917129E-04  1.26307624E-03
 -2.75194424E-03 -2.47048451E-04 -8.32461086E-04 -9.61395361E-04 -3.39593255E-03
 -3.33274588E-03 -3.20590217E-03 -5.77018460E-05 -4.94854548E-05  9.84757428E-05
 -6.93380771E-07  2.54680945E-05  3.47088647E-05 -5.92395476E-08  1.79716686E-05
 -3.00660337E-04  1.63649573E-04 -1.56872149E-04 -1.94432670E-04 -4.87560099E-05
 -4.56224694E-06 -2.36321653E-05  5.18436615E-06  7.36253601E-06 -2.24200525E-07
 -7.40370084E-06 -2.88633208E-05  2.20561863E-05 -5.66906417E-06 -6.99249249E-06
  1.01968059E-04 -2.56142157E-04  4.26043689E-05  9.33990084E-05 -2.45255727E-06
 -1.67761895E-05 -8.12259311E-06  1.53974580E-05 -4.62056680E-06 -3.19888455E-06
 -2.54988333E-05  1.45272459E-04 -1.82179272E-04 -1.38973254E-04 -3.28933960E-05
  1.88282951E-03 -5.75170972E-04 -4.20131263E-04  2.80168791E-04 -1.37296160E-04
 -1.30166706E-04 -1.00422804E-04 -4.78894528E-05 -2.06569214E-05  2.24542842E-06
 -6.43354688E-08 -5.26705037E-06 -7.25353691E-06 -1.90979238E-06 -5.53478844E-09
  1.05395378E-04 -1.39947034E-05  9.32850023E-05 -1.94821715E-05  2.15801516E-06
  9.11065129E-06 -3.54584017E-06 -6.14284206E-06  2.75491282E-06 -8.22793356E-07
 -4.07450771E-06 -1.41325808E-04  3.55816180E-05 -4.32976303E-05 -2.53033120E-05
 -3.48118767E-05 -1.59166327E-05  4.30300418E-05 -1.46108553E-04 -2.22953452E-04
 -5.51509204E-05 -7.64202193E-05 -9.68563106E-06 -2.18686654E-05  4.08109743E-07
  3.36131575E-05  2.21849728E-07  9.23262188E-06  3.04405372E-04  5.96058462E-04
  2.99092518E-04  5.96568164E-04 -2.16366853E-04  4.83522106E-05  1.93177066E-05
 -1.50668282E-05  2.86834961E-05  3.02861375E-03  9.32618437E-04  6.89630941E-04
 -3.26303037E-05 -4.41927584E-04 -3.35551288E-04 -8.02375485E-05 -3.08285753E-04
 -4.02238322E-05 -2.75088549E-05  9.68633462E-03  2.33048730E-04 -4.08545559E-05
 -1.44937817E-05  1.09172922E-05  4.59368172E-03 -2.07772678E-03  1.35140933E-03
 -6.22579778E-05 -3.34240625E-04 -2.61997353E-04 -1.38337391E-04  1.26232053E-04
  1.81568219E-05 -1.28600808E-05 -1.37326243E-04 -1.07570188E-04  9.27018489E-05
 -4.64697705E-05 -8.90620841E-06 -1.34145906E-04 -3.39335507E-04  5.68920422E-04
  1.13903125E-04 -3.16803280E-05 -2.58634054E-05 -5.40125819E-05  2.83948385E-06
 -3.24787627E-06  8.38038504E-07  9.95848490E-01  2.80978970E-02 -2.51272757E-04
 -2.20307911E-04 -3.98172771E-05 -1.68081496E-02 -9.00778456E-04  8.45954931E-04
  3.67577148E-04 -1.57248222E-03 -1.55864179E-03 -1.50426283E-03  6.38951052E-05
  1.35366784E-05 -1.20943585E-05 -4.08681364E-05 -1.56578007E-04  2.53212374E-05
  2.35398607E-05  1.42641880E-06  9.56163989E-04 -5.87847445E-04 -4.78684599E-05
 -2.56586071E-05 -2.80659807E-06 -6.96418785E-05 -4.63992285E-05 -1.94496008E-05
  1.77163461E-06 -3.31991788E-06 -1.71797618E-04  9.18876282E-05 -1.43105123E-04
  1.68821638E-04 -2.29155843E-05 -3.50763551E-04 -1.65961183E-05 -2.74712132E-04
  2.12883878E-04  2.60516176E-03  2.72447687E-04  2.84205289E-03 -7.37035284E-06
  1.54639041E-04 -6.25833123E-05 -6.79340511E-05 -6.29431666E-05 -8.40774643E-05
 -8.22982266E-05  4.32158828E-05 -6.29272003E-05  2.77453415E-04 -3.29835081E-05
 -1.20839461E-04 -4.27734927E-05  8.08682367E-06  1.47117717E-06  7.56106733E-04
  4.95706530E-04  4.31982701E-05  4.16716550E-05 -1.88806859E-05 -8.65774428E-05
 -7.96401745E-05  2.57889579E-05  5.07538917E-06 -1.46173081E-05  5.64916721E-02
  1.61287766E-03  4.96128107E-05 -2.34871908E-05  2.01664639E-06  3.63544595E-03
  1.76274097E-03  1.24185847E-03  9.53301631E-05 -4.22405724E-04 -3.73700028E-04
 -2.02833990E-04 -1.78246559E-04 -1.29730553E-05 -1.42656377E-05  9.93179864E-01
  2.84619566E-02  6.00628467E-06 -5.90811341E-05 -1.08829538E-07 -1.72357284E-02
  3.01396328E-04  8.39355107E-04  6.79850167E-05 -1.65043146E-03 -1.62815433E-03
 -1.54981309E-03 -2.78224429E-05 -2.08273078E-06 -5.96993849E-06 -4.71781676E-04
 -1.13112892E-04 -6.80425191E-05 -1.67023017E-05 -1.95423073E-07  9.40571544E-06
  3.08401238E-04  5.28855303E-04  4.98933222E-05 -5.68928907E-05 -6.19228748E-05
 -5.70946591E-05  6.91869485E-06  5.04206870E-07  7.49384197E-07  4.59062450E-02
  1.36112787E-03 -7.62993801E-05  3.10285562E-06  4.67091688E-07  3.43933025E-03
 -1.51924169E-03  9.60428156E-04  5.31159902E-05 -4.48452335E-04 -3.54021062E-04
 -1.76213599E-04  2.19618155E-04  1.38179033E-05 -1.31487996E-05 -1.40907763E-04
  2.09269253E-04 -1.40764887E-04  2.13093496E-04  2.31878083E-04  2.71786757E-03
  2.36768848E-04  2.71764993E-03 -2.74209714E-05 -2.83947246E-04 -1.89049355E-05
 -2.78077104E-04 -1.30072639E-04 -1.54147727E-05 -1.50665603E-04  1.15285947E-04
 -1.50729889E-04  1.10522670E-04  1.21968074E-05  1.24822614E-04 -6.03630484E-05
  2.21173091E-05 -6.89504775E-06 -1.08517511E-04 -7.50597189E-05  1.27936553E-05
 -2.58621459E-05 -9.29595860E-05  7.27899761E-05 -1.80897577E-04  1.58321594E-04
  4.07010390E-05 -3.84313885E-06 -7.92615532E-05 -3.36024961E-05  5.75988992E-06
 -8.34590175E-06  9.94038756E-01  2.85418343E-02 -3.10551938E-06  6.35914420E-05
  6.37022073E-05 -1.77542881E-02 -1.57260421E-05 -9.08503729E-04 -9.78069360E-05
 -1.58685524E-03 -1.61287924E-03 -1.56304978E-03  1.23939009E-05  1.03319195E-06
  3.30651437E-06 -5.58796729E-02 -1.53163194E-03 -8.67730211E-05  1.69399747E-05
  5.37529076E-06  4.89945746E-03 -1.69434294E-03 -1.04664881E-03 -1.16589145E-04
 -2.60080836E-04 -1.88834594E-04 -5.15882418E-06 -2.00612315E-04 -1.52345962E-05
 -1.54861537E-05 -9.99332661E-03 -2.14414486E-04  9.34633776E-05  1.57869730E-05
 -3.11626695E-06  4.35961864E-03  1.63941225E-03 -1.07566845E-03 -9.70861990E-05
 -3.46676952E-04 -2.67441768E-04 -7.95228260E-05  1.87316048E-04  2.33759561E-05
 -1.30497723E-05 -2.10049563E-02 -7.88640344E-04  1.06447711E-04  2.07670113E-05
  1.44718764E-06  5.12405226E-04 -8.71993406E-05 -2.84460167E-04 -4.47379574E-06
  3.61190581E-05  2.72146685E-05 -4.85974224E-05  1.51992567E-05  9.57228092E-07
  7.15614150E-06  2.67168285E-04  2.71274086E-03  2.39921579E-04  2.77942612E-03
 -1.57088961E-04 -9.77570676E-05 -1.60204067E-04 -1.33192757E-04 -1.44795920E-04
  9.49971312E-06 -1.53782729E-04  2.52536985E-06 -1.47717946E-05  2.04763044E-04
 -1.36779760E-05 -3.45552713E-04 -1.88134574E-05 -3.12213629E-04  5.06679207E-06
  2.56839408E-04 -3.09827565E-05 -2.61106352E-04 -1.96094661E-06 -8.41507416E-06
 -1.71016550E-05 -1.26124662E-06  3.53279465E-06  8.46133326E-08  3.40396661E-05
  3.22911126E-05 -1.09479298E-05 -6.39381340E-06  6.39580648E-06 -1.51598037E-05
  3.31531045E-06  9.82427840E-07  4.16143042E-06  1.83237159E-02  3.57042775E-04
 -1.23345907E-04  5.67345471E-05  4.48528061E-06 -4.00309914E-04  7.22779525E-04
 -6.67644109E-04 -4.06670547E-05 -3.47192007E-05 -6.84734438E-05 -8.86501760E-05
  3.42898718E-05  3.36549315E-06  1.00223029E-06 -4.73159725E-02 -1.23644915E-03
  6.51357633E-06  1.85086070E-05  5.61228378E-07  4.33511162E-03  1.61981227E-03
 -9.43084261E-04 -5.19333834E-05 -2.94502442E-04 -1.79358953E-04 -1.69177990E-05
  1.57024646E-04  9.33302957E-06 -1.20143322E-05 -2.17473519E-04 -1.50168698E-04