opt=(Tight,CalcAll)                                                     
Freq      RMP2-FC                                                     6-31G(d)            
Number of atoms                            I               18
Info1-9                                    I   N=           9
          27          27        1002           0           0         100
           6           2           1
Charge                                     I                0
Multiplicity                               I                1
Number of electrons                        I               74
Number of alpha electrons                  I               37
Number of beta electrons                   I               37
Number of basis functions                  I              166
Number of independent functions            I              166
Number of point charges in /Mol/           I                0
Number of translation vectors              I                0
Atomic numbers                             I   N=          18
           8           8           7           7           6           6
           6           6           6           6           1           1
           1           1           1           1           1           1
Nuclear charges                            R   N=          18
  8.00000000E+00  8.00000000E+00  7.00000000E+00  7.00000000E+00  6.00000000E+00
  6.00000000E+00  6.00000000E+00  6.00000000E+00  6.00000000E+00  6.00000000E+00
  1.00000000E+00  1.00000000E+00  1.00000000E+00  1.00000000E+00  1.00000000E+00
  1.00000000E+00  1.00000000E+00  1.00000000E+00
Current cartesian coordinates              R   N=          54
  4.38657803E+00 -2.56628219E+00  2.87504311E-06 -4.29297717E+00 -2.82746394E+00
  1.85183721E-06  2.21557406E+00  1.19699221E+00 -4.69759232E-06  3.06244196E-02
 -2.60211877E+00 -3.37879551E-06 -2.34305762E+00  1.24973717E+00  4.79550361E-07
 -7.53837944E-02  2.44431784E+00 -1.44117354E-06  2.36734214E+00 -1.42223972E+00
 -1.32617190E-06 -2.37902260E+00 -1.50506579E+00  6.96266152E-08  4.61999310E+00
  2.55485394E+00  2.38910506E-06 -4.82841644E+00  2.60030008E+00  1.17559584E-06
  5.86087737E-02  4.49395611E+00 -2.21469746E-06  8.63831262E-02 -4.52356045E+00
 -1.05943251E-06  4.22229598E+00  4.57579553E+00 -3.69082128E-05  5.71483708E+00
  2.05521099E+00 -1.67469651E+00  5.71480031E+00  2.05526911E+00  1.67474342E+00
 -5.93991393E+00  2.07451800E+00 -1.66117042E+00 -4.55802215E+00  4.64872867E+00
  2.41438377E-06 -5.93991421E+00  2.07451594E+00  1.66117192E+00
Force Field                                I                0
Int Atom Types                             I   N=          18
           0           0           0           0           0           0
           0           0           0           0           0           0
           0           0           0           0           0           0
MM charges                                 R   N=          18
  0.00000000E+00  0.00000000E+00  0.00000000E+00  0.00000000E+00  0.00000000E+00
  0.00000000E+00  0.00000000E+00  0.00000000E+00  0.00000000E+00  0.00000000E+00
  0.00000000E+00  0.00000000E+00  0.00000000E+00  0.00000000E+00  0.00000000E+00
  0.00000000E+00  0.00000000E+00  0.00000000E+00
Integer atomic weights                     I   N=          18
          16          16          14          14          12          12
          12          12          12          12           1           1
           1           1           1           1           1           1
Real atomic weights                        R   N=          18
  1.59949146E+01  1.59949146E+01  1.40030740E+01  1.40030740E+01  1.20000000E+01
  1.20000000E+01  1.20000000E+01  1.20000000E+01  1.20000000E+01  1.20000000E+01
  1.00782504E+00  1.00782504E+00  1.00782504E+00  1.00782504E+00  1.00782504E+00
  1.00782504E+00  1.00782504E+00  1.00782504E+00
Atom fragment info                         I   N=          18
           0           0           0           0           0           0
           0           0           0           0           0           0
           0           0           0           0           0           0
Atom residue num                           I   N=          18
           0           0           0           0           0           0
           0           0           0           0           0           0
           0           0           0           0           0           0
Nuclear spins                              I   N=          18
           0           0           2           2           0           0
           0           0           0           0           1           1
           1           1           1           1           1           1
Nuclear ZEff                               R   N=          18
 -5.60000000E+00 -5.60000000E+00 -4.55000000E+00 -4.55000000E+00 -3.60000000E+00
 -3.60000000E+00 -3.60000000E+00 -3.60000000E+00 -3.60000000E+00 -3.60000000E+00
 -1.00000000E+00 -1.00000000E+00 -1.00000000E+00 -1.00000000E+00 -1.00000000E+00
 -1.00000000E+00 -1.00000000E+00 -1.00000000E+00
Nuclear QMom                               R   N=          18
  0.00000000E+00  0.00000000E+00  2.04400000E+00  2.04400000E+00  0.00000000E+00
  0.00000000E+00  0.00000000E+00  0.00000000E+00  0.00000000E+00  0.00000000E+00
  0.00000000E+00  0.00000000E+00  0.00000000E+00  0.00000000E+00  0.00000000E+00
  0.00000000E+00  0.00000000E+00  0.00000000E+00
Nuclear GFac                               R   N=          18
  0.00000000E+00  0.00000000E+00  4.03761000E-01  4.03761000E-01  0.00000000E+00
  0.00000000E+00  0.00000000E+00  0.00000000E+00  0.00000000E+00  0.00000000E+00
  2.79284600E+00  2.79284600E+00  2.79284600E+00  2.79284600E+00  2.79284600E+00
  2.79284600E+00  2.79284600E+00  2.79284600E+00
MicOpt                                     I   N=          18
          -1          -1          -1          -1          -1          -1
          -1          -1          -1          -1          -1          -1
          -1          -1          -1          -1          -1          -1
Number of contracted shells                I               56
Number of primitive shells                 I              142
Pure/Cartesian d shells                    I                1
Pure/Cartesian f shells                    I                0
Highest angular momentum                   I                2
Largest degree of contraction              I                6
Shell types                                I   N=          56
           0          -1          -1           2           0          -1
          -1           2           0          -1          -1           2
           0          -1          -1           2           0          -1
          -1           2           0          -1          -1           2
           0          -1          -1           2           0          -1
          -1           2           0          -1          -1           2
           0          -1          -1           2           0           0
           0           0           0           0           0           0
           0           0           0           0           0           0
           0           0
Number of primitives per shell             I   N=          56
           6           3           1           1           6           3
           1           1           6           3           1           1
           6           3           1           1           6           3
           1           1           6           3           1           1
           6           3           1           1           6           3
           1           1           6           3           1           1
           6           3           1           1           3           1
           3           1           3           1           3           1
           3           1           3           1           3           1
           3           1
Shell to atom map                          I   N=          56
           1           1           1           1           2           2
           2           2           3           3           3           3
           4           4           4           4           5           5
           5           5           6           6           6           6
           7           7           7           7           8           8
           8           8           9           9           9           9
          10          10          10          10          11          11
          12          12          13          13          14          14
          15          15          16          16          17          17
          18          18
Primitive exponents                        R   N=         142
  5.48467166E+03  8.25234946E+02  1.88046958E+02  5.29645000E+01  1.68975704E+01
  5.79963534E+00  1.55396162E+01  3.59993359E+00  1.01376175E+00  2.70005823E-01
  8.00000000E-01  5.48467166E+03  8.25234946E+02  1.88046958E+02  5.29645000E+01
  1.68975704E+01  5.79963534E+00  1.55396162E+01  3.59993359E+00  1.01376175E+00
  2.70005823E-01  8.00000000E-01  4.17351146E+03  6.27457911E+02  1.42902093E+02
  4.02343293E+01  1.28202129E+01  4.39043701E+00  1.16263619E+01  2.71627981E+00
  7.72218397E-01  2.12031498E-01  8.00000000E-01  4.17351146E+03  6.27457911E+02
  1.42902093E+02  4.02343293E+01  1.28202129E+01  4.39043701E+00  1.16263619E+01
  2.71627981E+00  7.72218397E-01  2.12031498E-01  8.00000000E-01  3.04752488E+03
  4.57369518E+02  1.03948685E+02  2.92101553E+01  9.28666296E+00  3.16392696E+00
  7.86827235E+00  1.88128854E+00  5.44249258E-01  1.68714478E-01  8.00000000E-01
  3.04752488E+03  4.57369518E+02  1.03948685E+02  2.92101553E+01  9.28666296E+00
  3.16392696E+00  7.86827235E+00  1.88128854E+00  5.44249258E-01  1.68714478E-01
  8.00000000E-01  3.04752488E+03  4.57369518E+02  1.03948685E+02  2.92101553E+01
  9.28666296E+00  3.16392696E+00  7.86827235E+00  1.88128854E+00  5.44249258E-01
  1.68714478E-01  8.00000000E-01  3.04752488E+03  4.57369518E+02  1.03948685E+02
  2.92101553E+01  9.28666296E+00  3.16392696E+00  7.86827235E+00  1.88128854E+00
  5.44249258E-01  1.68714478E-01  8.00000000E-01  3.04752488E+03  4.57369518E+02
  1.03948685E+02  2.92101553E+01  9.28666296E+00  3.16392696E+00  7.86827235E+00
  1.88128854E+00  5.44249258E-01  1.68714478E-01  8.00000000E-01  3.04752488E+03
  4.57369518E+02  1.03948685E+02  2.92101553E+01  9.28666296E+00  3.16392696E+00
  7.86827235E+00  1.88128854E+00  5.44249258E-01  1.68714478E-01  8.00000000E-01
  1.87311370E+01  2.82539436E+00  6.40121692E-01  1.61277759E-01  1.87311370E+01
  2.82539436E+00  6.40121692E-01  1.61277759E-01  1.87311370E+01  2.82539436E+00
  6.40121692E-01  1.61277759E-01  1.87311370E+01  2.82539436E+00  6.40121692E-01
  1.61277759E-01  1.87311370E+01  2.82539436E+00  6.40121692E-01  1.61277759E-01
  1.87311370E+01  2.82539436E+00  6.40121692E-01  1.61277759E-01  1.87311370E+01
  2.82539436E+00  6.40121692E-01  1.61277759E-01  1.87311370E+01  2.82539436E+00
  6.40121692E-01  1.61277759E-01
Contraction coefficients                   R   N=         142
  1.83107443E-03  1.39501722E-02  6.84450781E-02  2.32714336E-01  4.70192898E-01
  3.58520853E-01 -1.10777550E-01 -1.48026263E-01  1.13076702E+00  1.00000000E+00
  1.00000000E+00  1.83107443E-03  1.39501722E-02  6.84450781E-02  2.32714336E-01
  4.70192898E-01  3.58520853E-01 -1.10777550E-01 -1.48026263E-01  1.13076702E+00
  1.00000000E+00  1.00000000E+00  1.83477216E-03  1.39946270E-02  6.85865518E-02
  2.32240873E-01  4.69069948E-01  3.60455199E-01 -1.14961182E-01 -1.69117479E-01
  1.14585195E+00  1.00000000E+00  1.00000000E+00  1.83477216E-03  1.39946270E-02
  6.85865518E-02  2.32240873E-01  4.69069948E-01  3.60455199E-01 -1.14961182E-01
 -1.69117479E-01  1.14585195E+00  1.00000000E+00  1.00000000E+00  1.83473713E-03
  1.40373228E-02  6.88426223E-02  2.32184443E-01  4.67941348E-01  3.62311985E-01
 -1.19332420E-01 -1.60854152E-01  1.14345644E+00  1.00000000E+00  1.00000000E+00
  1.83473713E-03  1.40373228E-02  6.88426223E-02  2.32184443E-01  4.67941348E-01
  3.62311985E-01 -1.19332420E-01 -1.60854152E-01  1.14345644E+00  1.00000000E+00
  1.00000000E+00  1.83473713E-03  1.40373228E-02  6.88426223E-02  2.32184443E-01
  4.67941348E-01  3.62311985E-01 -1.19332420E-01 -1.60854152E-01  1.14345644E+00
  1.00000000E+00  1.00000000E+00  1.83473713E-03  1.40373228E-02  6.88426223E-02
  2.32184443E-01  4.67941348E-01  3.62311985E-01 -1.19332420E-01 -1.60854152E-01
  1.14345644E+00  1.00000000E+00  1.00000000E+00  1.83473713E-03  1.40373228E-02
  6.88426223E-02  2.32184443E-01  4.67941348E-01  3.62311985E-01 -1.19332420E-01
 -1.60854152E-01  1.14345644E+00  1.00000000E+00  1.00000000E+00  1.83473713E-03
  1.40373228E-02  6.88426223E-02  2.32184443E-01  4.67941348E-01  3.62311985E-01
 -1.19332420E-01 -1.60854152E-01  1.14345644E+00  1.00000000E+00  1.00000000E+00
  3.34946043E-02  2.34726953E-01  8.13757326E-01  1.00000000E+00  3.34946043E-02
  2.34726953E-01  8.13757326E-01  1.00000000E+00  3.34946043E-02  2.34726953E-01
  8.13757326E-01  1.00000000E+00  3.34946043E-02  2.34726953E-01  8.13757326E-01
  1.00000000E+00  3.34946043E-02  2.34726953E-01  8.13757326E-01  1.00000000E+00
  3.34946043E-02  2.34726953E-01  8.13757326E-01  1.00000000E+00  3.34946043E-02
  2.34726953E-01  8.13757326E-01  1.00000000E+00  3.34946043E-02  2.34726953E-01
  8.13757326E-01  1.00000000E+00
P(S=P) Contraction coefficients            R   N=         142
  0.00000000E+00  0.00000000E+00  0.00000000E+00  0.00000000E+00  0.00000000E+00
  0.00000000E+00  7.08742682E-02  3.39752839E-01  7.27158577E-01  1.00000000E+00
  0.00000000E+00  0.00000000E+00  0.00000000E+00  0.00000000E+00  0.00000000E+00
  0.00000000E+00  0.00000000E+00  7.08742682E-02  3.39752839E-01  7.27158577E-01
  1.00000000E+00  0.00000000E+00  0.00000000E+00  0.00000000E+00  0.00000000E+00
  0.00000000E+00  0.00000000E+00  0.00000000E+00  6.75797439E-02  3.23907296E-01
  7.40895140E-01  1.00000000E+00  0.00000000E+00  0.00000000E+00  0.00000000E+00
  0.00000000E+00  0.00000000E+00  0.00000000E+00  0.00000000E+00  6.75797439E-02
  3.23907296E-01  7.40895140E-01  1.00000000E+00  0.00000000E+00  0.00000000E+00
  0.00000000E+00  0.00000000E+00  0.00000000E+00  0.00000000E+00  0.00000000E+00
  6.89990666E-02  3.16423961E-01  7.44308291E-01  1.00000000E+00  0.00000000E+00
  0.00000000E+00  0.00000000E+00  0.00000000E+00  0.00000000E+00  0.00000000E+00
  0.00000000E+00  6.89990666E-02  3.16423961E-01  7.44308291E-01  1.00000000E+00
  0.00000000E+00  0.00000000E+00  0.00000000E+00  0.00000000E+00  0.00000000E+00
  0.00000000E+00  0.00000000E+00  6.89990666E-02  3.16423961E-01  7.44308291E-01
  1.00000000E+00  0.00000000E+00  0.00000000E+00  0.00000000E+00  0.00000000E+00
  0.00000000E+00  0.00000000E+00  0.00000000E+00  6.89990666E-02  3.16423961E-01
  7.44308291E-01  1.00000000E+00  0.00000000E+00  0.00000000E+00  0.00000000E+00
  0.00000000E+00  0.00000000E+00  0.00000000E+00  0.00000000E+00  6.89990666E-02
  3.16423961E-01  7.44308291E-01  1.00000000E+00  0.00000000E+00  0.00000000E+00
  0.00000000E+00  0.00000000E+00  0.00000000E+00  0.00000000E+00  0.00000000E+00
  6.89990666E-02  3.16423961E-01  7.44308291E-01  1.00000000E+00  0.00000000E+00
  0.00000000E+00  0.00000000E+00  0.00000000E+00  0.00000000E+00  0.00000000E+00
  0.00000000E+00  0.00000000E+00  0.00000000E+00  0.00000000E+00  0.00000000E+00
  0.00000000E+00  0.00000000E+00  0.00000000E+00  0.00000000E+00  0.00000000E+00
  0.00000000E+00  0.00000000E+00  0.00000000E+00  0.00000000E+00  0.00000000E+00
  0.00000000E+00  0.00000000E+00  0.00000000E+00  0.00000000E+00  0.00000000E+00
  0.00000000E+00  0.00000000E+00  0.00000000E+00  0.00000000E+00  0.00000000E+00
  0.00000000E+00  0.00000000E+00
Coordinates of each shell                  R   N=         168
  4.38657803E+00 -2.56628219E+00  2.87504311E-06  4.38657803E+00 -2.56628219E+00
  2.87504311E-06  4.38657803E+00 -2.56628219E+00  2.87504311E-06  4.38657803E+00
 -2.56628219E+00  2.87504311E-06 -4.29297717E+00 -2.82746394E+00  1.85183721E-06
 -4.29297717E+00 -2.82746394E+00  1.85183721E-06 -4.29297717E+00 -2.82746394E+00
  1.85183721E-06 -4.29297717E+00 -2.82746394E+00  1.85183721E-06  2.21557406E+00
  1.19699221E+00 -4.69759232E-06  2.21557406E+00  1.19699221E+00 -4.69759232E-06
  2.21557406E+00  1.19699221E+00 -4.69759232E-06  2.21557406E+00  1.19699221E+00
 -4.69759232E-06  3.06244196E-02 -2.60211877E+00 -3.37879551E-06  3.06244196E-02
 -2.60211877E+00 -3.37879551E-06  3.06244196E-02 -2.60211877E+00 -3.37879551E-06
  3.06244196E-02 -2.60211877E+00 -3.37879551E-06 -2.34305762E+00  1.24973717E+00
  4.79550361E-07 -2.34305762E+00  1.24973717E+00  4.79550361E-07 -2.34305762E+00
  1.24973717E+00  4.79550361E-07 -2.34305762E+00  1.24973717E+00  4.79550361E-07
 -7.53837944E-02  2.44431784E+00 -1.44117354E-06 -7.53837944E-02  2.44431784E+00
 -1.44117354E-06 -7.53837944E-02  2.44431784E+00 -1.44117354E-06 -7.53837944E-02
  2.44431784E+00 -1.44117354E-06  2.36734214E+00 -1.42223972E+00 -1.32617190E-06
  2.36734214E+00 -1.42223972E+00 -1.32617190E-06  2.36734214E+00 -1.42223972E+00
 -1.32617190E-06  2.36734214E+00 -1.42223972E+00 -1.32617190E-06 -2.37902260E+00
 -1.50506579E+00  6.96266153E-08 -2.37902260E+00 -1.50506579E+00  6.96266153E-08
 -2.37902260E+00 -1.50506579E+00  6.96266153E-08 -2.37902260E+00 -1.50506579E+00
  6.96266153E-08  4.61999310E+00  2.55485394E+00  2.38910506E-06  4.61999310E+00
  2.55485394E+00  2.38910506E-06  4.61999310E+00  2.55485394E+00  2.38910506E-06
  4.61999310E+00  2.55485394E+00  2.38910506E-06 -4.82841644E+00  2.60030008E+00
  1.17559584E-06 -4.82841644E+00  2.60030008E+00  1.17559584E-06 -4.82841644E+00
  2.60030008E+00  1.17559584E-06 -4.82841644E+00  2.60030008E+00  1.17559584E-06
  5.86087737E-02  4.49395611E+00 -2.21469746E-06  5.86087737E-02  4.49395611E+00
 -2.21469746E-06  8.63831262E-02 -4.52356045E+00 -1.05943251E-06  8.63831262E-02
 -4.52356045E+00 -1.05943251E-06  4.22229598E+00  4.57579553E+00 -3.69082128E-05
  4.22229598E+00  4.57579553E+00 -3.69082128E-05  5.71483708E+00  2.05521099E+00
 -1.67469651E+00  5.71483708E+00  2.05521099E+00 -1.67469651E+00  5.71480031E+00
  2.05526911E+00  1.67474342E+00  5.71480031E+00  2.05526911E+00  1.67474342E+00
 -5.93991393E+00  2.07451800E+00 -1.66117042E+00 -5.93991393E+00  2.07451800E+00
 -1.66117042E+00 -4.55802215E+00  4.64872867E+00  2.41438377E-06 -4.55802215E+00
  4.64872867E+00  2.41438377E-06 -5.93991421E+00  2.07451594E+00  1.66117192E+00
 -5.93991421E+00  2.07451594E+00  1.66117192E+00
Constraint Structure                       R   N=          54
  4.38657803E+00 -2.56628219E+00  2.87504311E-06 -4.29297717E+00 -2.82746394E+00
  1.85183721E-06  2.21557406E+00  1.19699221E+00 -4.69759232E-06  3.06244196E-02
 -2.60211877E+00 -3.37879551E-06 -2.34305762E+00  1.24973717E+00  4.79550361E-07
 -7.53837944E-02  2.44431784E+00 -1.44117354E-06  2.36734214E+00 -1.42223972E+00
 -1.32617190E-06 -2.37902260E+00 -1.50506579E+00  6.96266153E-08  4.61999310E+00
  2.55485394E+00  2.38910506E-06 -4.82841644E+00  2.60030008E+00  1.17559584E-06
  5.86087737E-02  4.49395611E+00 -2.21469746E-06  8.63831262E-02 -4.52356045E+00
 -1.05943251E-06  4.22229598E+00  4.57579553E+00 -3.69082128E-05  5.71483708E+00
  2.05521099E+00 -1.67469651E+00  5.71480031E+00  2.05526911E+00  1.67474342E+00
 -5.93991393E+00  2.07451800E+00 -1.66117042E+00 -4.55802215E+00  4.64872867E+00
  2.41438377E-06 -5.93991421E+00  2.07451594E+00  1.66117192E+00
Num ILSW                                   I              100
ILSW                                       I   N=         100
           0           1           0           0           2           0
           0           0           0           0           0          -1
           0           0           0           0           0           0
           0           0           0           0           1           0
           1           0           0           0           0           0
           0           0      100000           0          -1           0
           0           0           0           0           0           0
           0           0           0           1           1           0
           0           0           1           0           0           0
           0           0           4          40           0           0
           0           0           0           0           0           0
           0           0           0           0           0           0
           0           0           0           0           0           0
           0           0           0           0           0           0
           0           0           0           0           0           0
           0           0           0           0           0           0
           0           0           0           0
Num RLSW                                   I               40
RLSW                                       R   N=          40
  1.00000000E+00  1.00000000E+00  1.00000000E+00  1.00000000E+00  1.00000000E+00
  0.00000000E+00  0.00000000E+00  1.00000000E+00  0.00000000E+00  0.00000000E+00
  0.00000000E+00  0.00000000E+00  1.00000000E+00  0.00000000E+00  0.00000000E+00
  0.00000000E+00  0.00000000E+00  1.00000000E+00  0.00000000E+00  0.00000000E+00
  0.00000000E+00  0.00000000E+00  1.00000000E+00  0.00000000E+00  0.00000000E+00
  0.00000000E+00  0.00000000E+00  1.00000000E+00  0.00000000E+00  0.00000000E+00
  0.00000000E+00  0.00000000E+00  0.00000000E+00  0.00000000E+00  0.00000000E+00
  0.00000000E+00  0.00000000E+00  0.00000000E+00  1.00000000E+00  1.00000000E+00
MxBond                                     I                4
NBond                                      I   N=          18
           1           1           3           3           3           3
           3           3           4           4           1           1
           1           1           1           1           1           1
IBond                                      I   N=          72
           7           0           0           0           8           0
           0           0           6           7           9           0
           7           8          12           0           6           8
          10           0           3           5          11           0
           1           3           4           0           2           4
           5           0           3          13          14          15
           5          16          17          18           6           0
           0           0           4           0           0           0
           9           0           0           0           9           0
           0           0           9           0           0           0
          10           0           0           0          10           0
           0           0          10           0           0           0
RBond                                      R   N=          72
  2.00000000E+00  0.00000000E+00  0.00000000E+00  0.00000000E+00  2.00000000E+00
  0.00000000E+00  0.00000000E+00  0.00000000E+00  1.00000000E+00  1.00000000E+00
  1.00000000E+00  0.00000000E+00  1.00000000E+00  1.00000000E+00  1.00000000E+00
  0.00000000E+00  2.00000000E+00  1.00000000E+00  1.00000000E+00  0.00000000E+00
  1.00000000E+00  2.00000000E+00  1.00000000E+00  0.00000000E+00  2.00000000E+00
  1.00000000E+00  1.00000000E+00  0.00000000E+00  2.00000000E+00  1.00000000E+00
  1.00000000E+00  0.00000000E+00  1.00000000E+00  1.00000000E+00  1.00000000E+00
  1.00000000E+00  1.00000000E+00  1.00000000E+00  1.00000000E+00  1.00000000E+00
  1.00000000E+00  0.00000000E+00  0.00000000E+00  0.00000000E+00  1.00000000E+00
  0.00000000E+00  0.00000000E+00  0.00000000E+00  1.00000000E+00  0.00000000E+00
  0.00000000E+00  0.00000000E+00  1.00000000E+00  0.00000000E+00  0.00000000E+00
  0.00000000E+00  1.00000000E+00  0.00000000E+00  0.00000000E+00  0.00000000E+00
  1.00000000E+00  0.00000000E+00  0.00000000E+00  0.00000000E+00  1.00000000E+00
  0.00000000E+00  0.00000000E+00  0.00000000E+00  1.00000000E+00  0.00000000E+00
  0.00000000E+00  0.00000000E+00
Virial Ratio                               R      2.002872439222049E+00
SCF Energy                                 R     -4.905326486529973E+02
MP2 Energy                                 R     -4.919694606743419E+02
Total Energy                               R     -4.919694606743419E+02
Post-SCF wavefunction norm                 R      1.708584229738847E+00
RMS Force                                  R      3.001589537489340E-08
RMS Density                                R      1.297929408856892E-09
External E-field                           R   N=          35
  0.00000000E+00  0.00000000E+00  0.00000000E+00  0.00000000E+00  0.00000000E+00
  0.00000000E+00  0.00000000E+00  0.00000000E+00  0.00000000E+00  0.00000000E+00
  0.00000000E+00  0.00000000E+00  0.00000000E+00  0.00000000E+00  0.00000000E+00
  0.00000000E+00  0.00000000E+00  0.00000000E+00  0.00000000E+00  0.00000000E+00
  0.00000000E+00  0.00000000E+00  0.00000000E+00  0.00000000E+00  0.00000000E+00
  0.00000000E+00  0.00000000E+00  0.00000000E+00  0.00000000E+00  0.00000000E+00
  0.00000000E+00  0.00000000E+00  0.00000000E+00  0.00000000E+00  0.00000000E+00
IOpCl                                      I                0
IROHF                                      I                0
Alpha Orbital Energies                     R   N=         166
 -2.05458897E+01 -2.05420677E+01 -1.56427977E+01 -1.56267467E+01 -1.14136833E+01
 -1.13762063E+01 -1.13275885E+01 -1.12890012E+01 -1.12563476E+01 -1.12360223E+01
 -1.42219638E+00 -1.38307286E+00 -1.30443029E+00 -1.24085183E+00 -1.10664797E+00
 -9.92858787E-01 -9.60834210E-01 -9.12505212E-01 -8.50560784E-01 -7.67828125E-01
 -7.33285150E-01 -6.90528193E-01 -6.79019611E-01 -6.45957022E-01 -6.30703664E-01
 -6.09397351E-01 -6.05198713E-01 -5.90165594E-01 -5.78794321E-01 -5.55462242E-01
 -5.46165688E-01 -5.35298329E-01 -4.87548020E-01 -4.68815327E-01 -4.36572285E-01
 -4.22499634E-01 -3.38371603E-01  1.07562228E-01  1.75226323E-01  2.14985630E-01
  2.44145583E-01  2.47305503E-01  2.58882433E-01  2.85047860E-01  2.93458053E-01
  3.19393997E-01  3.19750313E-01  3.37949358E-01  3.60823625E-01  4.03940897E-01
  4.11962155E-01  4.25077550E-01  4.56661026E-01  5.06427763E-01  5.20205574E-01
  5.41886114E-01  5.60247381E-01  6.53868499E-01  6.63158085E-01  6.98958318E-01
  7.33411811E-01  7.42562385E-01  7.53369602E-01  7.58551594E-01  7.91189502E-01
  8.21544293E-01  8.32268629E-01  8.60573058E-01  8.71348538E-01  9.10625605E-01
  9.28580542E-01  9.41232186E-01  9.48886646E-01  9.63177405E-01  9.80104804E-01
  1.03671068E+00  1.04559917E+00  1.05057064E+00  1.05635117E+00  1.10430074E+00
  1.10948278E+00  1.13389987E+00  1.13964180E+00  1.15224845E+00  1.16217590E+00
  1.16967579E+00  1.19255315E+00  1.20046530E+00  1.23029978E+00  1.29404223E+00
  1.30623358E+00  1.34406597E+00  1.34429171E+00  1.36918235E+00  1.37809586E+00
  1.39004765E+00  1.43832437E+00  1.44503969E+00  1.50319208E+00  1.57049327E+00
  1.57775815E+00  1.61645156E+00  1.62439147E+00  1.64569928E+00  1.68218431E+00
  1.69659707E+00  1.70047532E+00  1.75905748E+00  1.82069069E+00  1.86266260E+00
  1.91782113E+00  2.04223963E+00  2.07294559E+00  2.07819984E+00  2.08568148E+00
  2.09730050E+00  2.13613520E+00  2.14010437E+00  2.14823926E+00  2.17359949E+00
  2.19526667E+00  2.20678190E+00  2.24671792E+00  2.27290210E+00  2.27919155E+00
  2.30779976E+00  2.34486746E+00  2.35752860E+00  2.44003213E+00  2.45932102E+00
  2.46511494E+00  2.50515563E+00  2.58754551E+00  2.60996283E+00  2.61289635E+00
  2.62009494E+00  2.65467281E+00  2.66253374E+00  2.68614648E+00  2.70305597E+00
  2.76942141E+00  2.77892434E+00  2.92129415E+00  2.94147795E+00  2.98008237E+00
  2.99095808E+00  3.01740801E+00  3.05876186E+00  3.16854146E+00  3.21186203E+00
  3.23744003E+00  3.33616459E+00  3.35933933E+00  3.37960775E+00  3.62636915E+00
  3.79382502E+00  4.38203750E+00  4.39947706E+00  4.43603520E+00  4.56441381E+00
  4.59023860E+00  4.70680919E+00  4.74876506E+00  4.87161961E+00  5.03929096E+00
  5.10982649E+00
Alpha MO coefficients                      R   N=       27556
  9.94694356E-01  2.10085015E-02 -1.40712818E-03  7.97956562E-04 -3.35298118E-09
  4.37712428E-03  5.45007661E-05 -4.16129840E-05  2.60095072E-10 -3.68295628E-03
 -3.83923985E-03 -4.07216836E-03 -1.48209451E-04  8.19767337E-10 -5.29385456E-10
  1.00039213E-06  5.59180070E-05  4.76772898E-06  2.34590091E-06 -1.62737294E-12
 -3.67985647E-04 -7.91466828E-05 -2.73232816E-05  1.20978611E-10  3.13127982E-05
  3.54324875E-05  3.29597291E-05 -1.64519069E-06  4.64556428E-12  5.15954581E-12
 -1.45168496E-05 -5.80950459E-05 -1.41242290E-05  3.72818992E-05 -3.26520428E-10
  3.33427383E-04 -7.76436251E-05 -2.06701162E-04  2.00851370E-09 -3.47193447E-05
 -9.45801669E-06 -5.96047646E-05  1.11577403E-04  5.68782292E-11  1.30829376E-10
 -1.81150108E-05 -6.47301103E-05 -3.31518904E-05 -1.05552079E-06 -1.09840737E-10
  4.79999996E-04  2.34655323E-04  2.43093069E-04  3.97857792E-10 -1.02805658E-04
  3.78865858E-05 -6.71408634E-05  7.92641475E-05 -4.46023933E-11  7.17586443E-11
 -3.41427065E-06 -2.17228770E-05  5.46425673E-06 -1.09947430E-05 -4.30738101E-11
  5.59835414E-04  1.99244233E-04 -1.70718611E-04  7.31809321E-11  2.77766325E-06
 -4.74841669E-06 -6.54656446E-07 -1.52906010E-05  7.16066190E-12  1.28072869E-11
  5.57731138E-06  3.09521181E-05  2.10438477E-05 -8.22287917E-06 -1.07978239E-10
 -2.94417401E-04  7.78575414E-05  2.71959047E-04 -4.91895622E-10  4.42448066E-05
 -2.17837681E-05  1.15286579E-05 -3.22882990E-06 -1.81853268E-10  7.90352458E-11
 -6.29381772E-06  5.39045833E-04 -1.84173247E-05 -6.57726914E-07 -7.30858527E-11
 -8.50188624E-04 -1.25872533E-04  2.40696335E-04 -8.42710672E-10 -6.69415352E-04
 -2.41519261E-04 -4.76671265E-05  3.93528095E-04 -1.44651311E-09  7.19448800E-10
  1.12502304E-05  4.43294290E-05  2.35957416E-05 -1.03967046E-05 -6.04609898E-11