45085386                                                                
Freq      RMP2-FC                                                     6-31G(d)            
Number of atoms                            I               22
Info1-9                                    I   N=           9
          34          32        1002           0           0         100
           6           2           1
Charge                                     I                0
Multiplicity                               I                1
Number of electrons                        I               72
Number of alpha electrons                  I               36
Number of beta electrons                   I               36
Number of basis functions                  I              161
Number of independent functions            I              161
Number of point charges in /Mol/           I                0
Number of translation vectors              I                0
Atomic numbers                             I   N=          22
           8           8           7           6           6           6
           6           6           6           1           1           1
           1           1           1           1           1           1
           1           1           1           1
Nuclear charges                            R   N=          22
  8.00000000E+00  8.00000000E+00  7.00000000E+00  6.00000000E+00  6.00000000E+00
  6.00000000E+00  6.00000000E+00  6.00000000E+00  6.00000000E+00  1.00000000E+00
  1.00000000E+00  1.00000000E+00  1.00000000E+00  1.00000000E+00  1.00000000E+00
  1.00000000E+00  1.00000000E+00  1.00000000E+00  1.00000000E+00  1.00000000E+00
  1.00000000E+00  1.00000000E+00
Current cartesian coordinates              R   N=          66
 -3.29694186E+00 -2.60717783E+00 -1.48928655E+00 -8.11943229E-01  3.32024334E+00
  4.91453163E-01  8.92673010E-01 -6.29419868E-01 -2.39046242E-03  3.47610719E+00
  1.38440746E-01  5.69378736E-01 -3.60926151E+00 -1.95948296E-02 -7.49737471E-01
  4.71651404E+00  1.36907828E+00 -1.72511907E+00  4.94087350E+00 -2.14772105E+00
  1.51990781E+00 -1.02852901E+00  1.05611339E+00 -5.09677103E-02 -5.40629226E+00
  2.57044594E-01  1.47697470E+00  3.33318102E+00  1.55021889E+00  2.07545378E+00
  5.19754579E-01 -2.40578416E+00 -6.16727355E-01 -4.29387489E+00  1.10818326E+00
 -2.35426209E+00  4.83208964E+00  1.89829170E-02 -3.28833413E+00  3.60421725E+00
  2.99982732E+00 -2.32749299E+00  6.63025482E+00  2.00827052E+00 -1.26719594E+00
  5.05954223E+00 -3.59922016E+00  4.76839632E-02  4.03038867E+00 -2.96970586E+00
  3.18254744E+00  6.86893766E+00 -1.60573186E+00  2.02834687E+00 -4.72656148E+00
 -8.89266243E-01  3.05567587E+00 -7.31222110E+00 -3.70865909E-01  9.68752049E-01
 -5.49065920E+00  2.23382260E+00  2.06089953E+00 -4.96915116E+00 -3.29748298E+00
 -1.80856872E+00
Force Field                                I                0
Int Atom Types                             I   N=          22
           0           0           0           0           0           0
           0           0           0           0           0           0
           0           0           0           0           0           0
           0           0           0           0
MM charges                                 R   N=          22
  0.00000000E+00  0.00000000E+00  0.00000000E+00  0.00000000E+00  0.00000000E+00
  0.00000000E+00  0.00000000E+00  0.00000000E+00  0.00000000E+00  0.00000000E+00
  0.00000000E+00  0.00000000E+00  0.00000000E+00  0.00000000E+00  0.00000000E+00
  0.00000000E+00  0.00000000E+00  0.00000000E+00  0.00000000E+00  0.00000000E+00
  0.00000000E+00  0.00000000E+00
Integer atomic weights                     I   N=          22
          16          16          14          12          12          12
          12          12          12           1           1           1
           1           1           1           1           1           1
           1           1           1           1
Real atomic weights                        R   N=          22
  1.59949146E+01  1.59949146E+01  1.40030740E+01  1.20000000E+01  1.20000000E+01
  1.20000000E+01  1.20000000E+01  1.20000000E+01  1.20000000E+01  1.00782504E+00
  1.00782504E+00  1.00782504E+00  1.00782504E+00  1.00782504E+00  1.00782504E+00
  1.00782504E+00  1.00782504E+00  1.00782504E+00  1.00782504E+00  1.00782504E+00
  1.00782504E+00  1.00782504E+00
Atom fragment info                         I   N=          22
           0           0           0           0           0           0
           0           0           0           0           0           0
           0           0           0           0           0           0
           0           0           0           0
Atom residue num                           I   N=          22
           0           0           0           0           0           0
           0           0           0           0           0           0
           0           0           0           0           0           0
           0           0           0           0
Nuclear spins                              I   N=          22
           0           0           2           0           0           0
           0           0           0           1           1           1
           1           1           1           1           1           1
           1           1           1           1
Nuclear ZEff                               R   N=          22
 -5.60000000E+00 -5.60000000E+00 -4.55000000E+00 -3.60000000E+00 -3.60000000E+00
 -3.60000000E+00 -3.60000000E+00 -3.60000000E+00 -3.60000000E+00 -1.00000000E+00
 -1.00000000E+00 -1.00000000E+00 -1.00000000E+00 -1.00000000E+00 -1.00000000E+00
 -1.00000000E+00 -1.00000000E+00 -1.00000000E+00 -1.00000000E+00 -1.00000000E+00
 -1.00000000E+00 -1.00000000E+00
Nuclear QMom                               R   N=          22
  0.00000000E+00  0.00000000E+00  2.04400000E+00  0.00000000E+00  0.00000000E+00
  0.00000000E+00  0.00000000E+00  0.00000000E+00  0.00000000E+00  0.00000000E+00
  0.00000000E+00  0.00000000E+00  0.00000000E+00  0.00000000E+00  0.00000000E+00
  0.00000000E+00  0.00000000E+00  0.00000000E+00  0.00000000E+00  0.00000000E+00
  0.00000000E+00  0.00000000E+00
Nuclear GFac                               R   N=          22
  0.00000000E+00  0.00000000E+00  4.03761000E-01  0.00000000E+00  0.00000000E+00
  0.00000000E+00  0.00000000E+00  0.00000000E+00  0.00000000E+00  2.79284600E+00
  2.79284600E+00  2.79284600E+00  2.79284600E+00  2.79284600E+00  2.79284600E+00
  2.79284600E+00  2.79284600E+00  2.79284600E+00  2.79284600E+00  2.79284600E+00
  2.79284600E+00  2.79284600E+00
MicOpt                                     I   N=          22
          -1          -1          -1          -1          -1          -1
          -1          -1          -1          -1          -1          -1
          -1          -1          -1          -1          -1          -1
          -1          -1          -1          -1
Number of contracted shells                I               62
Number of primitive shells                 I              151
Pure/Cartesian d shells                    I                1
Pure/Cartesian f shells                    I                0
Highest angular momentum                   I                2
Largest degree of contraction              I                6
Shell types                                I   N=          62
           0          -1          -1           2           0          -1
          -1           2           0          -1          -1           2
           0          -1          -1           2           0          -1
          -1           2           0          -1          -1           2
           0          -1          -1           2           0          -1
          -1           2           0          -1          -1           2
           0           0           0           0           0           0
           0           0           0           0           0           0
           0           0           0           0           0           0
           0           0           0           0           0           0
           0           0
Number of primitives per shell             I   N=          62
           6           3           1           1           6           3
           1           1           6           3           1           1
           6           3           1           1           6           3
           1           1           6           3           1           1
           6           3           1           1           6           3
           1           1           6           3           1           1
           3           1           3           1           3           1
           3           1           3           1           3           1
           3           1           3           1           3           1
           3           1           3           1           3           1
           3           1
Shell to atom map                          I   N=          62
           1           1           1           1           2           2
           2           2           3           3           3           3
           4           4           4           4           5           5
           5           5           6           6           6           6
           7           7           7           7           8           8
           8           8           9           9           9           9
          10          10          11          11          12          12
          13          13          14          14          15          15
          16          16          17          17          18          18
          19          19          20          20          21          21
          22          22
Primitive exponents                        R   N=         151
  5.48467166E+03  8.25234946E+02  1.88046958E+02  5.29645000E+01  1.68975704E+01
  5.79963534E+00  1.55396162E+01  3.59993359E+00  1.01376175E+00  2.70005823E-01
  8.00000000E-01  5.48467166E+03  8.25234946E+02  1.88046958E+02  5.29645000E+01
  1.68975704E+01  5.79963534E+00  1.55396162E+01  3.59993359E+00  1.01376175E+00
  2.70005823E-01  8.00000000E-01  4.17351146E+03  6.27457911E+02  1.42902093E+02
  4.02343293E+01  1.28202129E+01  4.39043701E+00  1.16263619E+01  2.71627981E+00
  7.72218397E-01  2.12031498E-01  8.00000000E-01  3.04752488E+03  4.57369518E+02
  1.03948685E+02  2.92101553E+01  9.28666296E+00  3.16392696E+00  7.86827235E+00
  1.88128854E+00  5.44249258E-01  1.68714478E-01  8.00000000E-01  3.04752488E+03
  4.57369518E+02  1.03948685E+02  2.92101553E+01  9.28666296E+00  3.16392696E+00
  7.86827235E+00  1.88128854E+00  5.44249258E-01  1.68714478E-01  8.00000000E-01
  3.04752488E+03  4.57369518E+02  1.03948685E+02  2.92101553E+01  9.28666296E+00
  3.16392696E+00  7.86827235E+00  1.88128854E+00  5.44249258E-01  1.68714478E-01
  8.00000000E-01  3.04752488E+03  4.57369518E+02  1.03948685E+02  2.92101553E+01
  9.28666296E+00  3.16392696E+00  7.86827235E+00  1.88128854E+00  5.44249258E-01
  1.68714478E-01  8.00000000E-01  3.04752488E+03  4.57369518E+02  1.03948685E+02
  2.92101553E+01  9.28666296E+00  3.16392696E+00  7.86827235E+00  1.88128854E+00
  5.44249258E-01  1.68714478E-01  8.00000000E-01  3.04752488E+03  4.57369518E+02
  1.03948685E+02  2.92101553E+01  9.28666296E+00  3.16392696E+00  7.86827235E+00
  1.88128854E+00  5.44249258E-01  1.68714478E-01  8.00000000E-01  1.87311370E+01
  2.82539436E+00  6.40121692E-01  1.61277759E-01  1.87311370E+01  2.82539436E+00
  6.40121692E-01  1.61277759E-01  1.87311370E+01  2.82539436E+00  6.40121692E-01
  1.61277759E-01  1.87311370E+01  2.82539436E+00  6.40121692E-01  1.61277759E-01
  1.87311370E+01  2.82539436E+00  6.40121692E-01  1.61277759E-01  1.87311370E+01
  2.82539436E+00  6.40121692E-01  1.61277759E-01  1.87311370E+01  2.82539436E+00
  6.40121692E-01  1.61277759E-01  1.87311370E+01  2.82539436E+00  6.40121692E-01
  1.61277759E-01  1.87311370E+01  2.82539436E+00  6.40121692E-01  1.61277759E-01
  1.87311370E+01  2.82539436E+00  6.40121692E-01  1.61277759E-01  1.87311370E+01
  2.82539436E+00  6.40121692E-01  1.61277759E-01  1.87311370E+01  2.82539436E+00
  6.40121692E-01  1.61277759E-01  1.87311370E+01  2.82539436E+00  6.40121692E-01
  1.61277759E-01
Contraction coefficients                   R   N=         151
  1.83107443E-03  1.39501722E-02  6.84450781E-02  2.32714336E-01  4.70192898E-01
  3.58520853E-01 -1.10777550E-01 -1.48026263E-01  1.13076702E+00  1.00000000E+00
  1.00000000E+00  1.83107443E-03  1.39501722E-02  6.84450781E-02  2.32714336E-01
  4.70192898E-01  3.58520853E-01 -1.10777550E-01 -1.48026263E-01  1.13076702E+00
  1.00000000E+00  1.00000000E+00  1.83477216E-03  1.39946270E-02  6.85865518E-02
  2.32240873E-01  4.69069948E-01  3.60455199E-01 -1.14961182E-01 -1.69117479E-01
  1.14585195E+00  1.00000000E+00  1.00000000E+00  1.83473713E-03  1.40373228E-02
  6.88426223E-02  2.32184443E-01  4.67941348E-01  3.62311985E-01 -1.19332420E-01
 -1.60854152E-01  1.14345644E+00  1.00000000E+00  1.00000000E+00  1.83473713E-03
  1.40373228E-02  6.88426223E-02  2.32184443E-01  4.67941348E-01  3.62311985E-01
 -1.19332420E-01 -1.60854152E-01  1.14345644E+00  1.00000000E+00  1.00000000E+00
  1.83473713E-03  1.40373228E-02  6.88426223E-02  2.32184443E-01  4.67941348E-01
  3.62311985E-01 -1.19332420E-01 -1.60854152E-01  1.14345644E+00  1.00000000E+00
  1.00000000E+00  1.83473713E-03  1.40373228E-02  6.88426223E-02  2.32184443E-01
  4.67941348E-01  3.62311985E-01 -1.19332420E-01 -1.60854152E-01  1.14345644E+00
  1.00000000E+00  1.00000000E+00  1.83473713E-03  1.40373228E-02  6.88426223E-02
  2.32184443E-01  4.67941348E-01  3.62311985E-01 -1.19332420E-01 -1.60854152E-01
  1.14345644E+00  1.00000000E+00  1.00000000E+00  1.83473713E-03  1.40373228E-02
  6.88426223E-02  2.32184443E-01  4.67941348E-01  3.62311985E-01 -1.19332420E-01
 -1.60854152E-01  1.14345644E+00  1.00000000E+00  1.00000000E+00  3.34946043E-02
  2.34726953E-01  8.13757326E-01  1.00000000E+00  3.34946043E-02  2.34726953E-01
  8.13757326E-01  1.00000000E+00  3.34946043E-02  2.34726953E-01  8.13757326E-01
  1.00000000E+00  3.34946043E-02  2.34726953E-01  8.13757326E-01  1.00000000E+00
  3.34946043E-02  2.34726953E-01  8.13757326E-01  1.00000000E+00  3.34946043E-02
  2.34726953E-01  8.13757326E-01  1.00000000E+00  3.34946043E-02  2.34726953E-01
  8.13757326E-01  1.00000000E+00  3.34946043E-02  2.34726953E-01  8.13757326E-01
  1.00000000E+00  3.34946043E-02  2.34726953E-01  8.13757326E-01  1.00000000E+00
  3.34946043E-02  2.34726953E-01  8.13757326E-01  1.00000000E+00  3.34946043E-02
  2.34726953E-01  8.13757326E-01  1.00000000E+00  3.34946043E-02  2.34726953E-01
  8.13757326E-01  1.00000000E+00  3.34946043E-02  2.34726953E-01  8.13757326E-01
  1.00000000E+00
P(S=P) Contraction coefficients            R   N=         151
  0.00000000E+00  0.00000000E+00  0.00000000E+00  0.00000000E+00  0.00000000E+00
  0.00000000E+00  7.08742682E-02  3.39752839E-01  7.27158577E-01  1.00000000E+00
  0.00000000E+00  0.00000000E+00  0.00000000E+00  0.00000000E+00  0.00000000E+00
  0.00000000E+00  0.00000000E+00  7.08742682E-02  3.39752839E-01  7.27158577E-01
  1.00000000E+00  0.00000000E+00  0.00000000E+00  0.00000000E+00  0.00000000E+00
  0.00000000E+00  0.00000000E+00  0.00000000E+00  6.75797439E-02  3.23907296E-01
  7.40895140E-01  1.00000000E+00  0.00000000E+00  0.00000000E+00  0.00000000E+00
  0.00000000E+00  0.00000000E+00  0.00000000E+00  0.00000000E+00  6.89990666E-02
  3.16423961E-01  7.44308291E-01  1.00000000E+00  0.00000000E+00  0.00000000E+00
  0.00000000E+00  0.00000000E+00  0.00000000E+00  0.00000000E+00  0.00000000E+00
  6.89990666E-02  3.16423961E-01  7.44308291E-01  1.00000000E+00  0.00000000E+00
  0.00000000E+00  0.00000000E+00  0.00000000E+00  0.00000000E+00  0.00000000E+00
  0.00000000E+00  6.89990666E-02  3.16423961E-01  7.44308291E-01  1.00000000E+00
  0.00000000E+00  0.00000000E+00  0.00000000E+00  0.00000000E+00  0.00000000E+00
  0.00000000E+00  0.00000000E+00  6.89990666E-02  3.16423961E-01  7.44308291E-01
  1.00000000E+00  0.00000000E+00  0.00000000E+00  0.00000000E+00  0.00000000E+00
  0.00000000E+00  0.00000000E+00  0.00000000E+00  6.89990666E-02  3.16423961E-01
  7.44308291E-01  1.00000000E+00  0.00000000E+00  0.00000000E+00  0.00000000E+00
  0.00000000E+00  0.00000000E+00  0.00000000E+00  0.00000000E+00  6.89990666E-02
  3.16423961E-01  7.44308291E-01  1.00000000E+00  0.00000000E+00  0.00000000E+00
  0.00000000E+00  0.00000000E+00  0.00000000E+00  0.00000000E+00  0.00000000E+00
  0.00000000E+00  0.00000000E+00  0.00000000E+00  0.00000000E+00  0.00000000E+00
  0.00000000E+00  0.00000000E+00  0.00000000E+00  0.00000000E+00  0.00000000E+00
  0.00000000E+00  0.00000000E+00  0.00000000E+00  0.00000000E+00  0.00000000E+00
  0.00000000E+00  0.00000000E+00  0.00000000E+00  0.00000000E+00  0.00000000E+00
  0.00000000E+00  0.00000000E+00  0.00000000E+00  0.00000000E+00  0.00000000E+00
  0.00000000E+00  0.00000000E+00  0.00000000E+00  0.00000000E+00  0.00000000E+00
  0.00000000E+00  0.00000000E+00  0.00000000E+00  0.00000000E+00  0.00000000E+00
  0.00000000E+00  0.00000000E+00  0.00000000E+00  0.00000000E+00  0.00000000E+00
  0.00000000E+00  0.00000000E+00  0.00000000E+00  0.00000000E+00  0.00000000E+00
  0.00000000E+00
Coordinates of each shell                  R   N=         186
 -3.29694186E+00 -2.60717783E+00 -1.48928655E+00 -3.29694186E+00 -2.60717783E+00
 -1.48928655E+00 -3.29694186E+00 -2.60717783E+00 -1.48928655E+00 -3.29694186E+00
 -2.60717783E+00 -1.48928655E+00 -8.11943229E-01  3.32024334E+00  4.91453163E-01
 -8.11943229E-01  3.32024334E+00  4.91453163E-01 -8.11943229E-01  3.32024334E+00
  4.91453163E-01 -8.11943229E-01  3.32024334E+00  4.91453163E-01  8.92673010E-01
 -6.29419868E-01 -2.39046242E-03  8.92673010E-01 -6.29419868E-01 -2.39046242E-03
  8.92673010E-01 -6.29419868E-01 -2.39046242E-03  8.92673010E-01 -6.29419868E-01
 -2.39046242E-03  3.47610719E+00  1.38440746E-01  5.69378736E-01  3.47610719E+00
  1.38440746E-01  5.69378736E-01  3.47610719E+00  1.38440746E-01  5.69378736E-01
  3.47610719E+00  1.38440746E-01  5.69378736E-01 -3.60926151E+00 -1.95948296E-02
 -7.49737471E-01 -3.60926151E+00 -1.95948296E-02 -7.49737471E-01 -3.60926151E+00
 -1.95948296E-02 -7.49737471E-01 -3.60926151E+00 -1.95948296E-02 -7.49737471E-01
  4.71651404E+00  1.36907828E+00 -1.72511907E+00  4.71651404E+00  1.36907828E+00
 -1.72511907E+00  4.71651404E+00  1.36907828E+00 -1.72511907E+00  4.71651404E+00
  1.36907828E+00 -1.72511907E+00  4.94087350E+00 -2.14772105E+00  1.51990781E+00
  4.94087350E+00 -2.14772105E+00  1.51990781E+00  4.94087350E+00 -2.14772105E+00
  1.51990781E+00  4.94087350E+00 -2.14772105E+00  1.51990781E+00 -1.02852901E+00
  1.05611339E+00 -5.09677103E-02 -1.02852901E+00  1.05611339E+00 -5.09677103E-02
 -1.02852901E+00  1.05611339E+00 -5.09677103E-02 -1.02852901E+00  1.05611339E+00
 -5.09677103E-02 -5.40629226E+00  2.57044594E-01  1.47697470E+00 -5.40629226E+00
  2.57044594E-01  1.47697470E+00 -5.40629226E+00  2.57044594E-01  1.47697470E+00
 -5.40629226E+00  2.57044594E-01  1.47697470E+00  3.33318102E+00  1.55021889E+00
  2.07545378E+00  3.33318102E+00  1.55021889E+00  2.07545378E+00  5.19754579E-01
 -2.40578416E+00 -6.16727355E-01  5.19754579E-01 -2.40578416E+00 -6.16727355E-01
 -4.29387489E+00  1.10818326E+00 -2.35426209E+00 -4.29387489E+00  1.10818326E+00
 -2.35426209E+00  4.83208964E+00  1.89829170E-02 -3.28833413E+00  4.83208964E+00
  1.89829170E-02 -3.28833413E+00  3.60421725E+00  2.99982732E+00 -2.32749299E+00
  3.60421725E+00  2.99982732E+00 -2.32749299E+00  6.63025482E+00  2.00827052E+00
 -1.26719594E+00  6.63025482E+00  2.00827052E+00 -1.26719594E+00  5.05954223E+00
 -3.59922016E+00  4.76839632E-02  5.05954223E+00 -3.59922016E+00  4.76839632E-02
  4.03038867E+00 -2.96970586E+00  3.18254744E+00  4.03038867E+00 -2.96970586E+00
  3.18254744E+00  6.86893766E+00 -1.60573186E+00  2.02834687E+00  6.86893766E+00
 -1.60573186E+00  2.02834687E+00 -4.72656148E+00 -8.89266243E-01  3.05567587E+00
 -4.72656148E+00 -8.89266243E-01  3.05567587E+00 -7.31222110E+00 -3.70865909E-01
  9.68752049E-01 -7.31222110E+00 -3.70865909E-01  9.68752049E-01 -5.49065920E+00
  2.23382260E+00  2.06089953E+00 -5.49065920E+00  2.23382260E+00  2.06089953E+00
 -4.96915116E+00 -3.29748298E+00 -1.80856872E+00 -4.96915116E+00 -3.29748298E+00
 -1.80856872E+00
Constraint Structure                       R   N=          66
 -3.29694186E+00 -2.60717783E+00 -1.48928655E+00 -8.11943229E-01  3.32024334E+00
  4.91453163E-01  8.92673010E-01 -6.29419868E-01 -2.39046242E-03  3.47610719E+00
  1.38440746E-01  5.69378736E-01 -3.60926151E+00 -1.95948296E-02 -7.49737471E-01
  4.71651404E+00  1.36907828E+00 -1.72511907E+00  4.94087350E+00 -2.14772105E+00
  1.51990781E+00 -1.02852901E+00  1.05611339E+00 -5.09677103E-02 -5.40629226E+00
  2.57044594E-01  1.47697470E+00  3.33318102E+00  1.55021889E+00  2.07545378E+00
  5.19754579E-01 -2.40578416E+00 -6.16727355E-01 -4.29387489E+00  1.10818326E+00
 -2.35426209E+00  4.83208964E+00  1.89829170E-02 -3.28833413E+00  3.60421725E+00
  2.99982732E+00 -2.32749299E+00  6.63025482E+00  2.00827052E+00 -1.26719594E+00
  5.05954223E+00 -3.59922016E+00  4.76839632E-02  4.03038867E+00 -2.96970586E+00
  3.18254744E+00  6.86893766E+00 -1.60573186E+00  2.02834687E+00 -4.72656148E+00
 -8.89266243E-01  3.05567587E+00 -7.31222110E+00 -3.70865909E-01  9.68752049E-01
 -5.49065920E+00  2.23382260E+00  2.06089953E+00 -4.96915116E+00 -3.29748298E+00
 -1.80856872E+00
Num ILSW                                   I              100
ILSW                                       I   N=         100
           0           1           0           1           2           0
           0           0           0           0           0          -1
           0           0           0           0           0           0
           0           0           0           0           1           0
           1           0           0           0           0           0
           0           0      100000           0          -1           0
           0           0           0           0           0           0
           0           0           0           1           1           0
           0           0           1           0           0           0
           0           0           4          40           0           0
           0           0           0           0           0           0
           0           0           0           0           0           0
           0           0           0           0           0           0
           0           0           0           0           0           0
           0           0           0           0           0           0
           0           0           0           0           0           0
           0           0           0           0
Num RLSW                                   I               40
RLSW                                       R   N=          40
  1.00000000E+00  1.00000000E+00  1.00000000E+00  1.00000000E+00  1.00000000E+00
  0.00000000E+00  0.00000000E+00  1.00000000E+00  0.00000000E+00  0.00000000E+00
  0.00000000E+00  0.00000000E+00  1.00000000E+00  0.00000000E+00  0.00000000E+00
  0.00000000E+00  0.00000000E+00  1.00000000E+00  0.00000000E+00  0.00000000E+00
  0.00000000E+00  0.00000000E+00  1.00000000E+00  0.00000000E+00  0.00000000E+00
  0.00000000E+00  0.00000000E+00  1.00000000E+00  0.00000000E+00  0.00000000E+00
  0.00000000E+00  0.00000000E+00  0.00000000E+00  0.00000000E+00  0.00000000E+00
  0.00000000E+00  0.00000000E+00  0.00000000E+00  1.00000000E+00  1.00000000E+00
MxBond                                     I                4
NBond                                      I   N=          22
           2           1           3           4           4           4
           4           3           4           1           1           1
           1           1           1           1           1           1
           1           1           1           1
IBond                                      I   N=          88
           5          22           0           0           8           0
           0           0           4           8          11           0
           3           6           7          10           1           8
           9          12           4          13          14          15
           4          16          17          18           2           3
           5           0           5          19          20          21
           4           0           0           0           3           0
           0           0           5           0           0           0
           6           0           0           0           6           0
           0           0           6           0           0           0
           7           0           0           0           7           0
           0           0           7           0           0           0
           9           0           0           0           9           0
           0           0           9           0           0           0
           1           0           0           0
RBond                                      R   N=          88
  1.00000000E+00  1.00000000E+00  0.00000000E+00  0.00000000E+00  2.00000000E+00
  0.00000000E+00  0.00000000E+00  0.00000000E+00  1.00000000E+00  1.00000000E+00
  1.00000000E+00  0.00000000E+00  1.00000000E+00  1.00000000E+00  1.00000000E+00
  1.00000000E+00  1.00000000E+00  1.00000000E+00  1.00000000E+00  1.00000000E+00
  1.00000000E+00  1.00000000E+00  1.00000000E+00  1.00000000E+00  1.00000000E+00
  1.00000000E+00  1.00000000E+00  1.00000000E+00  2.00000000E+00  1.00000000E+00
  1.00000000E+00  0.00000000E+00  1.00000000E+00  1.00000000E+00  1.00000000E+00
  1.00000000E+00  1.00000000E+00  0.00000000E+00  0.00000000E+00  0.00000000E+00
  1.00000000E+00  0.00000000E+00  0.00000000E+00  0.00000000E+00  1.00000000E+00
  0.00000000E+00  0.00000000E+00  0.00000000E+00  1.00000000E+00  0.00000000E+00
  0.00000000E+00  0.00000000E+00  1.00000000E+00  0.00000000E+00  0.00000000E+00
  0.00000000E+00  1.00000000E+00  0.00000000E+00  0.00000000E+00  0.00000000E+00
  1.00000000E+00  0.00000000E+00  0.00000000E+00  0.00000000E+00  1.00000000E+00
  0.00000000E+00  0.00000000E+00  0.00000000E+00  1.00000000E+00  0.00000000E+00
  0.00000000E+00  0.00000000E+00  1.00000000E+00  0.00000000E+00  0.00000000E+00
  0.00000000E+00  1.00000000E+00  0.00000000E+00  0.00000000E+00  0.00000000E+00
  1.00000000E+00  0.00000000E+00  0.00000000E+00  0.00000000E+00  1.00000000E+00
  0.00000000E+00  0.00000000E+00  0.00000000E+00
Virial Ratio                               R      2.002282573301479E+00
SCF Energy                                 R     -4.389649941618246E+02
MP2 Energy                                 R     -4.402675305779472E+02
Total Energy                               R     -4.402675305779472E+02
Post-SCF wavefunction norm                 R      1.677671975726736E+00
RMS Force                                  R      2.368496358969500E-07
RMS Density                                R      3.085231363610559E-09
External E-field                           R   N=          35
  0.00000000E+00  0.00000000E+00  0.00000000E+00  0.00000000E+00  0.00000000E+00
  0.00000000E+00  0.00000000E+00  0.00000000E+00  0.00000000E+00  0.00000000E+00
  0.00000000E+00  0.00000000E+00  0.00000000E+00  0.00000000E+00  0.00000000E+00
  0.00000000E+00  0.00000000E+00  0.00000000E+00  0.00000000E+00  0.00000000E+00
  0.00000000E+00  0.00000000E+00  0.00000000E+00  0.00000000E+00  0.00000000E+00
  0.00000000E+00  0.00000000E+00  0.00000000E+00  0.00000000E+00  0.00000000E+00
  0.00000000E+00  0.00000000E+00  0.00000000E+00  0.00000000E+00  0.00000000E+00
IOpCl                                      I                0
IROHF                                      I                0
Alpha Orbital Energies                     R   N=         161
 -2.05842020E+01 -2.05133631E+01 -1.55769250E+01 -1.13433698E+01 -1.12992352E+01
 -1.12625590E+01 -1.12289602E+01 -1.12210108E+01 -1.12082093E+01 -1.38361076E+00
 -1.35417837E+00 -1.22366584E+00 -1.05570179E+00 -1.02713779E+00 -9.35513082E-01
 -8.95360501E-01 -8.11444409E-01 -7.74007335E-01 -7.09392775E-01 -6.86376516E-01
 -6.41665856E-01 -6.37007816E-01 -6.11991780E-01 -5.89717055E-01 -5.75458936E-01
 -5.60782896E-01 -5.49584761E-01 -5.41236211E-01 -5.22767502E-01 -5.17056059E-01
 -5.13682637E-01 -4.88028528E-01 -4.77470160E-01 -4.54578359E-01 -4.06613929E-01
 -3.75075169E-01  1.91941828E-01  2.11189962E-01  2.32326992E-01  2.76469745E-01
  2.84791579E-01  2.94848615E-01  2.95802313E-01  3.03890722E-01  3.14668389E-01
  3.19368673E-01  3.27275072E-01  3.34490112E-01  3.49119400E-01  3.55598602E-01
  3.75051004E-01  4.03008894E-01  4.15489790E-01  4.34777359E-01  4.46650477E-01
  4.79554599E-01  5.43717525E-01  6.23799562E-01  7.01815196E-01  7.23053616E-01
  7.41231945E-01  7.45997057E-01  7.62980764E-01  7.77760816E-01  7.88857155E-01
  8.09810689E-01  8.60689087E-01  8.87065944E-01  9.02545553E-01  9.34030783E-01
  9.40252308E-01  9.63248723E-01  9.66758492E-01  9.93990829E-01  1.01455179E+00
  1.03403054E+00  1.07103339E+00  1.09081033E+00  1.10741980E+00  1.12536786E+00
  1.14419524E+00  1.15885126E+00  1.16298531E+00  1.17066857E+00  1.17677883E+00
  1.18433520E+00  1.19621313E+00  1.19661692E+00  1.20488363E+00  1.22661813E+00
  1.22956615E+00  1.25434752E+00  1.25779462E+00  1.27734217E+00  1.30658673E+00
  1.34713944E+00  1.39803498E+00  1.43248837E+00  1.44190332E+00  1.53673374E+00
  1.58343907E+00  1.59771880E+00  1.65335053E+00  1.69224203E+00  1.70549522E+00
  1.73834512E+00  1.79943620E+00  1.81380473E+00  1.88703836E+00  1.93701001E+00
  1.96384893E+00  2.00726378E+00  2.02541614E+00  2.08604063E+00  2.09430542E+00
  2.12815317E+00  2.13109829E+00  2.15890278E+00  2.17929275E+00  2.21777086E+00