
    -----------------------------------------------------------------------
          Psi4: An Open-Source Ab Initio Electronic Structure Package
                               Psi4 1.3.2 release

                         Git: Rev {HEAD} ecbda83 


    R. M. Parrish, L. A. Burns, D. G. A. Smith, A. C. Simmonett,
    A. E. DePrince III, E. G. Hohenstein, U. Bozkaya, A. Yu. Sokolov,
    R. Di Remigio, R. M. Richard, J. F. Gonthier, A. M. James,
    H. R. McAlexander, A. Kumar, M. Saitow, X. Wang, B. P. Pritchard,
    P. Verma, H. F. Schaefer III, K. Patkowski, R. A. King, E. F. Valeev,
    F. A. Evangelista, J. M. Turney, T. D. Crawford, and C. D. Sherrill,
    J. Chem. Theory Comput. 13(7) pp 3185--3197 (2017).
    (doi: 10.1021/acs.jctc.7b00174)


                         Additional Contributions by
    P. Kraus, H. Kruse, M. H. Lechner, M. C. Schieber, R. A. Shaw,
    A. Alenaizan, R. Galvelis, Z. L. Glick, S. Lehtola, and J. P. Misiewicz

    -----------------------------------------------------------------------


    Psi4 started on: Wednesday, 04 November 2020 01:00AM

    Process ID: 31978
    Host:       node74.bme.utexas.edu
    PSIDATADIR: /home/xy3866/psi4conda/share/psi4
    Memory:     500.0 MiB
    Threads:    8
    
  ==> Input File <==

--------------------------------------------------------------------------
#psi4
#
memory 32 gb

molecule  {
0 1
  O        0.8108760    -1.0055400     0.0000200
  O        0.4978050     1.2581890     0.0000550
  N       -1.2743210    -0.2082740    -0.0000680
  C        0.0686337    -0.0136207    -0.0000304
  H       -1.5681090    -1.1717340     0.0000060
  H       -1.9567890     0.5320990     0.0000450
  H        1.7301120    -0.6777840     0.0000950
units angstrom
no_reorient  #important for SAPT in psi4, default
symmetry c1  #important for SAPT in psi4, default
}

set PROPERTIES_ORIGIN ["COM"]
properties('MP2/aug-cc-pvtz', properties = ['dipole'])
--------------------------------------------------------------------------

  Memory set to  29.802 GiB by Python driver.
    SCF Algorithm Type (re)set to DF.

*** tstart() called on node74.bme.utexas.edu
*** at Wed Nov  4 01:00:56 2020

   => Loading Basis Set <=

    Name: AUG-CC-PVTZ
    Role: ORBITAL
    Keyword: BASIS
    atoms 1-2 entry O          line   327 file /home/xy3866/psi4conda/share/psi4/basis/aug-cc-pvtz.gbs 
    atoms 3   entry N          line   281 file /home/xy3866/psi4conda/share/psi4/basis/aug-cc-pvtz.gbs 
    atoms 4   entry C          line   235 file /home/xy3866/psi4conda/share/psi4/basis/aug-cc-pvtz.gbs 
    atoms 5-7 entry H          line    36 file /home/xy3866/psi4conda/share/psi4/basis/aug-cc-pvtz.gbs 


         ---------------------------------------------------------
                                   SCF
               by Justin Turney, Rob Parrish, Andy Simmonett
                          and Daniel G. A. Smith
                              RHF Reference
                        8 Threads,  30517 MiB Core
         ---------------------------------------------------------

  ==> Geometry <==

    Molecular point group: c1
    Full point group: C1

    Geometry (in Angstrom), charge = 0, multiplicity = 1:

       Center              X                  Y                   Z               Mass       
    ------------   -----------------  -----------------  -----------------  -----------------
         O            0.776416338680    -0.999532542534     0.000019512393    15.994914619570
         O            0.463345338680     1.264196457466     0.000054512393    15.994914619570
         N           -1.308780661320    -0.202266542534    -0.000068487607    14.003074004430
         C            0.034174038680    -0.007613242534    -0.000030887607    12.000000000000
         H           -1.602568661320    -1.165726542534     0.000005512393     1.007825032230
         H           -1.991248661320     0.538106457466     0.000044512393     1.007825032230
         H            1.695652338680    -0.671776542534     0.000094512393     1.007825032230

  Running in c1 symmetry.

  Rotational constants: A =      0.38147  B =      0.36175  C =      0.18568 [cm^-1]
  Rotational constants: A =  11436.29534  B =  10845.03052  C =   5566.40897 [MHz]
  Nuclear repulsion =  123.102128703203903

  Charge       = 0
  Multiplicity = 1
  Electrons    = 32
  Nalpha       = 16
  Nbeta        = 16

  ==> Algorithm <==

  SCF Algorithm Type is DF.
  DIIS enabled.
  MOM disabled.
  Fractional occupation disabled.
  Guess Type is SAD.
  Energy threshold   = 1.00e-10
  Density threshold  = 1.00e-10
  Integral threshold = 0.00e+00

  ==> Primary Basis <==

  Basis Set: AUG-CC-PVTZ
    Blend: AUG-CC-PVTZ
    Number of shells: 83
    Number of basis function: 253
    Number of Cartesian functions: 295
    Spherical Harmonics?: true
    Max angular momentum: 3

   => Loading Basis Set <=

    Name: (AUG-CC-PVTZ AUX)
    Role: JKFIT
    Keyword: DF_BASIS_SCF
    atoms 1-2 entry O          line   286 file /home/xy3866/psi4conda/share/psi4/basis/aug-cc-pvtz-jkfit.gbs 
    atoms 3   entry N          line   224 file /home/xy3866/psi4conda/share/psi4/basis/aug-cc-pvtz-jkfit.gbs 
    atoms 4   entry C          line   162 file /home/xy3866/psi4conda/share/psi4/basis/aug-cc-pvtz-jkfit.gbs 
    atoms 5-7 entry H          line    70 file /home/xy3866/psi4conda/share/psi4/basis/aug-cc-pvtz-jkfit.gbs 

  ==> Pre-Iterations <==

   -------------------------------------------------------
    Irrep   Nso     Nmo     Nalpha   Nbeta   Ndocc  Nsocc
   -------------------------------------------------------
     A        253     253       0       0       0       0
   -------------------------------------------------------
    Total     253     253      16      16      16       0
   -------------------------------------------------------

  ==> Integral Setup <==

  DFHelper Memory: AOs need 0.283 GiB; user supplied 22.352 GiB. Using in-core AOs.

  ==> MemDFJK: Density-Fitted J/K Matrices <==

    J tasked:                   Yes
    K tasked:                   Yes
    wK tasked:                   No
    OpenMP threads:               8
    Memory [MiB]:             22888
    Algorithm:                 Core
    Schwarz Cutoff:           1E-12
    Mask sparsity (%):       0.2437
    Fitting Condition:        1E-10

   => Auxiliary Basis Set <=

  Basis Set: (AUG-CC-PVTZ AUX)
    Blend: AUG-CC-PVTZ-JKFIT
    Number of shells: 162
    Number of basis function: 554
    Number of Cartesian functions: 689
    Spherical Harmonics?: true
    Max angular momentum: 4

  Minimum eigenvalue in the overlap matrix is 5.8634616260E-05.
  Using Symmetric Orthogonalization.

  SCF Guess: Superposition of Atomic Densities via on-the-fly atomic UHF.

  ==> Iterations <==

                           Total Energy        Delta E     RMS |[F,P]|

   @DF-RHF iter SAD:  -243.05244125613677   -2.43052e+02   0.00000e+00 
   @DF-RHF iter   1:  -243.71061922958094   -6.58178e-01   2.64620e-03 DIIS
   @DF-RHF iter   2:  -243.82067117167239   -1.10052e-01   1.83476e-03 DIIS
   @DF-RHF iter   3:  -243.89087099480159   -7.01998e-02   2.80843e-04 DIIS
   @DF-RHF iter   4:  -243.89311718356853   -2.24619e-03   1.14156e-04 DIIS
   @DF-RHF iter   5:  -243.89359247631745   -4.75293e-04   2.17416e-05 DIIS
   @DF-RHF iter   6:  -243.89362248838933   -3.00121e-05   7.87417e-06 DIIS
   @DF-RHF iter   7:  -243.89362637547103   -3.88708e-06   2.31835e-06 DIIS
   @DF-RHF iter   8:  -243.89362676422348   -3.88752e-07   6.01164e-07 DIIS
   @DF-RHF iter   9:  -243.89362678414770   -1.99242e-08   2.17562e-07 DIIS
   @DF-RHF iter  10:  -243.89362678584436   -1.69666e-09   4.88454e-08 DIIS
   @DF-RHF iter  11:  -243.89362678599011   -1.45747e-10   1.19798e-08 DIIS
   @DF-RHF iter  12:  -243.89362678599954   -9.43601e-12   2.76374e-09 DIIS
   @DF-RHF iter  13:  -243.89362678600091   -1.36424e-12   7.41405e-10 DIIS
   @DF-RHF iter  14:  -243.89362678600071    1.98952e-13   2.95553e-10 DIIS
   @DF-RHF iter  15:  -243.89362678600060    1.13687e-13   7.74494e-11 DIIS
  Energy and wave function converged.


  ==> Post-Iterations <==

    Orbital Energies [Eh]
    ---------------------

    Doubly Occupied:                                                      

       1A    -20.651936     2A    -20.505278     3A    -15.602433  
       4A    -11.420757     5A     -1.530175     6A     -1.295413  
       7A     -1.215117     8A     -0.904841     9A     -0.759186  
      10A     -0.740609    11A     -0.695988    12A     -0.680623  
      13A     -0.554433    14A     -0.495446    15A     -0.430833  
      16A     -0.409534  

    Virtual:                                                              

      17A      0.022269    18A      0.033523    19A      0.047906  
      20A      0.080062    21A      0.101108    22A      0.109472  
      23A      0.120208    24A      0.123280    25A      0.133854  
      26A      0.159919    27A      0.166215    28A      0.169253  
      29A      0.171062    30A      0.194963    31A      0.197482  
      32A      0.233181    33A      0.245016    34A      0.255585  
      35A      0.266727    36A      0.277362    37A      0.291383  
      38A      0.298643    39A      0.309134    40A      0.329569  
      41A      0.339788    42A      0.358747    43A      0.359499  
      44A      0.368628    45A      0.384656    46A      0.401784  
      47A      0.418982    48A      0.441877    49A      0.443640  
      50A      0.472636    51A      0.479702    52A      0.487201  
      53A      0.528547    54A      0.535996    55A      0.585762  
      56A      0.595109    57A      0.618833    58A      0.624974  
      59A      0.633326    60A      0.640437    61A      0.640878  
      62A      0.692990    63A      0.717469    64A      0.747594  
      65A      0.749748    66A      0.769849    67A      0.770715  
      68A      0.792741    69A      0.831482    70A      0.840619  
      71A      0.868996    72A      0.885028    73A      0.894718  
      74A      0.907119    75A      0.920061    76A      0.934674  
      77A      0.947146    78A      0.989455    79A      1.000165  
      80A      1.000479    81A      1.018552    82A      1.026900  
      83A      1.035144    84A      1.036693    85A      1.061742  
      86A      1.079435    87A      1.091603    88A      1.091780  
      89A      1.119057    90A      1.133012    91A      1.153874  
      92A      1.162061    93A      1.181241    94A      1.211692  
      95A      1.213227    96A      1.231930    97A      1.277793  
      98A      1.316679    99A      1.322005   100A      1.329612  
     101A      1.336728   102A      1.392551   103A      1.395980  
     104A      1.459263   105A      1.462301   106A      1.474933  
     107A      1.495669   108A      1.498007   109A      1.511120  
     110A      1.553200   111A      1.577684   112A      1.624149  
     113A      1.664745   114A      1.672903   115A      1.720517  
     116A      1.764404   117A      1.768178   118A      1.810800  
     119A      1.897332   120A      1.935846   121A      1.967198  
     122A      2.003696   123A      2.048584   124A      2.057552  
     125A      2.093142   126A      2.118826   127A      2.187730  
     128A      2.211256   129A      2.245436   130A      2.253003  
     131A      2.317792   132A      2.333758   133A      2.385015  
     134A      2.385929   135A      2.401247   136A      2.412788  
     137A      2.425057   138A      2.489319   139A      2.501193  
     140A      2.513429   141A      2.556604   142A      2.575531  
     143A      2.592926   144A      2.602045   145A      2.616747  
     146A      2.624188   147A      2.684384   148A      2.707492  
     149A      2.746558   150A      2.749077   151A      2.806394  
     152A      2.886643   153A      2.899268   154A      2.949320  
     155A      2.955301   156A      2.966504   157A      3.027394  
     158A      3.084562   159A      3.178213   160A      3.252396  
     161A      3.274215   162A      3.394160   163A      3.461360  
     164A      3.497691   165A      3.587191   166A      3.639597  
     167A      3.670158   168A      3.765110   169A      3.797762  
     170A      3.893353   171A      3.920509   172A      3.966681  
     173A      4.002473   174A      4.068118   175A      4.069741  
     176A      4.076660   177A      4.163394   178A      4.185512  
     179A      4.210628   180A      4.247270   181A      4.292332  
     182A      4.296741   183A      4.317469   184A      4.379793  
     185A      4.407839   186A      4.429482   187A      4.461699  
     188A      4.475200   189A      4.574394   190A      4.599334  
     191A      4.652321   192A      4.697117   193A      4.748276  
     194A      4.778539   195A      4.845065   196A      4.885368  
     197A      4.966233   198A      4.975633   199A      4.998676  
     200A      5.042903   201A      5.064021   202A      5.100871  
     203A      5.254105   204A      5.278327   205A      5.354378  
     206A      5.378046   207A      5.440307   208A      5.505021  
     209A      5.505894   210A      5.545791   211A      5.658666  
     212A      5.670048   213A      5.791403   214A      5.914067  
     215A      6.069376   216A      6.152058   217A      6.183890  
     218A      6.269318   219A      6.347575   220A      6.467896  
     221A      6.502208   222A      6.671433   223A      6.731624  
     224A      6.751543   225A      6.783917   226A      6.831639  
     227A      6.870564   228A      6.907874   229A      7.016349  
     230A      7.052027   231A      7.086694   232A      7.195817  
     233A      7.200939   234A      7.251015   235A      7.299514  
     236A      7.329615   237A      7.356661   238A      7.397760  
     239A      7.478289   240A      7.575351   241A      7.587202  
     242A      7.636065   243A      7.679483   244A      7.799312  
     245A      7.844744   246A      7.997727   247A      8.112702  
     248A      8.351001   249A      8.610876   250A     13.735039  
     251A     16.512847   252A     16.989258   253A     18.379471  

    Final Occupation by Irrep:
              A 
    DOCC [    16 ]

  @DF-RHF Final Energy:  -243.89362678600060

   => Energetics <=

    Nuclear Repulsion Energy =            123.1021287032039027
    One-Electron Energy =                -578.2063070771547473
    Two-Electron Energy =                 211.2105515879502491
    Total Energy =                       -243.8936267860005955

Computation Completed

*** tstop() called on node74.bme.utexas.edu at Wed Nov  4 01:01:00 2020
Module time:
	user time   =      22.47 seconds =       0.37 minutes
	system time =       0.94 seconds =       0.02 minutes
	total time  =          4 seconds =       0.07 minutes
Total time:
	user time   =      22.47 seconds =       0.37 minutes
	system time =       0.94 seconds =       0.02 minutes
	total time  =          4 seconds =       0.07 minutes
   => Loading Basis Set <=

    Name: (AUG-CC-PVTZ AUX)
    Role: RIFIT
    Keyword: DF_BASIS_MP2
    atoms 1-2 entry O          line   264 file /home/xy3866/psi4conda/share/psi4/basis/aug-cc-pvtz-ri.gbs 
    atoms 3   entry N          line   206 file /home/xy3866/psi4conda/share/psi4/basis/aug-cc-pvtz-ri.gbs 
    atoms 4   entry C          line   148 file /home/xy3866/psi4conda/share/psi4/basis/aug-cc-pvtz-ri.gbs 
    atoms 5-7 entry H          line    30 file /home/xy3866/psi4conda/share/psi4/basis/aug-cc-pvtz-ri.gbs 


*** tstart() called on node74.bme.utexas.edu
*** at Wed Nov  4 01:01:00 2020


  //>>>>>>>>>>>>>>>>>>>>>>>>>>>>>>>>>>>//
  //               DFMP2               //
  //<<<<<<<<<<<<<<<<<<<<<<<<<<<<<<<<<<<//

	 --------------------------------------------------------
	                          DF-MP2                         
	      2nd-Order Density-Fitted Moller-Plesset Theory     
	              RMP2 Wavefunction,   8 Threads             
	                                                         
	        Rob Parrish, Justin Turney, Andy Simmonett,      
	           Ed Hohenstein, and C. David Sherrill          
	 --------------------------------------------------------

   => Auxiliary Basis Set <=

  Basis Set: (AUG-CC-PVTZ AUX)
    Blend: AUG-CC-PVTZ-RI
    Number of shells: 154
    Number of basis function: 562
    Number of Cartesian functions: 709
    Spherical Harmonics?: true
    Max angular momentum: 4

	 --------------------------------------------------------
	                 NBF =   253, NAUX =   562
	 --------------------------------------------------------
	   CLASS    FOCC     OCC    AOCC    AVIR     VIR    FVIR
	   PAIRS       0      16      16     237     237       0
	 --------------------------------------------------------

  DFHelper Memory: AOs need 0.283 GiB; user supplied 22.352 GiB. Using in-core AOs.


         ------------------------------------------------------------
                                     CPHF                           
                                  Rob Parrish                       
         ------------------------------------------------------------

  ==> Geometry <==

    Molecular point group: c1
    Full point group: C1

    Geometry (in Angstrom), charge = 0, multiplicity = 1:

       Center              X                  Y                   Z               Mass       
    ------------   -----------------  -----------------  -----------------  -----------------
         O            0.776416338680    -0.999532542534     0.000019512393    15.994914619570
         O            0.463345338680     1.264196457466     0.000054512393    15.994914619570
         N           -1.308780661320    -0.202266542534    -0.000068487607    14.003074004430
         C            0.034174038680    -0.007613242534    -0.000030887607    12.000000000000
         H           -1.602568661320    -1.165726542534     0.000005512393     1.007825032230
         H           -1.991248661320     0.538106457466     0.000044512393     1.007825032230
         H            1.695652338680    -0.671776542534     0.000094512393     1.007825032230

  Nuclear repulsion =  123.102128703203903
  Reference energy  = -243.893626786000596

  ==> Basis Set <==

  Basis Set: AUG-CC-PVTZ
    Blend: AUG-CC-PVTZ
    Number of shells: 83
    Number of basis function: 253
    Number of Cartesian functions: 295
    Spherical Harmonics?: true
    Max angular momentum: 3

  ==> CGRSolver (by Rob Parrish) <==

   Number of roots    =         1
   Preconditioning    =    JACOBI
   Convergence cutoff =     1E-06
   Maximum iterations =       100

  ==> CPHFRHamiltonian (by Rob Parrish) <== 

  ==> MemDFJK: Density-Fitted J/K Matrices <==

    J tasked:                   Yes
    K tasked:                   Yes
    wK tasked:                   No
    OpenMP threads:               8
    Memory [MiB]:             22888
    Algorithm:                 Core
    Schwarz Cutoff:           1E-12
    Mask sparsity (%):       0.2437
    Fitting Condition:        1E-10

   => Auxiliary Basis Set <=

  Basis Set: (AUG-CC-PVTZ AUX)
    Blend: AUG-CC-PVTZ-JKFIT
    Number of shells: 162
    Number of basis function: 554
    Number of Cartesian functions: 689
    Spherical Harmonics?: true
    Max angular momentum: 4

  ==> CPHF Iterations <==

  => Iterations <=

             Iter  Converged  Remaining    Residual
  CGR           1          0          1   1.301E-01
  CGR           2          0          1   4.551E-02
  CGR           3          0          1   1.855E-02
  CGR           4          0          1   6.204E-03
  CGR           5          0          1   2.880E-03
  CGR           6          0          1   9.828E-04
  CGR           7          0          1   1.969E-04
  CGR           8          0          1   6.031E-05
  CGR           9          0          1   1.856E-05
  CGR          10          0          1   5.403E-06
  CGR          11          0          1   1.087E-06
  CGR          12          1          0   2.272E-07

    CGRSolver converged.

	-----------------------------------------------------------
	 ==================> DF-MP2 Energies <==================== 
	-----------------------------------------------------------
	 Reference Energy          =    -243.8936267860005955 [Eh]
	 Singles Energy            =      -0.0000000000000000 [Eh]
	 Same-Spin Energy          =      -0.2325668233984571 [Eh]
	 Opposite-Spin Energy      =      -0.6884784601002952 [Eh]
	 Correlation Energy        =      -0.9210452834987524 [Eh]
	 Total Energy              =    -244.8146720694993519 [Eh]
	-----------------------------------------------------------
	 ================> DF-SCS-MP2 Energies <================== 
	-----------------------------------------------------------
	 SCS Same-Spin Scale       =       0.3333333333333333 [-]
	 SCS Opposite-Spin Scale   =       1.2000000000000000 [-]
	 SCS Same-Spin Energy      =      -0.0775222744661524 [Eh]
	 SCS Opposite-Spin Energy  =      -0.8261741521203543 [Eh]
	 SCS Correlation Energy    =      -0.9036964265865066 [Eh]
	 SCS Total Energy          =    -244.7973232125871164 [Eh]
	-----------------------------------------------------------



Properties will be evaluated at   0.000000,  -0.000000,   0.000000 [a0]

Properties computed using the MP2 density matrix

  Nuclear Dipole Moment: [e a0]
     X:    -1.7697      Y:    -1.2163      Z:     0.0001

  Electronic Dipole Moment: [e a0]
     X:     1.2390      Y:    -0.0272      Z:    -0.0000

  Dipole Moment: [e a0]
     X:    -0.5307      Y:    -1.2434      Z:     0.0001     Total:     1.3520

  Dipole Moment: [D]
     X:    -1.3489      Y:    -3.1605      Z:     0.0002     Total:     3.4363


*** tstop() called on node74.bme.utexas.edu at Wed Nov  4 01:01:06 2020
Module time:
	user time   =      41.86 seconds =       0.70 minutes
	system time =       1.35 seconds =       0.02 minutes
	total time  =          6 seconds =       0.10 minutes
Total time:
	user time   =      64.90 seconds =       1.08 minutes
	system time =       2.31 seconds =       0.04 minutes
	total time  =         10 seconds =       0.17 minutes

    Psi4 stopped on: Wednesday, 04 November 2020 01:01AM
    Psi4 wall time for execution: 0:00:10.33

*** Psi4 exiting successfully. Buy a developer a beer!
