7818                                                                    
Freq      RMP2-FC                                                     6-31G(d)            
Number of atoms                            I               22
Info1-9                                    I   N=           9
          34          32        1002           0           0         100
           6           2           1
Charge                                     I                0
Multiplicity                               I                1
Number of electrons                        I               64
Number of alpha electrons                  I               32
Number of beta electrons                   I               32
Number of basis functions                  I              148
Number of independent functions            I              148
Number of point charges in /Mol/           I                0
Number of translation vectors              I                0
Atomic numbers                             I   N=          22
           7           7           6           6           6           6
           6           6           1           1           1           1
           1           1           1           1           1           1
           1           1           1           1
Nuclear charges                            R   N=          22
  7.00000000E+00  7.00000000E+00  6.00000000E+00  6.00000000E+00  6.00000000E+00
  6.00000000E+00  6.00000000E+00  6.00000000E+00  1.00000000E+00  1.00000000E+00
  1.00000000E+00  1.00000000E+00  1.00000000E+00  1.00000000E+00  1.00000000E+00
  1.00000000E+00  1.00000000E+00  1.00000000E+00  1.00000000E+00  1.00000000E+00
  1.00000000E+00  1.00000000E+00
Current cartesian coordinates              R   N=          66
 -2.62444705E+00  2.03640080E-07 -6.41040566E-01  2.62444747E+00  1.13956241E-07
  6.41041763E-01  1.38787599E+00 -2.25028493E+00 -3.65107962E-01 -1.38787602E+00
 -2.25028486E+00  3.65109156E-01  1.38787682E+00  2.25028692E+00 -3.65106278E-01
 -1.38787643E+00  2.25028686E+00  3.65107479E-01 -5.30549855E+00 -1.80406774E-06
 -2.81062859E-02  5.30549774E+00 -1.92233847E-06  2.81032848E-02  1.54557628E+00
 -2.35201752E+00 -2.44858933E+00  2.31942764E+00 -3.92289524E+00  4.27763425E-01
  2.31942922E+00  3.92289667E+00  4.27765471E-01  1.54557640E+00  2.35202045E+00
 -2.44858758E+00 -2.31942738E+00 -3.92289590E+00 -4.27760996E-01 -1.54557593E+00
 -2.35201691E+00  2.44859084E+00 -1.54557559E+00  2.35202006E+00  2.44858903E+00
 -2.31942839E+00  3.92289744E+00 -4.27763063E-01 -6.19559824E+00  1.67637717E+00
 -8.46634808E-01 -5.66629993E+00 -1.17220815E-06  2.02897229E+00 -6.19559719E+00
 -1.67638211E+00 -8.46633636E-01  5.66629596E+00 -1.38184832E-06 -2.02897591E+00
  6.19559773E+00 -1.67638231E+00  8.46629190E-01  6.19559912E+00  1.67637700E+00
  8.46630324E-01
Force Field                                I                0
Int Atom Types                             I   N=          22
           0           0           0           0           0           0
           0           0           0           0           0           0
           0           0           0           0           0           0
           0           0           0           0
MM charges                                 R   N=          22
  0.00000000E+00  0.00000000E+00  0.00000000E+00  0.00000000E+00  0.00000000E+00
  0.00000000E+00  0.00000000E+00  0.00000000E+00  0.00000000E+00  0.00000000E+00
  0.00000000E+00  0.00000000E+00  0.00000000E+00  0.00000000E+00  0.00000000E+00
  0.00000000E+00  0.00000000E+00  0.00000000E+00  0.00000000E+00  0.00000000E+00
  0.00000000E+00  0.00000000E+00
Integer atomic weights                     I   N=          22
          14          14          12          12          12          12
          12          12           1           1           1           1
           1           1           1           1           1           1
           1           1           1           1
Real atomic weights                        R   N=          22
  1.40030740E+01  1.40030740E+01  1.20000000E+01  1.20000000E+01  1.20000000E+01
  1.20000000E+01  1.20000000E+01  1.20000000E+01  1.00782504E+00  1.00782504E+00
  1.00782504E+00  1.00782504E+00  1.00782504E+00  1.00782504E+00  1.00782504E+00
  1.00782504E+00  1.00782504E+00  1.00782504E+00  1.00782504E+00  1.00782504E+00
  1.00782504E+00  1.00782504E+00
Atom fragment info                         I   N=          22
           0           0           0           0           0           0
           0           0           0           0           0           0
           0           0           0           0           0           0
           0           0           0           0
Atom residue num                           I   N=          22
           0           0           0           0           0           0
           0           0           0           0           0           0
           0           0           0           0           0           0
           0           0           0           0
Nuclear spins                              I   N=          22
           2           2           0           0           0           0
           0           0           1           1           1           1
           1           1           1           1           1           1
           1           1           1           1
Nuclear ZEff                               R   N=          22
 -4.55000000E+00 -4.55000000E+00 -3.60000000E+00 -3.60000000E+00 -3.60000000E+00
 -3.60000000E+00 -3.60000000E+00 -3.60000000E+00 -1.00000000E+00 -1.00000000E+00
 -1.00000000E+00 -1.00000000E+00 -1.00000000E+00 -1.00000000E+00 -1.00000000E+00
 -1.00000000E+00 -1.00000000E+00 -1.00000000E+00 -1.00000000E+00 -1.00000000E+00
 -1.00000000E+00 -1.00000000E+00
Nuclear QMom                               R   N=          22
  2.04400000E+00  2.04400000E+00  0.00000000E+00  0.00000000E+00  0.00000000E+00
  0.00000000E+00  0.00000000E+00  0.00000000E+00  0.00000000E+00  0.00000000E+00
  0.00000000E+00  0.00000000E+00  0.00000000E+00  0.00000000E+00  0.00000000E+00
  0.00000000E+00  0.00000000E+00  0.00000000E+00  0.00000000E+00  0.00000000E+00
  0.00000000E+00  0.00000000E+00
Nuclear GFac                               R   N=          22
  4.03761000E-01  4.03761000E-01  0.00000000E+00  0.00000000E+00  0.00000000E+00
  0.00000000E+00  0.00000000E+00  0.00000000E+00  2.79284600E+00  2.79284600E+00
  2.79284600E+00  2.79284600E+00  2.79284600E+00  2.79284600E+00  2.79284600E+00
  2.79284600E+00  2.79284600E+00  2.79284600E+00  2.79284600E+00  2.79284600E+00
  2.79284600E+00  2.79284600E+00
MicOpt                                     I   N=          22
          -1          -1          -1          -1          -1          -1
          -1          -1          -1          -1          -1          -1
          -1          -1          -1          -1          -1          -1
          -1          -1          -1          -1
Number of contracted shells                I               60
Number of primitive shells                 I              144
Pure/Cartesian d shells                    I                1
Pure/Cartesian f shells                    I                0
Highest angular momentum                   I                2
Largest degree of contraction              I                6
Shell types                                I   N=          60
           0          -1          -1           2           0          -1
          -1           2           0          -1          -1           2
           0          -1          -1           2           0          -1
          -1           2           0          -1          -1           2
           0          -1          -1           2           0          -1
          -1           2           0           0           0           0
           0           0           0           0           0           0
           0           0           0           0           0           0
           0           0           0           0           0           0
           0           0           0           0           0           0
Number of primitives per shell             I   N=          60
           6           3           1           1           6           3
           1           1           6           3           1           1
           6           3           1           1           6           3
           1           1           6           3           1           1
           6           3           1           1           6           3
           1           1           3           1           3           1
           3           1           3           1           3           1
           3           1           3           1           3           1
           3           1           3           1           3           1
           3           1           3           1           3           1
Shell to atom map                          I   N=          60
           1           1           1           1           2           2
           2           2           3           3           3           3
           4           4           4           4           5           5
           5           5           6           6           6           6
           7           7           7           7           8           8
           8           8           9           9          10          10
          11          11          12          12          13          13
          14          14          15          15          16          16
          17          17          18          18          19          19
          20          20          21          21          22          22
Primitive exponents                        R   N=         144
  4.17351146E+03  6.27457911E+02  1.42902093E+02  4.02343293E+01  1.28202129E+01
  4.39043701E+00  1.16263619E+01  2.71627981E+00  7.72218397E-01  2.12031498E-01
  8.00000000E-01  4.17351146E+03  6.27457911E+02  1.42902093E+02  4.02343293E+01
  1.28202129E+01  4.39043701E+00  1.16263619E+01  2.71627981E+00  7.72218397E-01
  2.12031498E-01  8.00000000E-01  3.04752488E+03  4.57369518E+02  1.03948685E+02
  2.92101553E+01  9.28666296E+00  3.16392696E+00  7.86827235E+00  1.88128854E+00
  5.44249258E-01  1.68714478E-01  8.00000000E-01  3.04752488E+03  4.57369518E+02
  1.03948685E+02  2.92101553E+01  9.28666296E+00  3.16392696E+00  7.86827235E+00
  1.88128854E+00  5.44249258E-01  1.68714478E-01  8.00000000E-01  3.04752488E+03
  4.57369518E+02  1.03948685E+02  2.92101553E+01  9.28666296E+00  3.16392696E+00
  7.86827235E+00  1.88128854E+00  5.44249258E-01  1.68714478E-01  8.00000000E-01
  3.04752488E+03  4.57369518E+02  1.03948685E+02  2.92101553E+01  9.28666296E+00
  3.16392696E+00  7.86827235E+00  1.88128854E+00  5.44249258E-01  1.68714478E-01
  8.00000000E-01  3.04752488E+03  4.57369518E+02  1.03948685E+02  2.92101553E+01
  9.28666296E+00  3.16392696E+00  7.86827235E+00  1.88128854E+00  5.44249258E-01
  1.68714478E-01  8.00000000E-01  3.04752488E+03  4.57369518E+02  1.03948685E+02
  2.92101553E+01  9.28666296E+00  3.16392696E+00  7.86827235E+00  1.88128854E+00
  5.44249258E-01  1.68714478E-01  8.00000000E-01  1.87311370E+01  2.82539436E+00
  6.40121692E-01  1.61277759E-01  1.87311370E+01  2.82539436E+00  6.40121692E-01
  1.61277759E-01  1.87311370E+01  2.82539436E+00  6.40121692E-01  1.61277759E-01
  1.87311370E+01  2.82539436E+00  6.40121692E-01  1.61277759E-01  1.87311370E+01
  2.82539436E+00  6.40121692E-01  1.61277759E-01  1.87311370E+01  2.82539436E+00
  6.40121692E-01  1.61277759E-01  1.87311370E+01  2.82539436E+00  6.40121692E-01
  1.61277759E-01  1.87311370E+01  2.82539436E+00  6.40121692E-01  1.61277759E-01
  1.87311370E+01  2.82539436E+00  6.40121692E-01  1.61277759E-01  1.87311370E+01
  2.82539436E+00  6.40121692E-01  1.61277759E-01  1.87311370E+01  2.82539436E+00
  6.40121692E-01  1.61277759E-01  1.87311370E+01  2.82539436E+00  6.40121692E-01
  1.61277759E-01  1.87311370E+01  2.82539436E+00  6.40121692E-01  1.61277759E-01
  1.87311370E+01  2.82539436E+00  6.40121692E-01  1.61277759E-01
Contraction coefficients                   R   N=         144
  1.83477216E-03  1.39946270E-02  6.85865518E-02  2.32240873E-01  4.69069948E-01
  3.60455199E-01 -1.14961182E-01 -1.69117479E-01  1.14585195E+00  1.00000000E+00
  1.00000000E+00  1.83477216E-03  1.39946270E-02  6.85865518E-02  2.32240873E-01
  4.69069948E-01  3.60455199E-01 -1.14961182E-01 -1.69117479E-01  1.14585195E+00
  1.00000000E+00  1.00000000E+00  1.83473713E-03  1.40373228E-02  6.88426223E-02
  2.32184443E-01  4.67941348E-01  3.62311985E-01 -1.19332420E-01 -1.60854152E-01
  1.14345644E+00  1.00000000E+00  1.00000000E+00  1.83473713E-03  1.40373228E-02
  6.88426223E-02  2.32184443E-01  4.67941348E-01  3.62311985E-01 -1.19332420E-01
 -1.60854152E-01  1.14345644E+00  1.00000000E+00  1.00000000E+00  1.83473713E-03
  1.40373228E-02  6.88426223E-02  2.32184443E-01  4.67941348E-01  3.62311985E-01
 -1.19332420E-01 -1.60854152E-01  1.14345644E+00  1.00000000E+00  1.00000000E+00
  1.83473713E-03  1.40373228E-02  6.88426223E-02  2.32184443E-01  4.67941348E-01
  3.62311985E-01 -1.19332420E-01 -1.60854152E-01  1.14345644E+00  1.00000000E+00
  1.00000000E+00  1.83473713E-03  1.40373228E-02  6.88426223E-02  2.32184443E-01
  4.67941348E-01  3.62311985E-01 -1.19332420E-01 -1.60854152E-01  1.14345644E+00
  1.00000000E+00  1.00000000E+00  1.83473713E-03  1.40373228E-02  6.88426223E-02
  2.32184443E-01  4.67941348E-01  3.62311985E-01 -1.19332420E-01 -1.60854152E-01
  1.14345644E+00  1.00000000E+00  1.00000000E+00  3.34946043E-02  2.34726953E-01
  8.13757326E-01  1.00000000E+00  3.34946043E-02  2.34726953E-01  8.13757326E-01
  1.00000000E+00  3.34946043E-02  2.34726953E-01  8.13757326E-01  1.00000000E+00
  3.34946043E-02  2.34726953E-01  8.13757326E-01  1.00000000E+00  3.34946043E-02
  2.34726953E-01  8.13757326E-01  1.00000000E+00  3.34946043E-02  2.34726953E-01
  8.13757326E-01  1.00000000E+00  3.34946043E-02  2.34726953E-01  8.13757326E-01
  1.00000000E+00  3.34946043E-02  2.34726953E-01  8.13757326E-01  1.00000000E+00
  3.34946043E-02  2.34726953E-01  8.13757326E-01  1.00000000E+00  3.34946043E-02
  2.34726953E-01  8.13757326E-01  1.00000000E+00  3.34946043E-02  2.34726953E-01
  8.13757326E-01  1.00000000E+00  3.34946043E-02  2.34726953E-01  8.13757326E-01
  1.00000000E+00  3.34946043E-02  2.34726953E-01  8.13757326E-01  1.00000000E+00
  3.34946043E-02  2.34726953E-01  8.13757326E-01  1.00000000E+00
P(S=P) Contraction coefficients            R   N=         144
  0.00000000E+00  0.00000000E+00  0.00000000E+00  0.00000000E+00  0.00000000E+00
  0.00000000E+00  6.75797439E-02  3.23907296E-01  7.40895140E-01  1.00000000E+00
  0.00000000E+00  0.00000000E+00  0.00000000E+00  0.00000000E+00  0.00000000E+00
  0.00000000E+00  0.00000000E+00  6.75797439E-02  3.23907296E-01  7.40895140E-01
  1.00000000E+00  0.00000000E+00  0.00000000E+00  0.00000000E+00  0.00000000E+00
  0.00000000E+00  0.00000000E+00  0.00000000E+00  6.89990666E-02  3.16423961E-01
  7.44308291E-01  1.00000000E+00  0.00000000E+00  0.00000000E+00  0.00000000E+00
  0.00000000E+00  0.00000000E+00  0.00000000E+00  0.00000000E+00  6.89990666E-02
  3.16423961E-01  7.44308291E-01  1.00000000E+00  0.00000000E+00  0.00000000E+00
  0.00000000E+00  0.00000000E+00  0.00000000E+00  0.00000000E+00  0.00000000E+00
  6.89990666E-02  3.16423961E-01  7.44308291E-01  1.00000000E+00  0.00000000E+00
  0.00000000E+00  0.00000000E+00  0.00000000E+00  0.00000000E+00  0.00000000E+00
  0.00000000E+00  6.89990666E-02  3.16423961E-01  7.44308291E-01  1.00000000E+00
  0.00000000E+00  0.00000000E+00  0.00000000E+00  0.00000000E+00  0.00000000E+00
  0.00000000E+00  0.00000000E+00  6.89990666E-02  3.16423961E-01  7.44308291E-01
  1.00000000E+00  0.00000000E+00  0.00000000E+00  0.00000000E+00  0.00000000E+00
  0.00000000E+00  0.00000000E+00  0.00000000E+00  6.89990666E-02  3.16423961E-01
  7.44308291E-01  1.00000000E+00  0.00000000E+00  0.00000000E+00  0.00000000E+00
  0.00000000E+00  0.00000000E+00  0.00000000E+00  0.00000000E+00  0.00000000E+00
  0.00000000E+00  0.00000000E+00  0.00000000E+00  0.00000000E+00  0.00000000E+00
  0.00000000E+00  0.00000000E+00  0.00000000E+00  0.00000000E+00  0.00000000E+00
  0.00000000E+00  0.00000000E+00  0.00000000E+00  0.00000000E+00  0.00000000E+00
  0.00000000E+00  0.00000000E+00  0.00000000E+00  0.00000000E+00  0.00000000E+00
  0.00000000E+00  0.00000000E+00  0.00000000E+00  0.00000000E+00  0.00000000E+00
  0.00000000E+00  0.00000000E+00  0.00000000E+00  0.00000000E+00  0.00000000E+00
  0.00000000E+00  0.00000000E+00  0.00000000E+00  0.00000000E+00  0.00000000E+00
  0.00000000E+00  0.00000000E+00  0.00000000E+00  0.00000000E+00  0.00000000E+00
  0.00000000E+00  0.00000000E+00  0.00000000E+00  0.00000000E+00  0.00000000E+00
  0.00000000E+00  0.00000000E+00  0.00000000E+00  0.00000000E+00
Coordinates of each shell                  R   N=         180
 -2.62444705E+00  2.03640080E-07 -6.41040566E-01 -2.62444705E+00  2.03640080E-07
 -6.41040566E-01 -2.62444705E+00  2.03640080E-07 -6.41040566E-01 -2.62444705E+00
  2.03640080E-07 -6.41040566E-01  2.62444747E+00  1.13956241E-07  6.41041763E-01
  2.62444747E+00  1.13956241E-07  6.41041763E-01  2.62444747E+00  1.13956241E-07
  6.41041763E-01  2.62444747E+00  1.13956241E-07  6.41041763E-01  1.38787599E+00
 -2.25028493E+00 -3.65107962E-01  1.38787599E+00 -2.25028493E+00 -3.65107962E-01
  1.38787599E+00 -2.25028493E+00 -3.65107962E-01  1.38787599E+00 -2.25028493E+00
 -3.65107962E-01 -1.38787602E+00 -2.25028486E+00  3.65109156E-01 -1.38787602E+00
 -2.25028486E+00  3.65109156E-01 -1.38787602E+00 -2.25028486E+00  3.65109156E-01
 -1.38787602E+00 -2.25028486E+00  3.65109156E-01  1.38787682E+00  2.25028692E+00
 -3.65106278E-01  1.38787682E+00  2.25028692E+00 -3.65106278E-01  1.38787682E+00
  2.25028692E+00 -3.65106278E-01  1.38787682E+00  2.25028692E+00 -3.65106278E-01
 -1.38787643E+00  2.25028686E+00  3.65107479E-01 -1.38787643E+00  2.25028686E+00
  3.65107479E-01 -1.38787643E+00  2.25028686E+00  3.65107479E-01 -1.38787643E+00
  2.25028686E+00  3.65107479E-01 -5.30549855E+00 -1.80406774E-06 -2.81062859E-02
 -5.30549855E+00 -1.80406774E-06 -2.81062859E-02 -5.30549855E+00 -1.80406774E-06
 -2.81062859E-02 -5.30549855E+00 -1.80406774E-06 -2.81062859E-02  5.30549774E+00
 -1.92233847E-06  2.81032848E-02  5.30549774E+00 -1.92233847E-06  2.81032848E-02
  5.30549774E+00 -1.92233847E-06  2.81032848E-02  5.30549774E+00 -1.92233847E-06
  2.81032848E-02  1.54557628E+00 -2.35201752E+00 -2.44858933E+00  1.54557628E+00
 -2.35201752E+00 -2.44858933E+00  2.31942764E+00 -3.92289524E+00  4.27763425E-01
  2.31942764E+00 -3.92289524E+00  4.27763425E-01  2.31942922E+00  3.92289667E+00
  4.27765471E-01  2.31942922E+00  3.92289667E+00  4.27765471E-01  1.54557640E+00
  2.35202045E+00 -2.44858758E+00  1.54557640E+00  2.35202045E+00 -2.44858758E+00
 -2.31942738E+00 -3.92289590E+00 -4.27760996E-01 -2.31942738E+00 -3.92289590E+00
 -4.27760996E-01 -1.54557593E+00 -2.35201691E+00  2.44859084E+00 -1.54557593E+00
 -2.35201691E+00  2.44859084E+00 -1.54557559E+00  2.35202006E+00  2.44858903E+00
 -1.54557559E+00  2.35202006E+00  2.44858903E+00 -2.31942839E+00  3.92289744E+00
 -4.27763063E-01 -2.31942839E+00  3.92289744E+00 -4.27763063E-01 -6.19559824E+00
  1.67637717E+00 -8.46634808E-01 -6.19559824E+00  1.67637717E+00 -8.46634808E-01
 -5.66629993E+00 -1.17220815E-06  2.02897229E+00 -5.66629993E+00 -1.17220815E-06
  2.02897229E+00 -6.19559719E+00 -1.67638211E+00 -8.46633636E-01 -6.19559719E+00
 -1.67638211E+00 -8.46633636E-01  5.66629596E+00 -1.38184832E-06 -2.02897591E+00
  5.66629596E+00 -1.38184832E-06 -2.02897591E+00  6.19559773E+00 -1.67638231E+00
  8.46629190E-01  6.19559773E+00 -1.67638231E+00  8.46629190E-01  6.19559912E+00
  1.67637700E+00  8.46630324E-01  6.19559912E+00  1.67637700E+00  8.46630324E-01
Constraint Structure                       R   N=          66
 -2.62444705E+00  2.03640080E-07 -6.41040566E-01  2.62444747E+00  1.13956241E-07
  6.41041763E-01  1.38787599E+00 -2.25028493E+00 -3.65107962E-01 -1.38787602E+00
 -2.25028486E+00  3.65109156E-01  1.38787682E+00  2.25028692E+00 -3.65106278E-01
 -1.38787643E+00  2.25028686E+00  3.65107479E-01 -5.30549855E+00 -1.80406774E-06
 -2.81062859E-02  5.30549774E+00 -1.92233847E-06  2.81032848E-02  1.54557628E+00
 -2.35201752E+00 -2.44858933E+00  2.31942764E+00 -3.92289524E+00  4.27763425E-01
  2.31942922E+00  3.92289667E+00  4.27765471E-01  1.54557640E+00  2.35202045E+00
 -2.44858758E+00 -2.31942738E+00 -3.92289590E+00 -4.27760996E-01 -1.54557593E+00
 -2.35201691E+00  2.44859084E+00 -1.54557559E+00  2.35202006E+00  2.44858903E+00
 -2.31942839E+00  3.92289744E+00 -4.27763063E-01 -6.19559824E+00  1.67637717E+00
 -8.46634808E-01 -5.66629993E+00 -1.17220815E-06  2.02897229E+00 -6.19559719E+00
 -1.67638211E+00 -8.46633636E-01  5.66629596E+00 -1.38184832E-06 -2.02897591E+00
  6.19559773E+00 -1.67638231E+00  8.46629190E-01  6.19559912E+00  1.67637700E+00
  8.46630324E-01
Num ILSW                                   I              100
ILSW                                       I   N=         100
           0           1           0           0           2           0
           0           0           0           0           0          -1
           0           0           0           0           0           0
           0           0           0           0           1           0
           1           0           0           0           0           0
           0           0      100000           0          -1           0
           0           0           0           0           0           0
           0           0           0           1           1           0
           0           0           1           0           0           0
           0           0           4          40           0           0
           0           0           0           0           0           0
           0           0           0           0           0           0
           0           0           0           0           0           0
           0           0           0           0           0           0
           0           0           0           0           0           0
           0           0           0           0           0           0
           0           0           0           0
Num RLSW                                   I               40
RLSW                                       R   N=          40
  1.00000000E+00  1.00000000E+00  1.00000000E+00  1.00000000E+00  1.00000000E+00
  0.00000000E+00  0.00000000E+00  1.00000000E+00  0.00000000E+00  0.00000000E+00
  0.00000000E+00  0.00000000E+00  1.00000000E+00  0.00000000E+00  0.00000000E+00
  0.00000000E+00  0.00000000E+00  1.00000000E+00  0.00000000E+00  0.00000000E+00
  0.00000000E+00  0.00000000E+00  1.00000000E+00  0.00000000E+00  0.00000000E+00
  0.00000000E+00  0.00000000E+00  1.00000000E+00  0.00000000E+00  0.00000000E+00
  0.00000000E+00  0.00000000E+00  0.00000000E+00  0.00000000E+00  0.00000000E+00
  0.00000000E+00  0.00000000E+00  0.00000000E+00  1.00000000E+00  1.00000000E+00
MxBond                                     I                4
NBond                                      I   N=          22
           3           3           4           4           4           4
           4           4           1           1           1           1
           1           1           1           1           1           1
           1           1           1           1
IBond                                      I   N=          88
           4           6           7           0           3           5
           8           0           2           4           9          10
           1           3          13          14           2           6
          11          12           1           5          15          16
           1          17          18          19           2          20
          21          22           3           0           0           0
           3           0           0           0           5           0
           0           0           5           0           0           0
           4           0           0           0           4           0
           0           0           6           0           0           0
           6           0           0           0           7           0
           0           0           7           0           0           0
           7           0           0           0           8           0
           0           0           8           0           0           0
           8           0           0           0
RBond                                      R   N=          88
  1.00000000E+00  1.00000000E+00  1.00000000E+00  0.00000000E+00  1.00000000E+00
  1.00000000E+00  1.00000000E+00  0.00000000E+00  1.00000000E+00  1.00000000E+00
  1.00000000E+00  1.00000000E+00  1.00000000E+00  1.00000000E+00  1.00000000E+00
  1.00000000E+00  1.00000000E+00  1.00000000E+00  1.00000000E+00  1.00000000E+00
  1.00000000E+00  1.00000000E+00  1.00000000E+00  1.00000000E+00  1.00000000E+00
  1.00000000E+00  1.00000000E+00  1.00000000E+00  1.00000000E+00  1.00000000E+00
  1.00000000E+00  1.00000000E+00  1.00000000E+00  0.00000000E+00  0.00000000E+00
  0.00000000E+00  1.00000000E+00  0.00000000E+00  0.00000000E+00  0.00000000E+00
  1.00000000E+00  0.00000000E+00  0.00000000E+00  0.00000000E+00  1.00000000E+00
  0.00000000E+00  0.00000000E+00  0.00000000E+00  1.00000000E+00  0.00000000E+00
  0.00000000E+00  0.00000000E+00  1.00000000E+00  0.00000000E+00  0.00000000E+00
  0.00000000E+00  1.00000000E+00  0.00000000E+00  0.00000000E+00  0.00000000E+00
  1.00000000E+00  0.00000000E+00  0.00000000E+00  0.00000000E+00  1.00000000E+00
  0.00000000E+00  0.00000000E+00  0.00000000E+00  1.00000000E+00  0.00000000E+00
  0.00000000E+00  0.00000000E+00  1.00000000E+00  0.00000000E+00  0.00000000E+00
  0.00000000E+00  1.00000000E+00  0.00000000E+00  0.00000000E+00  0.00000000E+00
  1.00000000E+00  0.00000000E+00  0.00000000E+00  0.00000000E+00  1.00000000E+00
  0.00000000E+00  0.00000000E+00  0.00000000E+00
Virial Ratio                               R      2.001536790462910E+00
SCF Energy                                 R     -3.442286481173105E+02
MP2 Energy                                 R     -3.453417897498426E+02
Total Energy                               R     -3.453417897498426E+02
Post-SCF wavefunction norm                 R      1.649375300398957E+00
RMS Force                                  R      2.507563198739869E-06
RMS Density                                R      3.250296311238527E-10
External E-field                           R   N=          35
  0.00000000E+00  0.00000000E+00  0.00000000E+00  0.00000000E+00  0.00000000E+00
  0.00000000E+00  0.00000000E+00  0.00000000E+00  0.00000000E+00  0.00000000E+00
  0.00000000E+00  0.00000000E+00  0.00000000E+00  0.00000000E+00  0.00000000E+00
  0.00000000E+00  0.00000000E+00  0.00000000E+00  0.00000000E+00  0.00000000E+00
  0.00000000E+00  0.00000000E+00  0.00000000E+00  0.00000000E+00  0.00000000E+00
  0.00000000E+00  0.00000000E+00  0.00000000E+00  0.00000000E+00  0.00000000E+00
  0.00000000E+00  0.00000000E+00  0.00000000E+00  0.00000000E+00  0.00000000E+00
IOpCl                                      I                0
IROHF                                      I                0
Alpha Orbital Energies                     R   N=         148
 -1.55463180E+01 -1.55463150E+01 -1.12425579E+01 -1.12425389E+01 -1.12419244E+01
 -1.12419117E+01 -1.12402696E+01 -1.12402687E+01 -1.25312970E+00 -1.20117212E+00
 -1.02172749E+00 -9.88116084E-01 -9.06309263E-01 -8.60952490E-01 -8.32594593E-01
 -7.55194573E-01 -6.62157639E-01 -6.31592894E-01 -6.26417749E-01 -6.23755439E-01
 -6.19358284E-01 -5.78160905E-01 -5.47436121E-01 -5.40691368E-01 -5.40113915E-01
 -5.15368290E-01 -4.94496003E-01 -4.88103960E-01 -4.59742349E-01 -4.52873717E-01
 -3.55461162E-01 -3.53306474E-01  2.32018500E-01  2.37919037E-01  2.71027720E-01
  2.82983173E-01  2.90699589E-01  3.04567881E-01  3.20933168E-01  3.21454585E-01
  3.31356460E-01  3.32285234E-01  3.40430223E-01  3.41546292E-01  3.52199284E-01
  3.54625421E-01  3.69145798E-01  3.86578731E-01  4.23183995E-01  4.54648314E-01
  4.62521076E-01  4.63314118E-01  4.75957420E-01  4.80588729E-01  7.06429012E-01
  7.38148368E-01  7.48044845E-01  7.62065087E-01  7.80720782E-01  7.97149299E-01
  8.26272153E-01  8.53672084E-01  8.60833757E-01  8.61146670E-01  9.19884934E-01
  9.29091699E-01  9.90580493E-01  9.93439931E-01  9.96263194E-01  1.00037369E+00
  1.04669781E+00  1.09978810E+00  1.10111124E+00  1.11370412E+00  1.11487903E+00
  1.13068336E+00  1.15650986E+00  1.16050774E+00  1.16141167E+00  1.18263787E+00
  1.18498846E+00  1.18804032E+00  1.18993822E+00  1.19746944E+00  1.23481722E+00
  1.23629493E+00  1.24068062E+00  1.25036817E+00  1.28524878E+00  1.29818670E+00
  1.38862753E+00  1.39061157E+00  1.54564287E+00  1.55479449E+00  1.63691877E+00
  1.64489117E+00  1.65975997E+00  1.69781624E+00  1.74821907E+00  1.77652054E+00
  1.81055744E+00  1.92027385E+00  2.01122935E+00  2.04684235E+00  2.09067500E+00
  2.13616629E+00  2.17567249E+00  2.19549335E+00  2.21159958E+00  2.22363911E+00
  2.29554978E+00  2.30228377E+00  2.32794488E+00  2.34787927E+00  2.36475866E+00
  2.40217868E+00  2.41832938E+00  2.43300565E+00  2.44576498E+00  2.47332588E+00
  2.54002366E+00  2.56631609E+00  2.56660712E+00  2.56763623E+00  2.61070587E+00
  2.65655176E+00  2.67140728E+00  2.69119857E+00  2.78036829E+00  2.79606636E+00
  2.86711300E+00  2.90888629E+00  2.96412770E+00  2.96497581E+00  3.14143366E+00
  3.16189159E+00  3.16946315E+00  3.19162868E+00  3.24065875E+00  3.31634314E+00
  4.48260064E+00  4.52793881E+00  4.67215249E+00  4.69912170E+00  4.70949231E+00
  4.81786745E+00  4.96049773E+00  4.99121471E+00
Alpha MO coefficients                      R   N=       21904