
    -----------------------------------------------------------------------
          Psi4: An Open-Source Ab Initio Electronic Structure Package
                               Psi4 1.3.2 release

                         Git: Rev {HEAD} ecbda83 


    R. M. Parrish, L. A. Burns, D. G. A. Smith, A. C. Simmonett,
    A. E. DePrince III, E. G. Hohenstein, U. Bozkaya, A. Yu. Sokolov,
    R. Di Remigio, R. M. Richard, J. F. Gonthier, A. M. James,
    H. R. McAlexander, A. Kumar, M. Saitow, X. Wang, B. P. Pritchard,
    P. Verma, H. F. Schaefer III, K. Patkowski, R. A. King, E. F. Valeev,
    F. A. Evangelista, J. M. Turney, T. D. Crawford, and C. D. Sherrill,
    J. Chem. Theory Comput. 13(7) pp 3185--3197 (2017).
    (doi: 10.1021/acs.jctc.7b00174)


                         Additional Contributions by
    P. Kraus, H. Kruse, M. H. Lechner, M. C. Schieber, R. A. Shaw,
    A. Alenaizan, R. Galvelis, Z. L. Glick, S. Lehtola, and J. P. Misiewicz

    -----------------------------------------------------------------------


    Psi4 started on: Wednesday, 10 February 2021 05:48PM

    Process ID: 6962
    Host:       node144.bme.utexas.edu
    PSIDATADIR: /home/xy3866/psi4conda/share/psi4
    Memory:     500.0 MiB
    Threads:    8
    
  ==> Input File <==

--------------------------------------------------------------------------
#psi4
#
memory 32 gb

molecule  {
0 1
  S        1.5510760    -1.0871590     0.0000010
  O       -1.4242190    -1.5655850    -0.0000010
  N       -2.0132560     0.6673690     0.0000000
  N        0.6809160     1.3479160    -0.0000010
  C        0.2854510     0.0833790     0.0000000
  C       -1.1339070    -0.3627170    -0.0000010
  C       -3.4470980     0.4588130     0.0000010
  C        2.6913180     0.1894230     0.0000000
  C        2.0463170     1.4081830     0.0000000
  H       -1.6187540     1.6018420     0.0000010
  H       -3.9049180     0.8972840    -0.8911940
  H       -3.9049160     0.8972760     0.8912010
  H       -3.6178680    -0.6175520    -0.0000030
  H        3.7564850    -0.0027381    -0.1499990
  H        2.5404020     2.3736430     0.0000000
units angstrom
no_reorient  #important for SAPT in psi4, default
symmetry c1  #important for SAPT in psi4, default
}

set PROPERTIES_ORIGIN ["COM"]
properties('MP2/aug-cc-pvtz', properties = ['dipole'])
--------------------------------------------------------------------------

  Memory set to  29.802 GiB by Python driver.
    SCF Algorithm Type (re)set to DF.

*** tstart() called on node144.bme.utexas.edu
*** at Wed Feb 10 17:48:51 2021

   => Loading Basis Set <=

    Name: AUG-CC-PVTZ
    Role: ORBITAL
    Keyword: BASIS
    atoms 1     entry S          line   902 file /home/xy3866/psi4conda/share/psi4/basis/aug-cc-pvtz.gbs 
    atoms 2     entry O          line   327 file /home/xy3866/psi4conda/share/psi4/basis/aug-cc-pvtz.gbs 
    atoms 3-4   entry N          line   281 file /home/xy3866/psi4conda/share/psi4/basis/aug-cc-pvtz.gbs 
    atoms 5-9   entry C          line   235 file /home/xy3866/psi4conda/share/psi4/basis/aug-cc-pvtz.gbs 
    atoms 10-15 entry H          line    36 file /home/xy3866/psi4conda/share/psi4/basis/aug-cc-pvtz.gbs 


         ---------------------------------------------------------
                                   SCF
               by Justin Turney, Rob Parrish, Andy Simmonett
                          and Daniel G. A. Smith
                              RHF Reference
                        8 Threads,  30517 MiB Core
         ---------------------------------------------------------

  ==> Geometry <==

    Molecular point group: c1
    Full point group: C1

    Geometry (in Angstrom), charge = 0, multiplicity = 1:

       Center              X                  Y                   Z               Mass       
    ------------   -----------------  -----------------  -----------------  -----------------
         S            1.504205285922    -1.051495632574     0.001065396876    31.972071174400
         O           -1.471089714078    -1.529921632574     0.001063396876    15.994914619570
         N           -2.060126714078     0.703032367426     0.001064396876    14.003074004430
         N            0.634045285922     1.383579367426     0.001063396876    14.003074004430
         C            0.238580285922     0.119042367426     0.001064396876    12.000000000000
         C           -1.180777714078    -0.327053632574     0.001063396876    12.000000000000
         C           -3.493968714078     0.494476367426     0.001065396876    12.000000000000
         C            2.644447285922     0.225086367426     0.001064396876    12.000000000000
         C            1.999446285922     1.443846367426     0.001064396876    12.000000000000
         H           -1.665624714078     1.637505367426     0.001065396876     1.007825032230
         H           -3.951788714078     0.932947367426    -0.890129603124     1.007825032230
         H           -3.951786714078     0.932939367426     0.892265396876     1.007825032230
         H           -3.664738714078    -0.581888632574     0.001061396876     1.007825032230
         H            3.709614285922     0.032925267426    -0.148934603124     1.007825032230
         H            2.493531285922     2.409306367426     0.001064396876     1.007825032230

  Running in c1 symmetry.

  Rotational constants: A =      0.11330  B =      0.03137  C =      0.02468 [cm^-1]
  Rotational constants: A =   3396.52707  B =    940.43480  C =    740.00944 [MHz]
  Nuclear repulsion =  504.787666593065865

  Charge       = 0
  Multiplicity = 1
  Electrons    = 74
  Nalpha       = 37
  Nbeta        = 37

  ==> Algorithm <==

  SCF Algorithm Type is DF.
  DIIS enabled.
  MOM disabled.
  Fractional occupation disabled.
  Guess Type is SAD.
  Energy threshold   = 1.00e-10
  Density threshold  = 1.00e-10
  Integral threshold = 0.00e+00

  ==> Primary Basis <==

  Basis Set: AUG-CC-PVTZ
    Blend: AUG-CC-PVTZ
    Number of shells: 182
    Number of basis function: 556
    Number of Cartesian functions: 649
    Spherical Harmonics?: true
    Max angular momentum: 3

   => Loading Basis Set <=

    Name: (AUG-CC-PVTZ AUX)
    Role: JKFIT
    Keyword: DF_BASIS_SCF
    atoms 1     entry S          line   730 file /home/xy3866/psi4conda/share/psi4/basis/aug-cc-pvtz-jkfit.gbs 
    atoms 2     entry O          line   286 file /home/xy3866/psi4conda/share/psi4/basis/aug-cc-pvtz-jkfit.gbs 
    atoms 3-4   entry N          line   224 file /home/xy3866/psi4conda/share/psi4/basis/aug-cc-pvtz-jkfit.gbs 
    atoms 5-9   entry C          line   162 file /home/xy3866/psi4conda/share/psi4/basis/aug-cc-pvtz-jkfit.gbs 
    atoms 10-15 entry H          line    70 file /home/xy3866/psi4conda/share/psi4/basis/aug-cc-pvtz-jkfit.gbs 

  ==> Pre-Iterations <==

   -------------------------------------------------------
    Irrep   Nso     Nmo     Nalpha   Nbeta   Ndocc  Nsocc
   -------------------------------------------------------
     A        556     556       0       0       0       0
   -------------------------------------------------------
    Total     556     556      37      37      37       0
   -------------------------------------------------------

  ==> Integral Setup <==

  DFHelper Memory: AOs need 2.794 GiB; user supplied 22.352 GiB. Using in-core AOs.

  ==> MemDFJK: Density-Fitted J/K Matrices <==

    J tasked:                   Yes
    K tasked:                   Yes
    wK tasked:                   No
    OpenMP threads:               8
    Memory [MiB]:             22888
    Algorithm:                 Disk
    Schwarz Cutoff:           1E-12
    Mask sparsity (%):       6.4580
    Fitting Condition:        1E-10

   => Auxiliary Basis Set <=

  Basis Set: (AUG-CC-PVTZ AUX)
    Blend: AUG-CC-PVTZ-JKFIT
    Number of shells: 366
    Number of basis function: 1254
    Number of Cartesian functions: 1558
    Spherical Harmonics?: true
    Max angular momentum: 4

  Minimum eigenvalue in the overlap matrix is 3.6377062332E-06.
  Using Symmetric Orthogonalization.

  SCF Guess: Superposition of Atomic Densities via on-the-fly atomic UHF.

  ==> Iterations <==

                           Total Energy        Delta E     RMS |[F,P]|

   @DF-RHF iter SAD:  -773.69230594673434   -7.73692e+02   0.00000e+00 
   @DF-RHF iter   1:  -774.00904552081397   -3.16740e-01   1.26550e-03 DIIS
   @DF-RHF iter   2:  -774.18235343603635   -1.73308e-01   8.36515e-04 DIIS
   @DF-RHF iter   3:  -774.26878233793457   -8.64289e-02   1.49481e-04 DIIS
   @DF-RHF iter   4:  -774.27403336353359   -5.25103e-03   6.34097e-05 DIIS
   @DF-RHF iter   5:  -774.27504567048936   -1.01231e-03   1.89835e-05 DIIS
   @DF-RHF iter   6:  -774.27525010406362   -2.04434e-04   9.15627e-06 DIIS
   @DF-RHF iter   7:  -774.27531733276908   -6.72287e-05   3.97116e-06 DIIS
   @DF-RHF iter   8:  -774.27532730892051   -9.97615e-06   1.50324e-06 DIIS
   @DF-RHF iter   9:  -774.27532866007027   -1.35115e-06   5.60903e-07 DIIS
   @DF-RHF iter  10:  -774.27532882504693   -1.64977e-07   1.87064e-07 DIIS
   @DF-RHF iter  11:  -774.27532884213554   -1.70886e-08   5.28268e-08 DIIS
   @DF-RHF iter  12:  -774.27532884359050   -1.45496e-09   2.48792e-08 DIIS
   @DF-RHF iter  13:  -774.27532884375250   -1.62004e-10   9.57428e-09 DIIS
   @DF-RHF iter  14:  -774.27532884378240   -2.98996e-11   3.24061e-09 DIIS
   @DF-RHF iter  15:  -774.27532884378888   -6.48015e-12   1.42649e-09 DIIS
   @DF-RHF iter  16:  -774.27532884379173   -2.84217e-12   5.52442e-10 DIIS
   @DF-RHF iter  17:  -774.27532884379059    1.13687e-12   2.88461e-10 DIIS
   @DF-RHF iter  18:  -774.27532884379013    4.54747e-13   1.09841e-10 DIIS
   @DF-RHF iter  19:  -774.27532884379059   -4.54747e-13   5.43794e-11 DIIS
  Energy and wave function converged.


  ==> Post-Iterations <==

    Orbital Energies [Eh]
    ---------------------

    Doubly Occupied:                                                      

       1A    -92.012780     2A    -20.529297     3A    -15.597129  
       4A    -15.593920     5A    -11.369412     6A    -11.324780  
       7A    -11.285483     8A    -11.283299     9A    -11.263815  
      10A     -9.012691    11A     -6.693394    12A     -6.692860  
      13A     -6.692236    14A     -1.384285    15A     -1.296277  
      16A     -1.238035    17A     -1.080992    18A     -1.035973  
      19A     -0.959815    20A     -0.848009    21A     -0.804024  
      22A     -0.777673    23A     -0.717782    24A     -0.655706  
      25A     -0.649919    26A     -0.633679    27A     -0.599553  
      28A     -0.584801    29A     -0.566459    30A     -0.552147  
      31A     -0.531967    32A     -0.517862    33A     -0.466481  
      34A     -0.436778    35A     -0.408601    36A     -0.392567  
      37A     -0.348507  

    Virtual:                                                              

      38A      0.024932    39A      0.030296    40A      0.037360  
      41A      0.045561    42A      0.051931    43A      0.057987  
      44A      0.060652    45A      0.076838    46A      0.081383  
      47A      0.083676    48A      0.092000    49A      0.100173  
      50A      0.105657    51A      0.109255    52A      0.114936  
      53A      0.117993    54A      0.123379    55A      0.128818  
      56A      0.135484    57A      0.136301    58A      0.144213  
      59A      0.146018    60A      0.154526    61A      0.159225  
      62A      0.161725    63A      0.167450    64A      0.174857  
      65A      0.177906    66A      0.186508    67A      0.188535  
      68A      0.207384    69A      0.212569    70A      0.212757  
      71A      0.215624    72A      0.221428    73A      0.234521  
      74A      0.239165    75A      0.244211    76A      0.250761  
      77A      0.254758    78A      0.262323    79A      0.277680  
      80A      0.280755    81A      0.285751    82A      0.289453  
      83A      0.296550    84A      0.299015    85A      0.301250  
      86A      0.312916    87A      0.317026    88A      0.326384  
      89A      0.333156    90A      0.336113    91A      0.339220  
      92A      0.342481    93A      0.346595    94A      0.351948  
      95A      0.361767    96A      0.369303    97A      0.375073  
      98A      0.379409    99A      0.388084   100A      0.395726  
     101A      0.400342   102A      0.408118   103A      0.409508  
     104A      0.411380   105A      0.417913   106A      0.424703  
     107A      0.439409   108A      0.450174   109A      0.452091  
     110A      0.455206   111A      0.459611   112A      0.463426  
     113A      0.466136   114A      0.467029   115A      0.473053  
     116A      0.477581   117A      0.484709   118A      0.487967  
     119A      0.489077   120A      0.490999   121A      0.500090  
     122A      0.508130   123A      0.514593   124A      0.518098  
     125A      0.526500   126A      0.533888   127A      0.546947  
     128A      0.552614   129A      0.558690   130A      0.562119  
     131A      0.565501   132A      0.576862   133A      0.589755  
     134A      0.594213   135A      0.600743   136A      0.608786  
     137A      0.615132   138A      0.620167   139A      0.629669  
     140A      0.632356   141A      0.641857   142A      0.653740  
     143A      0.659720   144A      0.665097   145A      0.675563  
     146A      0.686016   147A      0.692852   148A      0.713743  
     149A      0.728421   150A      0.736840   151A      0.738552  
     152A      0.742159   153A      0.755919   154A      0.766236  
     155A      0.777010   156A      0.781551   157A      0.790274  
     158A      0.792965   159A      0.800467   160A      0.815134  
     161A      0.819900   162A      0.830844   163A      0.833397  
     164A      0.838261   165A      0.842880   166A      0.850689  
     167A      0.856040   168A      0.877580   169A      0.879828  
     170A      0.886581   171A      0.891316   172A      0.896522  
     173A      0.905459   174A      0.910304   175A      0.912525  
     176A      0.925199   177A      0.931657   178A      0.937592  
     179A      0.942876   180A      0.947930   181A      0.956737  
     182A      0.961153   183A      0.971642   184A      0.975192  
     185A      0.985521   186A      0.990807   187A      0.998402  
     188A      1.001583   189A      1.011970   190A      1.020727  
     191A      1.027968   192A      1.030064   193A      1.039067  
     194A      1.046158   195A      1.054344   196A      1.055625  
     197A      1.063715   198A      1.066628   199A      1.078878  
     200A      1.091348   201A      1.092691   202A      1.098458  
     203A      1.105124   204A      1.109548   205A      1.111576  
     206A      1.118275   207A      1.121323   208A      1.142090  
     209A      1.149020   210A      1.154676   211A      1.156810  
     212A      1.168543   213A      1.169257   214A      1.179811  
     215A      1.182955   216A      1.190890   217A      1.203120  
     218A      1.208888   219A      1.215881   220A      1.225047  
     221A      1.235927   222A      1.255749   223A      1.266845  
     224A      1.269808   225A      1.273997   226A      1.288043  
     227A      1.296438   228A      1.297808   229A      1.302954  
     230A      1.309357   231A      1.313907   232A      1.327411  
     233A      1.363711   234A      1.371772   235A      1.378314  
     236A      1.381013   237A      1.394575   238A      1.400153  
     239A      1.411843   240A      1.424936   241A      1.436140  
     242A      1.444151   243A      1.463508   244A      1.469478  
     245A      1.474539   246A      1.486491   247A      1.495183  
     248A      1.509878   249A      1.519160   250A      1.520647  
     251A      1.529819   252A      1.542371   253A      1.550419  
     254A      1.564074   255A      1.566943   256A      1.575217  
     257A      1.585900   258A      1.600851   259A      1.608896  
     260A      1.627730   261A      1.634436   262A      1.644552  
     263A      1.650162   264A      1.664540   265A      1.675315  
     266A      1.690391   267A      1.694445   268A      1.701707  
     269A      1.714729   270A      1.729882   271A      1.734383  
     272A      1.752715   273A      1.754546   274A      1.758473  
     275A      1.776632   276A      1.779765   277A      1.782857  
     278A      1.811987   279A      1.830284   280A      1.834344  
     281A      1.868270   282A      1.869668   283A      1.880732  
     284A      1.893473   285A      1.896938   286A      1.915534  
     287A      1.928396   288A      1.945391   289A      1.952282  
     290A      1.967605   291A      1.978833   292A      1.986949  
     293A      1.988597   294A      2.008639   295A      2.012474  
     296A      2.037528   297A      2.045730   298A      2.056091  
     299A      2.081740   300A      2.097537   301A      2.103333  
     302A      2.121116   303A      2.141111   304A      2.143289  
     305A      2.148593   306A      2.155007   307A      2.171588  
     308A      2.180526   309A      2.214268   310A      2.216562  
     311A      2.224428   312A      2.227414   313A      2.241517  
     314A      2.251937   315A      2.272809   316A      2.291631  
     317A      2.312328   318A      2.321667   319A      2.336395  
     320A      2.352447   321A      2.354005   322A      2.366685  
     323A      2.375252   324A      2.381780   325A      2.390663  
     326A      2.414240   327A      2.435516   328A      2.453427  
     329A      2.464093   330A      2.471066   331A      2.473663  
     332A      2.498633   333A      2.508176   334A      2.521391  
     335A      2.535461   336A      2.541989   337A      2.550235  
     338A      2.578835   339A      2.591784   340A      2.613531  
     341A      2.643618   342A      2.649544   343A      2.675964  
     344A      2.682239   345A      2.700277   346A      2.714549  
     347A      2.733647   348A      2.745546   349A      2.754811  
     350A      2.777051   351A      2.788538   352A      2.825666  
     353A      2.848321   354A      2.864543   355A      2.884238  
     356A      2.916673   357A      2.927406   358A      2.969523  
     359A      2.991443   360A      3.029017   361A      3.034728  
     362A      3.052930   363A      3.066552   364A      3.073208  
     365A      3.104197   366A      3.116777   367A      3.140058  
     368A      3.178608   369A      3.202708   370A      3.219930  
     371A      3.249510   372A      3.279753   373A      3.290298  
     374A      3.312610   375A      3.324561   376A      3.354298  
     377A      3.384206   378A      3.404518   379A      3.420253  
     380A      3.433482   381A      3.439025   382A      3.462502  
     383A      3.507954   384A      3.517010   385A      3.523856  
     386A      3.540703   387A      3.558538   388A      3.567014  
     389A      3.585808   390A      3.613035   391A      3.626504  
     392A      3.632143   393A      3.659079   394A      3.666620  
     395A      3.688771   396A      3.722406   397A      3.744933  
     398A      3.747874   399A      3.751925   400A      3.771219  
     401A      3.784875   402A      3.788379   403A      3.820785  
     404A      3.825001   405A      3.835735   406A      3.838995  
     407A      3.853349   408A      3.882648   409A      3.888413  
     410A      3.897665   411A      3.924460   412A      3.935530  
     413A      3.945504   414A      3.954180   415A      3.987363  
     416A      3.992641   417A      3.995394   418A      4.007144  
     419A      4.034720   420A      4.041216   421A      4.052452  
     422A      4.073764   423A      4.078026   424A      4.087941  
     425A      4.106551   426A      4.119036   427A      4.126753  
     428A      4.137325   429A      4.144153   430A      4.168495  
     431A      4.182401   432A      4.211047   433A      4.247755  
     434A      4.255997   435A      4.263483   436A      4.273412  
     437A      4.292238   438A      4.317075   439A      4.325004  
     440A      4.347384   441A      4.365554   442A      4.369714  
     443A      4.381120   444A      4.385774   445A      4.421180  
     446A      4.452528   447A      4.491466   448A      4.495348  
     449A      4.511693   450A      4.556484   451A      4.570722  
     452A      4.575122   453A      4.593349   454A      4.612210  
     455A      4.626181   456A      4.661932   457A      4.690236  
     458A      4.691325   459A      4.726221   460A      4.741043  
     461A      4.782809   462A      4.786054   463A      4.814308  
     464A      4.828452   465A      4.854929   466A      4.866620  
     467A      4.892256   468A      4.909695   469A      4.917148  
     470A      4.941019   471A      4.960410   472A      4.969011  
     473A      5.005201   474A      5.028891   475A      5.040317  
     476A      5.071650   477A      5.118829   478A      5.129915  
     479A      5.138627   480A      5.154584   481A      5.171126  
     482A      5.177795   483A      5.202799   484A      5.254531  
     485A      5.266618   486A      5.291671   487A      5.297208  
     488A      5.361350   489A      5.387853   490A      5.419544  
     491A      5.473620   492A      5.484386   493A      5.491049  
     494A      5.529579   495A      5.553899   496A      5.615682  
     497A      5.624558   498A      5.636334   499A      5.663746  
     500A      5.695104   501A      5.710869   502A      5.730348  
     503A      5.746148   504A      5.760472   505A      5.770865  
     506A      5.806175   507A      5.836223   508A      5.874235  
     509A      5.882707   510A      5.885858   511A      5.991136  
     512A      6.076199   513A      6.113950   514A      6.142125  
     515A      6.146550   516A      6.168181   517A      6.175761  
     518A      6.225322   519A      6.297328   520A      6.309578  
     521A      6.311801   522A      6.440467   523A      6.550660  
     524A      6.599740   525A      6.670309   526A      6.687191  
     527A      6.719714   528A      6.733692   529A      6.753072  
     530A      6.763497   531A      6.846225   532A      6.864655  
     533A      6.879317   534A      6.941109   535A      6.965609  
     536A      7.017605   537A      7.061572   538A      7.181051  
     539A      7.205733   540A      7.414469   541A      7.429063  
     542A      7.661028   543A      7.690748   544A      7.769447  
     545A      7.805268   546A      7.917388   547A      8.018747  
     548A      9.154124   549A     15.187391   550A     15.627854  
     551A     16.189363   552A     16.426922   553A     17.302558  
     554A     18.169154   555A     18.663946   556A     20.160999  

    Final Occupation by Irrep:
              A 
    DOCC [    37 ]

  @DF-RHF Final Energy:  -774.27532884379059

   => Energetics <=

    Nuclear Repulsion Energy =            504.7876665930658646
    One-Electron Energy =               -2064.4480137839695999
    Two-Electron Energy =                 785.3850183471132596
    Total Energy =                       -774.2753288437905894

Computation Completed

*** tstop() called on node144.bme.utexas.edu at Wed Feb 10 17:49:43 2021
Module time:
	user time   =     233.64 seconds =       3.89 minutes
	system time =      30.32 seconds =       0.51 minutes
	total time  =         52 seconds =       0.87 minutes
Total time:
	user time   =     233.64 seconds =       3.89 minutes
	system time =      30.32 seconds =       0.51 minutes
	total time  =         52 seconds =       0.87 minutes
   => Loading Basis Set <=

    Name: (AUG-CC-PVTZ AUX)
    Role: RIFIT
    Keyword: DF_BASIS_MP2
    atoms 1     entry S          line   666 file /home/xy3866/psi4conda/share/psi4/basis/aug-cc-pvtz-ri.gbs 
    atoms 2     entry O          line   264 file /home/xy3866/psi4conda/share/psi4/basis/aug-cc-pvtz-ri.gbs 
    atoms 3-4   entry N          line   206 file /home/xy3866/psi4conda/share/psi4/basis/aug-cc-pvtz-ri.gbs 
    atoms 5-9   entry C          line   148 file /home/xy3866/psi4conda/share/psi4/basis/aug-cc-pvtz-ri.gbs 
    atoms 10-15 entry H          line    30 file /home/xy3866/psi4conda/share/psi4/basis/aug-cc-pvtz-ri.gbs 


*** tstart() called on node144.bme.utexas.edu
*** at Wed Feb 10 17:49:43 2021


  //>>>>>>>>>>>>>>>>>>>>>>>>>>>>>>>>>>>//
  //               DFMP2               //
  //<<<<<<<<<<<<<<<<<<<<<<<<<<<<<<<<<<<//

	 --------------------------------------------------------
	                          DF-MP2                         
	      2nd-Order Density-Fitted Moller-Plesset Theory     
	              RMP2 Wavefunction,   8 Threads             
	                                                         
	        Rob Parrish, Justin Turney, Andy Simmonett,      
	           Ed Hohenstein, and C. David Sherrill          
	 --------------------------------------------------------

   => Auxiliary Basis Set <=

  Basis Set: (AUG-CC-PVTZ AUX)
    Blend: AUG-CC-PVTZ-RI
    Number of shells: 345
    Number of basis function: 1271
    Number of Cartesian functions: 1609
    Spherical Harmonics?: true
    Max angular momentum: 4

	 --------------------------------------------------------
	                 NBF =   556, NAUX =  1271
	 --------------------------------------------------------
	   CLASS    FOCC     OCC    AOCC    AVIR     VIR    FVIR
	   PAIRS       0      37      37     519     519       0
	 --------------------------------------------------------

  DFHelper Memory: AOs need 2.794 GiB; user supplied 22.352 GiB. Using in-core AOs.


         ------------------------------------------------------------
                                     CPHF                           
                                  Rob Parrish                       
         ------------------------------------------------------------

  ==> Geometry <==

    Molecular point group: c1
    Full point group: C1

    Geometry (in Angstrom), charge = 0, multiplicity = 1:

       Center              X                  Y                   Z               Mass       
    ------------   -----------------  -----------------  -----------------  -----------------
         S            1.504205285922    -1.051495632574     0.001065396876    31.972071174400
         O           -1.471089714078    -1.529921632574     0.001063396876    15.994914619570
         N           -2.060126714078     0.703032367426     0.001064396876    14.003074004430
         N            0.634045285922     1.383579367426     0.001063396876    14.003074004430
         C            0.238580285922     0.119042367426     0.001064396876    12.000000000000
         C           -1.180777714078    -0.327053632574     0.001063396876    12.000000000000
         C           -3.493968714078     0.494476367426     0.001065396876    12.000000000000
         C            2.644447285922     0.225086367426     0.001064396876    12.000000000000
         C            1.999446285922     1.443846367426     0.001064396876    12.000000000000
         H           -1.665624714078     1.637505367426     0.001065396876     1.007825032230
         H           -3.951788714078     0.932947367426    -0.890129603124     1.007825032230
         H           -3.951786714078     0.932939367426     0.892265396876     1.007825032230
         H           -3.664738714078    -0.581888632574     0.001061396876     1.007825032230
         H            3.709614285922     0.032925267426    -0.148934603124     1.007825032230
         H            2.493531285922     2.409306367426     0.001064396876     1.007825032230

  Nuclear repulsion =  504.787666593065865
  Reference energy  = -774.275328843790589

  ==> Basis Set <==

  Basis Set: AUG-CC-PVTZ
    Blend: AUG-CC-PVTZ
    Number of shells: 182
    Number of basis function: 556
    Number of Cartesian functions: 649
    Spherical Harmonics?: true
    Max angular momentum: 3

  ==> CGRSolver (by Rob Parrish) <==

   Number of roots    =         1
   Preconditioning    =    JACOBI
   Convergence cutoff =     1E-06
   Maximum iterations =       100

  ==> CPHFRHamiltonian (by Rob Parrish) <== 

  ==> MemDFJK: Density-Fitted J/K Matrices <==

    J tasked:                   Yes
    K tasked:                   Yes
    wK tasked:                   No
    OpenMP threads:               8
    Memory [MiB]:             22888
    Algorithm:                 Disk
    Schwarz Cutoff:           1E-12
    Mask sparsity (%):       6.4580
    Fitting Condition:        1E-10

   => Auxiliary Basis Set <=

  Basis Set: (AUG-CC-PVTZ AUX)
    Blend: AUG-CC-PVTZ-JKFIT
    Number of shells: 366
    Number of basis function: 1254
    Number of Cartesian functions: 1558
    Spherical Harmonics?: true
    Max angular momentum: 4

  ==> CPHF Iterations <==

  => Iterations <=

             Iter  Converged  Remaining    Residual
  CGR           1          0          1   1.368E-01
  CGR           2          0          1   4.650E-02
  CGR           3          0          1   2.369E-02
  CGR           4          0          1   8.748E-03
  CGR           5          0          1   3.579E-03
  CGR           6          0          1   1.388E-03
  CGR           7          0          1   4.839E-04
  CGR           8          0          1   1.921E-04
  CGR           9          0          1   6.942E-05
  CGR          10          0          1   2.888E-05
  CGR          11          0          1   1.556E-05
  CGR          12          0          1   6.578E-06
  CGR          13          0          1   2.645E-06
  CGR          14          1          0   8.281E-07

    CGRSolver converged.

	-----------------------------------------------------------
	 ==================> DF-MP2 Energies <==================== 
	-----------------------------------------------------------
	 Reference Energy          =    -774.2753288437905894 [Eh]
	 Singles Energy            =      -0.0000000000000000 [Eh]
	 Same-Spin Energy          =      -0.4589208458451335 [Eh]
	 Opposite-Spin Energy      =      -1.3692252921887740 [Eh]
	 Correlation Energy        =      -1.8281461380339075 [Eh]
	 Total Energy              =    -776.1034749818245473 [Eh]
	-----------------------------------------------------------
	 ================> DF-SCS-MP2 Energies <================== 
	-----------------------------------------------------------
	 SCS Same-Spin Scale       =       0.3333333333333333 [-]
	 SCS Opposite-Spin Scale   =       1.2000000000000000 [-]
	 SCS Same-Spin Energy      =      -0.1529736152817112 [Eh]
	 SCS Opposite-Spin Energy  =      -1.6430703506265287 [Eh]
	 SCS Correlation Energy    =      -1.7960439659082399 [Eh]
	 SCS Total Energy          =    -776.0713728096988007 [Eh]
	-----------------------------------------------------------



Properties will be evaluated at  -0.000000,  -0.000000,  -0.000000 [a0]

Properties computed using the MP2 density matrix

  Nuclear Dipole Moment: [e a0]
     X:    -6.5544      Y:     4.9872      Z:    -0.1346

  Electronic Dipole Moment: [e a0]
     X:     6.9895      Y:    -4.0212      Z:     0.0876

  Dipole Moment: [e a0]
     X:     0.4351      Y:     0.9660      Z:    -0.0470     Total:     1.0605

  Dipole Moment: [D]
     X:     1.1059      Y:     2.4553      Z:    -0.1194     Total:     2.6955


*** tstop() called on node144.bme.utexas.edu at Wed Feb 10 17:51:34 2021
Module time:
	user time   =     647.76 seconds =      10.80 minutes
	system time =      35.00 seconds =       0.58 minutes
	total time  =        111 seconds =       1.85 minutes
Total time:
	user time   =     881.56 seconds =      14.69 minutes
	system time =      65.32 seconds =       1.09 minutes
	total time  =        163 seconds =       2.72 minutes

    Psi4 stopped on: Wednesday, 10 February 2021 05:51PM
    Psi4 wall time for execution: 0:02:43.26

*** Psi4 exiting successfully. Buy a developer a beer!
