
    -----------------------------------------------------------------------
          Psi4: An Open-Source Ab Initio Electronic Structure Package
                               Psi4 1.3.2 release

                         Git: Rev {HEAD} ecbda83 


    R. M. Parrish, L. A. Burns, D. G. A. Smith, A. C. Simmonett,
    A. E. DePrince III, E. G. Hohenstein, U. Bozkaya, A. Yu. Sokolov,
    R. Di Remigio, R. M. Richard, J. F. Gonthier, A. M. James,
    H. R. McAlexander, A. Kumar, M. Saitow, X. Wang, B. P. Pritchard,
    P. Verma, H. F. Schaefer III, K. Patkowski, R. A. King, E. F. Valeev,
    F. A. Evangelista, J. M. Turney, T. D. Crawford, and C. D. Sherrill,
    J. Chem. Theory Comput. 13(7) pp 3185--3197 (2017).
    (doi: 10.1021/acs.jctc.7b00174)


                         Additional Contributions by
    P. Kraus, H. Kruse, M. H. Lechner, M. C. Schieber, R. A. Shaw,
    A. Alenaizan, R. Galvelis, Z. L. Glick, S. Lehtola, and J. P. Misiewicz

    -----------------------------------------------------------------------


    Psi4 started on: Friday, 13 November 2020 03:58PM

    Process ID: 32513
    Host:       node92.bme.utexas.edu
    PSIDATADIR: /home/xy3866/psi4conda/share/psi4
    Memory:     500.0 MiB
    Threads:    8
    
  ==> Input File <==

--------------------------------------------------------------------------
#psi4
#
memory 32 gb

molecule  {
-3 1
  P        1.1931290    -0.6069630     0.0087730
  P       -1.8341790     0.1663700     0.0034510
  O        1.3559990     1.0186560    -0.3729610
  O       -0.4020455    -0.7781555    -0.1302301
  O        1.9958680    -1.3863361    -1.0177190
  O        1.6168640    -0.7815310     1.4560350
  O       -1.8332320     1.0931450    -1.2188660
  O       -1.6562150     0.8578460     1.3638040
  O       -2.8968830    -0.9395270    -0.0292720
  C        2.6258790     1.5668310    -0.0085760
  H        2.7349980     1.6139230     1.0781470
  H        3.4479520     0.9704660    -0.4205400
  H        2.6752270     2.5733270    -0.4286450
units angstrom
no_reorient  #important for SAPT in psi4, default
symmetry c1  #important for SAPT in psi4, default
}

set PROPERTIES_ORIGIN ["COM"]
properties('MP2/aug-cc-pvtz', properties = ['dipole'])
--------------------------------------------------------------------------

  Memory set to  29.802 GiB by Python driver.
    SCF Algorithm Type (re)set to DF.

*** tstart() called on node92.bme.utexas.edu
*** at Fri Nov 13 15:58:30 2020

   => Loading Basis Set <=

    Name: AUG-CC-PVTZ
    Role: ORBITAL
    Keyword: BASIS
    atoms 1-2   entry P          line   820 file /home/xy3866/psi4conda/share/psi4/basis/aug-cc-pvtz.gbs 
    atoms 3-9   entry O          line   327 file /home/xy3866/psi4conda/share/psi4/basis/aug-cc-pvtz.gbs 
    atoms 10    entry C          line   235 file /home/xy3866/psi4conda/share/psi4/basis/aug-cc-pvtz.gbs 
    atoms 11-13 entry H          line    36 file /home/xy3866/psi4conda/share/psi4/basis/aug-cc-pvtz.gbs 


         ---------------------------------------------------------
                                   SCF
               by Justin Turney, Rob Parrish, Andy Simmonett
                          and Daniel G. A. Smith
                              RHF Reference
                        8 Threads,  30517 MiB Core
         ---------------------------------------------------------

  ==> Geometry <==

    Molecular point group: c1
    Full point group: C1

    Geometry (in Angstrom), charge = -3, multiplicity = 1:

       Center              X                  Y                   Z               Mass       
    ------------   -----------------  -----------------  -----------------  -----------------
         P            1.238238322866    -0.584222109301     0.001792513545    30.973761998420
         P           -1.789069677134     0.189110890699    -0.003529486455    30.973761998420
         O            1.401108322866     1.041396890699    -0.379941486455    15.994914619570
         O           -0.356936177134    -0.755414609301    -0.137210586455    15.994914619570
         O            2.040977322866    -1.363595209301    -1.024699486455    15.994914619570
         O            1.661973322866    -0.758790109301     1.449054513545    15.994914619570
         O           -1.788122677134     1.115885890699    -1.225846486455    15.994914619570
         O           -1.611105677134     0.880586890699     1.356823513545    15.994914619570
         O           -2.851773677134    -0.916786109301    -0.036252486455    15.994914619570
         C            2.670988322866     1.589571890699    -0.015556486455    12.000000000000
         H            2.780107322866     1.636663890699     1.071166513545     1.007825032230
         H            3.493061322866     0.993206890699    -0.427520486455     1.007825032230
         H            2.720336322866     2.596067890699    -0.435625486455     1.007825032230

  Running in c1 symmetry.

  Rotational constants: A =      0.06218  B =      0.02293  C =      0.02132 [cm^-1]
  Rotational constants: A =   1864.11114  B =    687.31709  C =    639.28012 [MHz]
  Nuclear repulsion =  821.876389693785200

  Charge       = -3
  Multiplicity = 1
  Electrons    = 98
  Nalpha       = 49
  Nbeta        = 49

  ==> Algorithm <==

  SCF Algorithm Type is DF.
  DIIS enabled.
  MOM disabled.
  Fractional occupation disabled.
  Guess Type is SAD.
  Energy threshold   = 1.00e-10
  Density threshold  = 1.00e-10
  Integral threshold = 0.00e+00

  ==> Primary Basis <==

  Basis Set: AUG-CC-PVTZ
    Blend: AUG-CC-PVTZ
    Number of shells: 171
    Number of basis function: 537
    Number of Cartesian functions: 633
    Spherical Harmonics?: true
    Max angular momentum: 3

   => Loading Basis Set <=

    Name: (AUG-CC-PVTZ AUX)
    Role: JKFIT
    Keyword: DF_BASIS_SCF
    atoms 1-2   entry P          line   644 file /home/xy3866/psi4conda/share/psi4/basis/aug-cc-pvtz-jkfit.gbs 
    atoms 3-9   entry O          line   286 file /home/xy3866/psi4conda/share/psi4/basis/aug-cc-pvtz-jkfit.gbs 
    atoms 10    entry C          line   162 file /home/xy3866/psi4conda/share/psi4/basis/aug-cc-pvtz-jkfit.gbs 
    atoms 11-13 entry H          line    70 file /home/xy3866/psi4conda/share/psi4/basis/aug-cc-pvtz-jkfit.gbs 

  ==> Pre-Iterations <==

   -------------------------------------------------------
    Irrep   Nso     Nmo     Nalpha   Nbeta   Ndocc  Nsocc
   -------------------------------------------------------
     A        537     537       0       0       0       0
   -------------------------------------------------------
    Total     537     537      49      49      49       0
   -------------------------------------------------------

  ==> Integral Setup <==

  DFHelper Memory: AOs need 2.607 GiB; user supplied 22.352 GiB. Using in-core AOs.

  ==> MemDFJK: Density-Fitted J/K Matrices <==

    J tasked:                   Yes
    K tasked:                   Yes
    wK tasked:                   No
    OpenMP threads:               8
    Memory [MiB]:             22888
    Algorithm:                 Disk
    Schwarz Cutoff:           1E-12
    Mask sparsity (%):       7.0555
    Fitting Condition:        1E-10

   => Auxiliary Basis Set <=

  Basis Set: (AUG-CC-PVTZ AUX)
    Blend: AUG-CC-PVTZ-JKFIT
    Number of shells: 366
    Number of basis function: 1262
    Number of Cartesian functions: 1573
    Spherical Harmonics?: true
    Max angular momentum: 4

  Minimum eigenvalue in the overlap matrix is 3.0820939320E-05.
  Using Symmetric Orthogonalization.

  SCF Guess: Superposition of Atomic Densities via on-the-fly atomic UHF.

  ==> Iterations <==

                           Total Energy        Delta E     RMS |[F,P]|

   @DF-RHF iter SAD: -1243.54288053139589   -1.24354e+03   0.00000e+00 
   @DF-RHF iter   1: -1244.78281099884566   -1.23993e+00   2.23911e-03 DIIS
   @DF-RHF iter   2: -1244.34854662940234    4.34264e-01   2.30130e-03 DIIS
   @DF-RHF iter   3: -1245.27021215057107   -9.21666e-01   7.25745e-04 DIIS
   @DF-RHF iter   4: -1245.32887072320341   -5.86586e-02   2.96268e-04 DIIS
   @DF-RHF iter   5: -1245.34346783157275   -1.45971e-02   1.00576e-04 DIIS
   @DF-RHF iter   6: -1245.34540005192321   -1.93222e-03   3.40058e-05 DIIS
   @DF-RHF iter   7: -1245.34570826796039   -3.08216e-04   1.06834e-05 DIIS
   @DF-RHF iter   8: -1245.34574178349953   -3.35155e-05   4.22069e-06 DIIS
   @DF-RHF iter   9: -1245.34574521222771   -3.42873e-06   1.35158e-06 DIIS
   @DF-RHF iter  10: -1245.34574569493816   -4.82710e-07   3.26727e-07 DIIS
   @DF-RHF iter  11: -1245.34574572391307   -2.89749e-08   1.17390e-07 DIIS
   @DF-RHF iter  12: -1245.34574572686233   -2.94926e-09   3.20369e-08 DIIS
   @DF-RHF iter  13: -1245.34574572717770   -3.15367e-10   8.89896e-09 DIIS
   @DF-RHF iter  14: -1245.34574572721544   -3.77440e-11   3.04909e-09 DIIS
   @DF-RHF iter  15: -1245.34574572721749   -2.04636e-12   1.15737e-09 DIIS
   @DF-RHF iter  16: -1245.34574572721544    2.04636e-12   3.68778e-10 DIIS
   @DF-RHF iter  17: -1245.34574572721431    1.13687e-12   1.23939e-10 DIIS
   @DF-RHF iter  18: -1245.34574572721658   -2.27374e-12   4.87526e-11 DIIS
  Energy and wave function converged.


  ==> Post-Iterations <==

    Orbital Energies [Eh]
    ---------------------

    Doubly Occupied:                                                      

       1A    -79.626383     2A    -79.556524     3A    -20.150708  
       4A    -20.084954     5A    -20.061721     6A    -20.046982  
       7A    -19.998086     8A    -19.997964     9A    -19.991285  
      10A    -10.915183    11A     -7.140044    12A     -7.070566  
      13A     -5.039479    14A     -5.037777    15A     -5.037058  
      16A     -4.970251    17A     -4.967728    18A     -4.967545  
      19A     -0.965204    20A     -0.892909    21A     -0.846120  
      22A     -0.804155    23A     -0.798356    24A     -0.741051  
      25A     -0.736786    26A     -0.559068    27A     -0.343705  
      28A     -0.287375    29A     -0.252439    30A     -0.227508  
      31A     -0.187464    32A     -0.149998    33A     -0.144285  
      34A     -0.114788    35A     -0.097618    36A     -0.091200  
      37A     -0.062155    38A     -0.055685    39A     -0.043867  
      40A     -0.040722    41A     -0.024603    42A      0.007427  
      43A      0.020457    44A      0.022441    45A      0.027687  
      46A      0.027823    47A      0.066550    48A      0.072403  
      49A      0.095616  

    Virtual:                                                              

      50A      0.260946    51A      0.276378    52A      0.288861  
      53A      0.342561    54A      0.361087    55A      0.373701  
      56A      0.385023    57A      0.390421    58A      0.396070  
      59A      0.399071    60A      0.407155    61A      0.415978  
      62A      0.443068    63A      0.468484    64A      0.479863  
      65A      0.504487    66A      0.510769    67A      0.517015  
      68A      0.523109    69A      0.528310    70A      0.545921  
      71A      0.549288    72A      0.557568    73A      0.576505  
      74A      0.582232    75A      0.588171    76A      0.592462  
      77A      0.598057    78A      0.603004    79A      0.607067  
      80A      0.613947    81A      0.620524    82A      0.624105  
      83A      0.640256    84A      0.644474    85A      0.647050  
      86A      0.650080    87A      0.658493    88A      0.669558  
      89A      0.672706    90A      0.683563    91A      0.693466  
      92A      0.706552    93A      0.714107    94A      0.719508  
      95A      0.730386    96A      0.733049    97A      0.740777  
      98A      0.750685    99A      0.759571   100A      0.761134  
     101A      0.774720   102A      0.783311   103A      0.790644  
     104A      0.800461   105A      0.808837   106A      0.817082  
     107A      0.823437   108A      0.826465   109A      0.840729  
     110A      0.842310   111A      0.856719   112A      0.861583  
     113A      0.870846   114A      0.880204   115A      0.885691  
     116A      0.886483   117A      0.902728   118A      0.907239  
     119A      0.910767   120A      0.921900   121A      0.931557  
     122A      0.932983   123A      0.942452   124A      0.946048  
     125A      0.950579   126A      0.970001   127A      0.981457  
     128A      0.985207   129A      1.043240   130A      1.060955  
     131A      1.075552   132A      1.084156   133A      1.093594  
     134A      1.112790   135A      1.122451   136A      1.128327  
     137A      1.137249   138A      1.147527   139A      1.160925  
     140A      1.166160   141A      1.177225   142A      1.179454  
     143A      1.190493   144A      1.206349   145A      1.211784  
     146A      1.222546   147A      1.234529   148A      1.236934  
     149A      1.247172   150A      1.254572   151A      1.260710  
     152A      1.262400   153A      1.263564   154A      1.272690  
     155A      1.283289   156A      1.289893   157A      1.295541  
     158A      1.304211   159A      1.308813   160A      1.318748  
     161A      1.332484   162A      1.334829   163A      1.338622  
     164A      1.342227   165A      1.354897   166A      1.362958  
     167A      1.363453   168A      1.370555   169A      1.376059  
     170A      1.384780   171A      1.389821   172A      1.403729  
     173A      1.409794   174A      1.417938   175A      1.426144  
     176A      1.430055   177A      1.435712   178A      1.448612  
     179A      1.460070   180A      1.465406   181A      1.471278  
     182A      1.473119   183A      1.476367   184A      1.489917  
     185A      1.495413   186A      1.501765   187A      1.526439  
     188A      1.528158   189A      1.536847   190A      1.540823  
     191A      1.543881   192A      1.550123   193A      1.574503  
     194A      1.582416   195A      1.590491   196A      1.595248  
     197A      1.604079   198A      1.613018   199A      1.624191  
     200A      1.638122   201A      1.649125   202A      1.657808  
     203A      1.666176   204A      1.672671   205A      1.694018  
     206A      1.701804   207A      1.707476   208A      1.725008  
     209A      1.740025   210A      1.749339   211A      1.754260  
     212A      1.764816   213A      1.790990   214A      1.795806  
     215A      1.811750   216A      1.834660   217A      1.861718  
     218A      1.880763   219A      1.887870   220A      1.893057  
     221A      1.914701   222A      1.936184   223A      1.945582  
     224A      1.955017   225A      1.958118   226A      1.973243  
     227A      1.978065   228A      1.985308   229A      2.002042  
     230A      2.011610   231A      2.017631   232A      2.026931  
     233A      2.047500   234A      2.050854   235A      2.064273  
     236A      2.067909   237A      2.079593   238A      2.099965  
     239A      2.102598   240A      2.117996   241A      2.138451  
     242A      2.157038   243A      2.165205   244A      2.176048  
     245A      2.206346   246A      2.215840   247A      2.234917  
     248A      2.255867   249A      2.271823   250A      2.291303  
     251A      2.311900   252A      2.322816   253A      2.369888  
     254A      2.384786   255A      2.392566   256A      2.400629  
     257A      2.412637   258A      2.428571   259A      2.433443  
     260A      2.438516   261A      2.455900   262A      2.457958  
     263A      2.464680   264A      2.474426   265A      2.492131  
     266A      2.497489   267A      2.514822   268A      2.528667  
     269A      2.537761   270A      2.549471   271A      2.556144  
     272A      2.562229   273A      2.571938   274A      2.582392  
     275A      2.607376   276A      2.618987   277A      2.643202  
     278A      2.660057   279A      2.667843   280A      2.671321  
     281A      2.684284   282A      2.692768   283A      2.695949  
     284A      2.717229   285A      2.722711   286A      2.733133  
     287A      2.758535   288A      2.766117   289A      2.780261  
     290A      2.789559   291A      2.792999   292A      2.810569  
     293A      2.826707   294A      2.836369   295A      2.845894  
     296A      2.854526   297A      2.867595   298A      2.878996  
     299A      2.896962   300A      2.904554   301A      2.912543  
     302A      2.915580   303A      2.926245   304A      2.931235  
     305A      2.953744   306A      2.963537   307A      2.977332  
     308A      2.984961   309A      2.989239   310A      3.000626  
     311A      3.011209   312A      3.014688   313A      3.029210  
     314A      3.044050   315A      3.052948   316A      3.062636  
     317A      3.073510   318A      3.080445   319A      3.104534  
     320A      3.110618   321A      3.116754   322A      3.130609  
     323A      3.139694   324A      3.148773   325A      3.163136  
     326A      3.174577   327A      3.186341   328A      3.207412  
     329A      3.212846   330A      3.230905   331A      3.234308  
     332A      3.259380   333A      3.272669   334A      3.288229  
     335A      3.303665   336A      3.327337   337A      3.353745  
     338A      3.367723   339A      3.385164   340A      3.413658  
     341A      3.426832   342A      3.436156   343A      3.471708  
     344A      3.479211   345A      3.493431   346A      3.506690  
     347A      3.536190   348A      3.555573   349A      3.567325  
     350A      3.593838   351A      3.619394   352A      3.635235  
     353A      3.666331   354A      3.682747   355A      3.727039  
     356A      3.756574   357A      3.769903   358A      3.772751  
     359A      3.797921   360A      3.808993   361A      3.826767  
     362A      3.828248   363A      3.855967   364A      3.874457  
     365A      3.885107   366A      3.905189   367A      3.923821  
     368A      3.936759   369A      3.962424   370A      3.981032  
     371A      3.987278   372A      4.008407   373A      4.015323  
     374A      4.040864   375A      4.056529   376A      4.097217  
     377A      4.111516   378A      4.131591   379A      4.149016  
     380A      4.171053   381A      4.190391   382A      4.200586  
     383A      4.217666   384A      4.255105   385A      4.277390  
     386A      4.291033   387A      4.302569   388A      4.329765  
     389A      4.351344   390A      4.392092   391A      4.403444  
     392A      4.459811   393A      4.474842   394A      4.516995  
     395A      4.560446   396A      4.587548   397A      4.642344  
     398A      4.666412   399A      4.697590   400A      4.796921  
     401A      4.827833   402A      4.950655   403A      4.960650  
     404A      5.041155   405A      5.087073   406A      5.101977  
     407A      5.128316   408A      5.144878   409A      5.162078  
     410A      5.182075   411A      5.230385   412A      5.271683  
     413A      5.301837   414A      5.328479   415A      5.343275  
     416A      5.355612   417A      5.378509   418A      5.398755  
     419A      5.436022   420A      5.447247   421A      5.450740  
     422A      5.507489   423A      5.524374   424A      5.605107  
     425A      5.677581   426A      5.753572   427A      5.811751  
     428A      5.879891   429A      5.967441   430A      5.973756  
     431A      5.990432   432A      6.010783   433A      6.108184  
     434A      6.119845   435A      6.130766   436A      6.171818  
     437A      6.189574   438A      6.352719   439A      6.439584  
     440A      6.488524   441A      6.737907   442A      7.032294  
     443A      7.044129   444A      7.122758   445A      7.149567  
     446A      7.154813   447A      7.162213   448A      7.167810  
     449A      7.177481   450A      7.196620   451A      7.211221  
     452A      7.215836   453A      7.220937   454A      7.235920  
     455A      7.237934   456A      7.254622   457A      7.279671  
     458A      7.290258   459A      7.295375   460A      7.308637  
     461A      7.316360   462A      7.318607   463A      7.329872  
     464A      7.347817   465A      7.365602   466A      7.376161  
     467A      7.381749   468A      7.388705   469A      7.391232  
     470A      7.392704   471A      7.407613   472A      7.413187  
     473A      7.430746   474A      7.436423   475A      7.441666  
     476A      7.452978   477A      7.462422   478A      7.472788  
     479A      7.478923   480A      7.488605   481A      7.501887  
     482A      7.516078   483A      7.536264   484A      7.542423  
     485A      7.573046   486A      7.580863   487A      7.601158  
     488A      7.631377   489A      7.657545   490A      7.694584  
     491A      7.708844   492A      7.716542   493A      7.729664  
     494A      7.750804   495A      7.754162   496A      7.757841  
     497A      7.771495   498A      7.783660   499A      7.796284  
     500A      7.806049   501A      7.818974   502A      7.834690  
     503A      7.847057   504A      7.856819   505A      7.888947  
     506A      7.913119   507A      7.959339   508A      7.967155  
     509A      8.014812   510A      8.039438   511A      8.049513  
     512A      8.098142   513A      8.104822   514A      8.128139  
     515A      8.132504   516A      8.139983   517A      8.152371  
     518A      8.174732   519A      8.196443   520A      8.219379  
     521A      8.236861   522A      8.263834   523A      8.284456  
     524A      8.319305   525A      8.435646   526A      8.489658  
     527A      8.579900   528A     10.714408   529A     11.188339  
     530A     12.583448   531A     12.664164   532A     12.866748  
     533A     13.381990   534A     13.693908   535A     14.760879  
     536A     15.280182   537A     18.069585  

    Final Occupation by Irrep:
              A 
    DOCC [    49 ]

  @DF-RHF Final Energy: -1245.34574572721658

   => Energetics <=

    Nuclear Repulsion Energy =            821.8763896937851996
    One-Electron Energy =               -3408.8704784968567765
    Two-Electron Energy =                1341.6483430758548820
    Total Energy =                      -1245.3457457272165811

Computation Completed

*** tstop() called on node92.bme.utexas.edu at Fri Nov 13 15:59:12 2020
Module time:
	user time   =     208.55 seconds =       3.48 minutes
	system time =      22.08 seconds =       0.37 minutes
	total time  =         42 seconds =       0.70 minutes
Total time:
	user time   =     208.55 seconds =       3.48 minutes
	system time =      22.08 seconds =       0.37 minutes
	total time  =         42 seconds =       0.70 minutes
   => Loading Basis Set <=

    Name: (AUG-CC-PVTZ AUX)
    Role: RIFIT
    Keyword: DF_BASIS_MP2
    atoms 1-2   entry P          line   590 file /home/xy3866/psi4conda/share/psi4/basis/aug-cc-pvtz-ri.gbs 
    atoms 3-9   entry O          line   264 file /home/xy3866/psi4conda/share/psi4/basis/aug-cc-pvtz-ri.gbs 
    atoms 10    entry C          line   148 file /home/xy3866/psi4conda/share/psi4/basis/aug-cc-pvtz-ri.gbs 
    atoms 11-13 entry H          line    30 file /home/xy3866/psi4conda/share/psi4/basis/aug-cc-pvtz-ri.gbs 


*** tstart() called on node92.bme.utexas.edu
*** at Fri Nov 13 15:59:12 2020


  //>>>>>>>>>>>>>>>>>>>>>>>>>>>>>>>>>>>//
  //               DFMP2               //
  //<<<<<<<<<<<<<<<<<<<<<<<<<<<<<<<<<<<//

	 --------------------------------------------------------
	                          DF-MP2                         
	      2nd-Order Density-Fitted Moller-Plesset Theory     
	              RMP2 Wavefunction,   8 Threads             
	                                                         
	        Rob Parrish, Justin Turney, Andy Simmonett,      
	           Ed Hohenstein, and C. David Sherrill          
	 --------------------------------------------------------

   => Auxiliary Basis Set <=

  Basis Set: (AUG-CC-PVTZ AUX)
    Blend: AUG-CC-PVTZ-RI
    Number of shells: 340
    Number of basis function: 1280
    Number of Cartesian functions: 1635
    Spherical Harmonics?: true
    Max angular momentum: 4

	 --------------------------------------------------------
	                 NBF =   537, NAUX =  1280
	 --------------------------------------------------------
	   CLASS    FOCC     OCC    AOCC    AVIR     VIR    FVIR
	   PAIRS       0      49      49     488     488       0
	 --------------------------------------------------------

  DFHelper Memory: AOs need 2.607 GiB; user supplied 22.352 GiB. Using in-core AOs.


         ------------------------------------------------------------
                                     CPHF                           
                                  Rob Parrish                       
         ------------------------------------------------------------

  ==> Geometry <==

    Molecular point group: c1
    Full point group: C1

    Geometry (in Angstrom), charge = -3, multiplicity = 1:

       Center              X                  Y                   Z               Mass       
    ------------   -----------------  -----------------  -----------------  -----------------
         P            1.238238322866    -0.584222109301     0.001792513545    30.973761998420
         P           -1.789069677134     0.189110890699    -0.003529486455    30.973761998420
         O            1.401108322866     1.041396890699    -0.379941486455    15.994914619570
         O           -0.356936177134    -0.755414609301    -0.137210586455    15.994914619570
         O            2.040977322866    -1.363595209301    -1.024699486455    15.994914619570
         O            1.661973322866    -0.758790109301     1.449054513545    15.994914619570
         O           -1.788122677134     1.115885890699    -1.225846486455    15.994914619570
         O           -1.611105677134     0.880586890699     1.356823513545    15.994914619570
         O           -2.851773677134    -0.916786109301    -0.036252486455    15.994914619570
         C            2.670988322866     1.589571890699    -0.015556486455    12.000000000000
         H            2.780107322866     1.636663890699     1.071166513545     1.007825032230
         H            3.493061322866     0.993206890699    -0.427520486455     1.007825032230
         H            2.720336322866     2.596067890699    -0.435625486455     1.007825032230

  Nuclear repulsion =  821.876389693785200
  Reference energy  = -1245.345745727216581

  ==> Basis Set <==

  Basis Set: AUG-CC-PVTZ
    Blend: AUG-CC-PVTZ
    Number of shells: 171
    Number of basis function: 537
    Number of Cartesian functions: 633
    Spherical Harmonics?: true
    Max angular momentum: 3

  ==> CGRSolver (by Rob Parrish) <==

   Number of roots    =         1
   Preconditioning    =    JACOBI
   Convergence cutoff =     1E-06
   Maximum iterations =       100

  ==> CPHFRHamiltonian (by Rob Parrish) <== 

  ==> MemDFJK: Density-Fitted J/K Matrices <==

    J tasked:                   Yes
    K tasked:                   Yes
    wK tasked:                   No
    OpenMP threads:               8
    Memory [MiB]:             22888
    Algorithm:                 Disk
    Schwarz Cutoff:           1E-12
    Mask sparsity (%):       7.0555
    Fitting Condition:        1E-10

   => Auxiliary Basis Set <=

  Basis Set: (AUG-CC-PVTZ AUX)
    Blend: AUG-CC-PVTZ-JKFIT
    Number of shells: 366
    Number of basis function: 1262
    Number of Cartesian functions: 1573
    Spherical Harmonics?: true
    Max angular momentum: 4

  ==> CPHF Iterations <==

  => Iterations <=

             Iter  Converged  Remaining    Residual
  CGR           1          0          1   7.948E-02
  CGR           2          0          1   1.807E-02
  CGR           3          0          1   6.828E-03
  CGR           4          0          1   2.279E-03
  CGR           5          0          1   8.163E-04
  CGR           6          0          1   2.186E-04
  CGR           7          0          1   5.688E-05
  CGR           8          0          1   2.235E-05
  CGR           9          0          1   7.790E-06
  CGR          10          0          1   2.150E-06
  CGR          11          1          0   7.164E-07

    CGRSolver converged.

	-----------------------------------------------------------
	 ==================> DF-MP2 Energies <==================== 
	-----------------------------------------------------------
	 Reference Energy          =   -1245.3457457272165811 [Eh]
	 Singles Energy            =      -0.0000000000000000 [Eh]
	 Same-Spin Energy          =      -0.6456868844863644 [Eh]
	 Opposite-Spin Energy      =      -1.8051404026550659 [Eh]
	 Correlation Energy        =      -2.4508272871414301 [Eh]
	 Total Energy              =   -1247.7965730143580458 [Eh]
	-----------------------------------------------------------
	 ================> DF-SCS-MP2 Energies <================== 
	-----------------------------------------------------------
	 SCS Same-Spin Scale       =       0.3333333333333333 [-]
	 SCS Opposite-Spin Scale   =       1.2000000000000000 [-]
	 SCS Same-Spin Energy      =      -0.2152289614954548 [Eh]
	 SCS Opposite-Spin Energy  =      -2.1661684831860790 [Eh]
	 SCS Correlation Energy    =      -2.3813974446815340 [Eh]
	 SCS Total Energy          =   -1247.7271431718982058 [Eh]
	-----------------------------------------------------------



Properties will be evaluated at  -0.000000,  -0.000000,  -0.000000 [a0]

Properties computed using the MP2 density matrix

  Nuclear Dipole Moment: [e a0]
     X:     8.9307      Y:     5.2591      Z:     0.1966

  Electronic Dipole Moment: [e a0]
     X:    -5.7824      Y:    -4.4380      Z:    -0.4661

  Dipole Moment: [e a0]
     X:     3.1483      Y:     0.8210      Z:    -0.2695     Total:     3.2647

  Dipole Moment: [D]
     X:     8.0021      Y:     2.0868      Z:    -0.6851     Total:     8.2981


*** tstop() called on node92.bme.utexas.edu at Fri Nov 13 16:01:01 2020
Module time:
	user time   =     672.11 seconds =      11.20 minutes
	system time =      25.35 seconds =       0.42 minutes
	total time  =        109 seconds =       1.82 minutes
Total time:
	user time   =     881.71 seconds =      14.70 minutes
	system time =      47.46 seconds =       0.79 minutes
	total time  =        151 seconds =       2.52 minutes

    Psi4 stopped on: Friday, 13 November 2020 04:01PM
    Psi4 wall time for execution: 0:02:31.85

*** Psi4 exiting successfully. Buy a developer a beer!
