
    -----------------------------------------------------------------------
          Psi4: An Open-Source Ab Initio Electronic Structure Package
                               Psi4 1.3.2 release

                         Git: Rev {HEAD} ecbda83 


    R. M. Parrish, L. A. Burns, D. G. A. Smith, A. C. Simmonett,
    A. E. DePrince III, E. G. Hohenstein, U. Bozkaya, A. Yu. Sokolov,
    R. Di Remigio, R. M. Richard, J. F. Gonthier, A. M. James,
    H. R. McAlexander, A. Kumar, M. Saitow, X. Wang, B. P. Pritchard,
    P. Verma, H. F. Schaefer III, K. Patkowski, R. A. King, E. F. Valeev,
    F. A. Evangelista, J. M. Turney, T. D. Crawford, and C. D. Sherrill,
    J. Chem. Theory Comput. 13(7) pp 3185--3197 (2017).
    (doi: 10.1021/acs.jctc.7b00174)


                         Additional Contributions by
    P. Kraus, H. Kruse, M. H. Lechner, M. C. Schieber, R. A. Shaw,
    A. Alenaizan, R. Galvelis, Z. L. Glick, S. Lehtola, and J. P. Misiewicz

    -----------------------------------------------------------------------


    Psi4 started on: Friday, 13 November 2020 03:09PM

    Process ID: 30770
    Host:       node92.bme.utexas.edu
    PSIDATADIR: /home/xy3866/psi4conda/share/psi4
    Memory:     500.0 MiB
    Threads:    8
    
  ==> Input File <==

--------------------------------------------------------------------------
#psi4
#
memory 32 gb

molecule  {
-3 1
  P        1.1931290    -0.6069630     0.0087730
  P       -1.8341790     0.1663700     0.0034510
  O        1.3531280     1.0174165    -0.3608771
  O       -0.3886030    -0.8294050    -0.1958090
  O        1.9273580    -1.4129110    -1.0480400
  O        1.6168640    -0.7815310     1.4560350
  O       -1.8332320     1.0931450    -1.2188660
  O       -1.6562150     0.8578460     1.3638040
  O       -2.8968830    -0.9395270    -0.0292720
  C        2.6258790     1.5668310    -0.0085760
  H        2.7262871     1.6101627     1.0791427
  H        3.4479520     0.9704660    -0.4205400
  H        2.6752270     2.5733270    -0.4286450
units angstrom
no_reorient  #important for SAPT in psi4, default
symmetry c1  #important for SAPT in psi4, default
}

set PROPERTIES_ORIGIN ["COM"]
properties('MP2/aug-cc-pvtz', properties = ['dipole'])
--------------------------------------------------------------------------

  Memory set to  29.802 GiB by Python driver.
    SCF Algorithm Type (re)set to DF.

*** tstart() called on node92.bme.utexas.edu
*** at Fri Nov 13 15:09:22 2020

   => Loading Basis Set <=

    Name: AUG-CC-PVTZ
    Role: ORBITAL
    Keyword: BASIS
    atoms 1-2   entry P          line   820 file /home/xy3866/psi4conda/share/psi4/basis/aug-cc-pvtz.gbs 
    atoms 3-9   entry O          line   327 file /home/xy3866/psi4conda/share/psi4/basis/aug-cc-pvtz.gbs 
    atoms 10    entry C          line   235 file /home/xy3866/psi4conda/share/psi4/basis/aug-cc-pvtz.gbs 
    atoms 11-13 entry H          line    36 file /home/xy3866/psi4conda/share/psi4/basis/aug-cc-pvtz.gbs 


         ---------------------------------------------------------
                                   SCF
               by Justin Turney, Rob Parrish, Andy Simmonett
                          and Daniel G. A. Smith
                              RHF Reference
                        8 Threads,  30517 MiB Core
         ---------------------------------------------------------

  ==> Geometry <==

    Molecular point group: c1
    Full point group: C1

    Geometry (in Angstrom), charge = -3, multiplicity = 1:

       Center              X                  Y                   Z               Mass       
    ------------   -----------------  -----------------  -----------------  -----------------
         P            1.243189752914    -0.577508650389     0.008882906675    30.973761998420
         P           -1.784118247086     0.195824349611     0.003560906675    30.973761998420
         O            1.403188752914     1.046870849611    -0.360767193325    15.994914619570
         O           -0.338542247086    -0.799950650389    -0.195699093325    15.994914619570
         O            1.977418752914    -1.383456650389    -1.047930093325    15.994914619570
         O            1.666924752914    -0.752076650389     1.456144906675    15.994914619570
         O           -1.783171247086     1.122599349611    -1.218756093325    15.994914619570
         O           -1.606154247086     0.887300349611     1.363913906675    15.994914619570
         O           -2.846822247086    -0.910072650389    -0.029162093325    15.994914619570
         C            2.675939752914     1.596285349611    -0.008466093325    12.000000000000
         H            2.776347852914     1.639617049611     1.079252606675     1.007825032230
         H            3.498012752914     0.999920349611    -0.420430093325     1.007825032230
         H            2.725287752914     2.602781349611    -0.428535093325     1.007825032230

  Running in c1 symmetry.

  Rotational constants: A =      0.06136  B =      0.02303  C =      0.02139 [cm^-1]
  Rotational constants: A =   1839.40419  B =    690.56414  C =    641.25998 [MHz]
  Nuclear repulsion =  820.665531180212838

  Charge       = -3
  Multiplicity = 1
  Electrons    = 98
  Nalpha       = 49
  Nbeta        = 49

  ==> Algorithm <==

  SCF Algorithm Type is DF.
  DIIS enabled.
  MOM disabled.
  Fractional occupation disabled.
  Guess Type is SAD.
  Energy threshold   = 1.00e-10
  Density threshold  = 1.00e-10
  Integral threshold = 0.00e+00

  ==> Primary Basis <==

  Basis Set: AUG-CC-PVTZ
    Blend: AUG-CC-PVTZ
    Number of shells: 171
    Number of basis function: 537
    Number of Cartesian functions: 633
    Spherical Harmonics?: true
    Max angular momentum: 3

   => Loading Basis Set <=

    Name: (AUG-CC-PVTZ AUX)
    Role: JKFIT
    Keyword: DF_BASIS_SCF
    atoms 1-2   entry P          line   644 file /home/xy3866/psi4conda/share/psi4/basis/aug-cc-pvtz-jkfit.gbs 
    atoms 3-9   entry O          line   286 file /home/xy3866/psi4conda/share/psi4/basis/aug-cc-pvtz-jkfit.gbs 
    atoms 10    entry C          line   162 file /home/xy3866/psi4conda/share/psi4/basis/aug-cc-pvtz-jkfit.gbs 
    atoms 11-13 entry H          line    70 file /home/xy3866/psi4conda/share/psi4/basis/aug-cc-pvtz-jkfit.gbs 

  ==> Pre-Iterations <==

   -------------------------------------------------------
    Irrep   Nso     Nmo     Nalpha   Nbeta   Ndocc  Nsocc
   -------------------------------------------------------
     A        537     537       0       0       0       0
   -------------------------------------------------------
    Total     537     537      49      49      49       0
   -------------------------------------------------------

  ==> Integral Setup <==

  DFHelper Memory: AOs need 2.608 GiB; user supplied 22.352 GiB. Using in-core AOs.

  ==> MemDFJK: Density-Fitted J/K Matrices <==

    J tasked:                   Yes
    K tasked:                   Yes
    wK tasked:                   No
    OpenMP threads:               8
    Memory [MiB]:             22888
    Algorithm:                 Disk
    Schwarz Cutoff:           1E-12
    Mask sparsity (%):       7.0209
    Fitting Condition:        1E-10

   => Auxiliary Basis Set <=

  Basis Set: (AUG-CC-PVTZ AUX)
    Blend: AUG-CC-PVTZ-JKFIT
    Number of shells: 366
    Number of basis function: 1262
    Number of Cartesian functions: 1573
    Spherical Harmonics?: true
    Max angular momentum: 4

  Minimum eigenvalue in the overlap matrix is 3.0631657894E-05.
  Using Symmetric Orthogonalization.

  SCF Guess: Superposition of Atomic Densities via on-the-fly atomic UHF.

  ==> Iterations <==

                           Total Energy        Delta E     RMS |[F,P]|

   @DF-RHF iter SAD: -1243.48821920717546   -1.24349e+03   0.00000e+00 
   @DF-RHF iter   1: -1244.78447328023435   -1.29625e+00   2.23550e-03 DIIS
   @DF-RHF iter   2: -1244.35029619546867    4.34177e-01   2.29199e-03 DIIS
   @DF-RHF iter   3: -1245.27033698501509   -9.20041e-01   7.21917e-04 DIIS
   @DF-RHF iter   4: -1245.32846000203699   -5.81230e-02   2.95467e-04 DIIS
   @DF-RHF iter   5: -1245.34305090059661   -1.45909e-02   1.00076e-04 DIIS
   @DF-RHF iter   6: -1245.34498559934582   -1.93470e-03   3.38183e-05 DIIS
   @DF-RHF iter   7: -1245.34529654348057   -3.10944e-04   1.04426e-05 DIIS
   @DF-RHF iter   8: -1245.34533003918477   -3.34957e-05   3.79231e-06 DIIS
   @DF-RHF iter   9: -1245.34533295843221   -2.91925e-06   1.27600e-06 DIIS
   @DF-RHF iter  10: -1245.34533337731204   -4.18880e-07   3.00109e-07 DIIS
   @DF-RHF iter  11: -1245.34533340308735   -2.57753e-08   9.58275e-08 DIIS
   @DF-RHF iter  12: -1245.34533340509756   -2.01021e-09   3.29396e-08 DIIS
   @DF-RHF iter  13: -1245.34533340536427   -2.66709e-10   8.59505e-09 DIIS
   @DF-RHF iter  14: -1245.34533340539565   -3.13776e-11   2.73197e-09 DIIS
   @DF-RHF iter  15: -1245.34533340539519    4.54747e-13   1.03924e-09 DIIS
   @DF-RHF iter  16: -1245.34533340539747   -2.27374e-12   3.10074e-10 DIIS
   @DF-RHF iter  17: -1245.34533340539588    1.59162e-12   1.02717e-10 DIIS
   @DF-RHF iter  18: -1245.34533340539679   -9.09495e-13   4.21272e-11 DIIS
  Energy and wave function converged.


  ==> Post-Iterations <==

    Orbital Energies [Eh]
    ---------------------

    Doubly Occupied:                                                      

       1A    -79.621525     2A    -79.558951     3A    -20.152583  
       4A    -20.080226     5A    -20.054868     6A    -20.049977  
       7A    -19.999185     8A    -19.998641     9A    -19.997074  
      10A    -10.917279    11A     -7.135612    12A     -7.072762  
      13A     -5.034928    14A     -5.033403    15A     -5.032596  
      16A     -4.972324    17A     -4.969878    18A     -4.969747  
      19A     -0.965963    20A     -0.886343    21A     -0.841280  
      22A     -0.802557    23A     -0.798756    24A     -0.741626  
      25A     -0.740031    26A     -0.560972    27A     -0.336106  
      28A     -0.282098    29A     -0.254972    30A     -0.229160  
      31A     -0.186685    32A     -0.147176    33A     -0.143696  
      34A     -0.114117    35A     -0.092636    36A     -0.088616  
      37A     -0.063075    38A     -0.057482    39A     -0.042860  
      40A     -0.037870    41A     -0.022177    42A      0.007780  
      43A      0.021315    44A      0.022807    45A      0.025984  
      46A      0.028476    47A      0.065270    48A      0.068726  
      49A      0.093412  

    Virtual:                                                              

      50A      0.260375    51A      0.276039    52A      0.288415  
      53A      0.342641    54A      0.361005    55A      0.373837  
      56A      0.385366    57A      0.390879    58A      0.395905  
      59A      0.399025    60A      0.407114    61A      0.416000  
      62A      0.442130    63A      0.468229    64A      0.479562  
      65A      0.503784    66A      0.510987    67A      0.517026  
      68A      0.523561    69A      0.528015    70A      0.546455  
      71A      0.550073    72A      0.559536    73A      0.576511  
      74A      0.581895    75A      0.588728    76A      0.594027  
      77A      0.598081    78A      0.602844    79A      0.607012  
      80A      0.613318    81A      0.620821    82A      0.623824  
      83A      0.640105    84A      0.644057    85A      0.648469  
      86A      0.649411    87A      0.656965    88A      0.670099  
      89A      0.672658    90A      0.683022    91A      0.691459  
      92A      0.706446    93A      0.715125    94A      0.720057  
      95A      0.731721    96A      0.734633    97A      0.741855  
      98A      0.749741    99A      0.757736   100A      0.761003  
     101A      0.771506   102A      0.782228   103A      0.791890  
     104A      0.800604   105A      0.808616   106A      0.818392  
     107A      0.822821   108A      0.825794   109A      0.841508  
     110A      0.842174   111A      0.858501   112A      0.862607  
     113A      0.870540   114A      0.873601   115A      0.882114  
     116A      0.888727   117A      0.903177   118A      0.905469  
     119A      0.910410   120A      0.922420   121A      0.930004  
     122A      0.931587   123A      0.937295   124A      0.941483  
     125A      0.949157   126A      0.968567   127A      0.976310  
     128A      0.985343   129A      1.042634   130A      1.060716  
     131A      1.080236   132A      1.082601   133A      1.091400  
     134A      1.115766   135A      1.119807   136A      1.128409  
     137A      1.133640   138A      1.145711   139A      1.162370  
     140A      1.164866   141A      1.177889   142A      1.182824  
     143A      1.192988   144A      1.207394   145A      1.208965  
     146A      1.226254   147A      1.233059   148A      1.234748  
     149A      1.246090   150A      1.252967   151A      1.259755  
     152A      1.261972   153A      1.264703   154A      1.270345  
     155A      1.283435   156A      1.289711   157A      1.294091  
     158A      1.301442   159A      1.310626   160A      1.316574  
     161A      1.329913   162A      1.333643   163A      1.341127  
     164A      1.345755   165A      1.353207   166A      1.359253  
     167A      1.367107   168A      1.369975   169A      1.377305  
     170A      1.384136   171A      1.387563   172A      1.402487  
     173A      1.412178   174A      1.417197   175A      1.426738  
     176A      1.432377   177A      1.434994   178A      1.446444  
     179A      1.460070   180A      1.465310   181A      1.469045  
     182A      1.472660   183A      1.477955   184A      1.488899  
     185A      1.496333   186A      1.499307   187A      1.524480  
     188A      1.528458   189A      1.536672   190A      1.538538  
     191A      1.544726   192A      1.549784   193A      1.571370  
     194A      1.581215   195A      1.589709   196A      1.593671  
     197A      1.605426   198A      1.612863   199A      1.622522  
     200A      1.636372   201A      1.650438   202A      1.658614  
     203A      1.666507   204A      1.673610   205A      1.689320  
     206A      1.701687   207A      1.705824   208A      1.731357  
     209A      1.741768   210A      1.750502   211A      1.757556  
     212A      1.763092   213A      1.791000   214A      1.796866  
     215A      1.803399   216A      1.832068   217A      1.859394  
     218A      1.876975   219A      1.885777   220A      1.894988  
     221A      1.915600   222A      1.932406   223A      1.944951  
     224A      1.953931   225A      1.959887   226A      1.972101  
     227A      1.975609   228A      1.984247   229A      2.002595  
     230A      2.013268   231A      2.016581   232A      2.028052  
     233A      2.042431   234A      2.050777   235A      2.060638  
     236A      2.067400   237A      2.080082   238A      2.099642  
     239A      2.109088   240A      2.109745   241A      2.139403  
     242A      2.159219   243A      2.163321   244A      2.171081  
     245A      2.213395   246A      2.217106   247A      2.234176  
     248A      2.246622   249A      2.271277   250A      2.290289  
     251A      2.312680   252A      2.316610   253A      2.373283  
     254A      2.382340   255A      2.392562   256A      2.394379  
     257A      2.411143   258A      2.428719   259A      2.430886  
     260A      2.438663   261A      2.450863   262A      2.459603  
     263A      2.464091   264A      2.472666   265A      2.491635  
     266A      2.499827   267A      2.514871   268A      2.527168  
     269A      2.535852   270A      2.547225   271A      2.553360  
     272A      2.564684   273A      2.569981   274A      2.583728  
     275A      2.602995   276A      2.616616   277A      2.644484  
     278A      2.653590   279A      2.661155   280A      2.669968  
     281A      2.678032   282A      2.689861   283A      2.693067  
     284A      2.715942   285A      2.722721   286A      2.728109  
     287A      2.747143   288A      2.767630   289A      2.781471  
     290A      2.790647   291A      2.791708   292A      2.807866  
     293A      2.824552   294A      2.838932   295A      2.844753  
     296A      2.852188   297A      2.867120   298A      2.882499  
     299A      2.894687   300A      2.898630   301A      2.905309  
     302A      2.912821   303A      2.926483   304A      2.936787  
     305A      2.951091   306A      2.959293   307A      2.971142  
     308A      2.984900   309A      2.986677   310A      2.999180  
     311A      3.010747   312A      3.014528   313A      3.028364  
     314A      3.046851   315A      3.047706   316A      3.058360  
     317A      3.075084   318A      3.081389   319A      3.101297  
     320A      3.105974   321A      3.118795   322A      3.126811  
     323A      3.133468   324A      3.146158   325A      3.161621  
     326A      3.177216   327A      3.181490   328A      3.194175  
     329A      3.204121   330A      3.221708   331A      3.232596  
     332A      3.252922   333A      3.276045   334A      3.285620  
     335A      3.302264   336A      3.330883   337A      3.349843  
     338A      3.355934   339A      3.386697   340A      3.397577  
     341A      3.420508   342A      3.438010   343A      3.466298  
     344A      3.478112   345A      3.498580   346A      3.500664  
     347A      3.528423   348A      3.560875   349A      3.569736  
     350A      3.585976   351A      3.606842   352A      3.632178  
     353A      3.663046   354A      3.699773   355A      3.715005  
     356A      3.755225   357A      3.762665   358A      3.767447  
     359A      3.800332   360A      3.804467   361A      3.807821  
     362A      3.823569   363A      3.856398   364A      3.874435  
     365A      3.883944   366A      3.894441   367A      3.909919  
     368A      3.931542   369A      3.956031   370A      3.964425  
     371A      3.982757   372A      4.007967   373A      4.018830  
     374A      4.030311   375A      4.059918   376A      4.094201  
     377A      4.108197   378A      4.129493   379A      4.139974  
     380A      4.157874   381A      4.175385   382A      4.190588  
     383A      4.215522   384A      4.249096   385A      4.258724  
     386A      4.288224   387A      4.294042   388A      4.334977  
     389A      4.345089   390A      4.375630   391A      4.397415  
     392A      4.454592   393A      4.476569   394A      4.514309  
     395A      4.554459   396A      4.591525   397A      4.635192  
     398A      4.672125   399A      4.701210   400A      4.797327  
     401A      4.826797   402A      4.944768   403A      4.955848  
     404A      5.038227   405A      5.083008   406A      5.099433  
     407A      5.123844   408A      5.145770   409A      5.160004  
     410A      5.184101   411A      5.220444   412A      5.269673  
     413A      5.303232   414A      5.330313   415A      5.345729  
     416A      5.353122   417A      5.373706   418A      5.393106  
     419A      5.433174   420A      5.440829   421A      5.456910  
     422A      5.509822   423A      5.522462   424A      5.601742  
     425A      5.674642   426A      5.749348   427A      5.807599  
     428A      5.869242   429A      5.964326   430A      5.982151  
     431A      6.000208   432A      6.006918   433A      6.107239  
     434A      6.112647   435A      6.135207   436A      6.140323  
     437A      6.187088   438A      6.353453   439A      6.433326  
     440A      6.481506   441A      6.735823   442A      7.029878  
     443A      7.036787   444A      7.123541   445A      7.141978  
     446A      7.151748   447A      7.161454   448A      7.168223  
     449A      7.178245   450A      7.193325   451A      7.208169  
     452A      7.215888   453A      7.225626   454A      7.229186  
     455A      7.237405   456A      7.259984   457A      7.278484  
     458A      7.291261   459A      7.298935   460A      7.310768  
     461A      7.313988   462A      7.318837   463A      7.335481  
     464A      7.350707   465A      7.365274   466A      7.372559  
     467A      7.378737   468A      7.383634   469A      7.391827  
     470A      7.394487   471A      7.406246   472A      7.413022  
     473A      7.427675   474A      7.433319   475A      7.436709  
     476A      7.445405   477A      7.457741   478A      7.465237  
     479A      7.472698   480A      7.488973   481A      7.499476  
     482A      7.512888   483A      7.533201   484A      7.536674  
     485A      7.558684   486A      7.581134   487A      7.591297  
     488A      7.621223   489A      7.655162   490A      7.694612  
     491A      7.707066   492A      7.710487   493A      7.729118  
     494A      7.746466   495A      7.756025   496A      7.758914  
     497A      7.774506   498A      7.786216   499A      7.789952  
     500A      7.801902   501A      7.813503   502A      7.830368  
     503A      7.841084   504A      7.862344   505A      7.879300  
     506A      7.908786   507A      7.958980   508A      7.971867  
     509A      8.030201   510A      8.034249   511A      8.047611  
     512A      8.089853   513A      8.113969   514A      8.125299  
     515A      8.127009   516A      8.141794   517A      8.160931  
     518A      8.173127   519A      8.191430   520A      8.196970  
     521A      8.237648   522A      8.249177   523A      8.275499  
     524A      8.321099   525A      8.427966   526A      8.485809  
     527A      8.578267   528A     10.580636   529A     11.133619  
     530A     12.573452   531A     12.649731   532A     12.820234  
     533A     13.343492   534A     13.687584   535A     14.770754  
     536A     15.288167   537A     18.070266  

    Final Occupation by Irrep:
              A 
    DOCC [    49 ]

  @DF-RHF Final Energy: -1245.34533340539679

   => Energetics <=

    Nuclear Repulsion Energy =            820.6655311802128381
    One-Electron Energy =               -3406.5136406380656808
    Two-Electron Energy =                1340.5027760524560563
    Total Energy =                      -1245.3453334053967865

Computation Completed

*** tstop() called on node92.bme.utexas.edu at Fri Nov 13 15:10:05 2020
Module time:
	user time   =     210.43 seconds =       3.51 minutes
	system time =      22.04 seconds =       0.37 minutes
	total time  =         43 seconds =       0.72 minutes
Total time:
	user time   =     210.43 seconds =       3.51 minutes
	system time =      22.04 seconds =       0.37 minutes
	total time  =         43 seconds =       0.72 minutes
   => Loading Basis Set <=

    Name: (AUG-CC-PVTZ AUX)
    Role: RIFIT
    Keyword: DF_BASIS_MP2
    atoms 1-2   entry P          line   590 file /home/xy3866/psi4conda/share/psi4/basis/aug-cc-pvtz-ri.gbs 
    atoms 3-9   entry O          line   264 file /home/xy3866/psi4conda/share/psi4/basis/aug-cc-pvtz-ri.gbs 
    atoms 10    entry C          line   148 file /home/xy3866/psi4conda/share/psi4/basis/aug-cc-pvtz-ri.gbs 
    atoms 11-13 entry H          line    30 file /home/xy3866/psi4conda/share/psi4/basis/aug-cc-pvtz-ri.gbs 


*** tstart() called on node92.bme.utexas.edu
*** at Fri Nov 13 15:10:05 2020


  //>>>>>>>>>>>>>>>>>>>>>>>>>>>>>>>>>>>//
  //               DFMP2               //
  //<<<<<<<<<<<<<<<<<<<<<<<<<<<<<<<<<<<//

	 --------------------------------------------------------
	                          DF-MP2                         
	      2nd-Order Density-Fitted Moller-Plesset Theory     
	              RMP2 Wavefunction,   8 Threads             
	                                                         
	        Rob Parrish, Justin Turney, Andy Simmonett,      
	           Ed Hohenstein, and C. David Sherrill          
	 --------------------------------------------------------

   => Auxiliary Basis Set <=

  Basis Set: (AUG-CC-PVTZ AUX)
    Blend: AUG-CC-PVTZ-RI
    Number of shells: 340
    Number of basis function: 1280
    Number of Cartesian functions: 1635
    Spherical Harmonics?: true
    Max angular momentum: 4

	 --------------------------------------------------------
	                 NBF =   537, NAUX =  1280
	 --------------------------------------------------------
	   CLASS    FOCC     OCC    AOCC    AVIR     VIR    FVIR
	   PAIRS       0      49      49     488     488       0
	 --------------------------------------------------------

  DFHelper Memory: AOs need 2.608 GiB; user supplied 22.352 GiB. Using in-core AOs.


         ------------------------------------------------------------
                                     CPHF                           
                                  Rob Parrish                       
         ------------------------------------------------------------

  ==> Geometry <==

    Molecular point group: c1
    Full point group: C1

    Geometry (in Angstrom), charge = -3, multiplicity = 1:

       Center              X                  Y                   Z               Mass       
    ------------   -----------------  -----------------  -----------------  -----------------
         P            1.243189752914    -0.577508650389     0.008882906675    30.973761998420
         P           -1.784118247086     0.195824349611     0.003560906675    30.973761998420
         O            1.403188752914     1.046870849611    -0.360767193325    15.994914619570
         O           -0.338542247086    -0.799950650389    -0.195699093325    15.994914619570
         O            1.977418752914    -1.383456650389    -1.047930093325    15.994914619570
         O            1.666924752914    -0.752076650389     1.456144906675    15.994914619570
         O           -1.783171247086     1.122599349611    -1.218756093325    15.994914619570
         O           -1.606154247086     0.887300349611     1.363913906675    15.994914619570
         O           -2.846822247086    -0.910072650389    -0.029162093325    15.994914619570
         C            2.675939752914     1.596285349611    -0.008466093325    12.000000000000
         H            2.776347852914     1.639617049611     1.079252606675     1.007825032230
         H            3.498012752914     0.999920349611    -0.420430093325     1.007825032230
         H            2.725287752914     2.602781349611    -0.428535093325     1.007825032230

  Nuclear repulsion =  820.665531180212838
  Reference energy  = -1245.345333405396786

  ==> Basis Set <==

  Basis Set: AUG-CC-PVTZ
    Blend: AUG-CC-PVTZ
    Number of shells: 171
    Number of basis function: 537
    Number of Cartesian functions: 633
    Spherical Harmonics?: true
    Max angular momentum: 3

  ==> CGRSolver (by Rob Parrish) <==

   Number of roots    =         1
   Preconditioning    =    JACOBI
   Convergence cutoff =     1E-06
   Maximum iterations =       100

  ==> CPHFRHamiltonian (by Rob Parrish) <== 

  ==> MemDFJK: Density-Fitted J/K Matrices <==

    J tasked:                   Yes
    K tasked:                   Yes
    wK tasked:                   No
    OpenMP threads:               8
    Memory [MiB]:             22888
    Algorithm:                 Disk
    Schwarz Cutoff:           1E-12
    Mask sparsity (%):       7.0209
    Fitting Condition:        1E-10

   => Auxiliary Basis Set <=

  Basis Set: (AUG-CC-PVTZ AUX)
    Blend: AUG-CC-PVTZ-JKFIT
    Number of shells: 366
    Number of basis function: 1262
    Number of Cartesian functions: 1573
    Spherical Harmonics?: true
    Max angular momentum: 4

  ==> CPHF Iterations <==

  => Iterations <=

             Iter  Converged  Remaining    Residual
  CGR           1          0          1   7.988E-02
  CGR           2          0          1   1.813E-02
  CGR           3          0          1   6.894E-03
  CGR           4          0          1   2.311E-03
  CGR           5          0          1   8.381E-04
  CGR           6          0          1   2.232E-04
  CGR           7          0          1   5.793E-05
  CGR           8          0          1   2.144E-05
  CGR           9          0          1   7.839E-06
  CGR          10          0          1   2.097E-06
  CGR          11          1          0   7.349E-07

    CGRSolver converged.

	-----------------------------------------------------------
	 ==================> DF-MP2 Energies <==================== 
	-----------------------------------------------------------
	 Reference Energy          =   -1245.3453334053967865 [Eh]
	 Singles Energy            =      -0.0000000000000000 [Eh]
	 Same-Spin Energy          =      -0.6459924720660697 [Eh]
	 Opposite-Spin Energy      =      -1.8061993847753977 [Eh]
	 Correlation Energy        =      -2.4521918568414671 [Eh]
	 Total Energy              =   -1247.7975252622381959 [Eh]
	-----------------------------------------------------------
	 ================> DF-SCS-MP2 Energies <================== 
	-----------------------------------------------------------
	 SCS Same-Spin Scale       =       0.3333333333333333 [-]
	 SCS Opposite-Spin Scale   =       1.2000000000000000 [-]
	 SCS Same-Spin Energy      =      -0.2153308240220232 [Eh]
	 SCS Opposite-Spin Energy  =      -2.1674392617304772 [Eh]
	 SCS Correlation Energy    =      -2.3827700857525005 [Eh]
	 SCS Total Energy          =   -1247.7281034911493407 [Eh]
	-----------------------------------------------------------



Properties will be evaluated at  -0.000000,   0.000000,   0.000000 [a0]

Properties computed using the MP2 density matrix

  Nuclear Dipole Moment: [e a0]
     X:     8.9273      Y:     5.2619      Z:     0.2043

  Electronic Dipole Moment: [e a0]
     X:    -5.8095      Y:    -4.3373      Z:    -0.3968

  Dipole Moment: [e a0]
     X:     3.1177      Y:     0.9246      Z:    -0.1925     Total:     3.2576

  Dipole Moment: [D]
     X:     7.9245      Y:     2.3501      Z:    -0.4894     Total:     8.2801


*** tstop() called on node92.bme.utexas.edu at Fri Nov 13 15:11:55 2020
Module time:
	user time   =     672.17 seconds =      11.20 minutes
	system time =      25.41 seconds =       0.42 minutes
	total time  =        110 seconds =       1.83 minutes
Total time:
	user time   =     883.65 seconds =      14.73 minutes
	system time =      47.49 seconds =       0.79 minutes
	total time  =        153 seconds =       2.55 minutes

    Psi4 stopped on: Friday, 13 November 2020 03:11PM
    Psi4 wall time for execution: 0:02:32.62

*** Psi4 exiting successfully. Buy a developer a beer!
