
    -----------------------------------------------------------------------
          Psi4: An Open-Source Ab Initio Electronic Structure Package
                               Psi4 1.4a3.dev225 

                         Git: Rev {master} 7105e37 


    D. G. A. Smith, L. A. Burns, A. C. Simmonett, R. M. Parrish,
    M. C. Schieber, R. Galvelis, P. Kraus, H. Kruse, R. Di Remigio,
    A. Alenaizan, A. M. James, S. Lehtola, J. P. Misiewicz, M. Scheurer,
    R. A. Shaw, J. B. Schriber, Y. Xie, Z. L. Glick, D. A. Sirianni,
    J. S. O'Brien, J. M. Waldrop, A. Kumar, E. G. Hohenstein,
    B. P. Pritchard, B. R. Brooks, H. F. Schaefer III, A. Yu. Sokolov,
    K. Patkowski, A. E. DePrince III, U. Bozkaya, R. A. King,
    F. A. Evangelista, J. M. Turney, T. D. Crawford, C. D. Sherrill,
    J. Chem. Phys. 152(18) 184108 (2020). https://doi.org/10.1063/5.0006002

                            Additional Code Authors
    E. T. Seidl, C. L. Janssen, E. F. Valeev, M. L. Leininger,
    J. F. Gonthier, R. M. Richard, H. R. McAlexander, M. Saitow, X. Wang,
    P. Verma, and M. H. Lechner

             Previous Authors, Complete List of Code Contributors,
                       and Citations for Specific Modules
    https://github.com/psi4/psi4/blob/master/codemeta.json
    https://github.com/psi4/psi4/graphs/contributors
    http://psicode.org/psi4manual/master/introduction.html#citing-psifour

    -----------------------------------------------------------------------


    Psi4 started on: Friday, 19 March 2021 09:22PM

    Process ID: 234591
    Host:       c445-113.stampede2.tacc.utexas.edu
    PSIDATADIR: /home1/07844/xy3866/miniconda3/envs/p4env/share/psi4
    Memory:     500.0 MiB
    Threads:    32
    
  ==> Input File <==

--------------------------------------------------------------------------
#psi4
#
memory 32 gb

molecule  {
-3 1
  P       -1.1253500     0.3591720     0.0081310
  P        2.0878660    -0.1053470     0.0007630
  O       -2.1391380    -1.0979190    -0.1147190
  O        0.2405970    -0.4148950    -0.1339660
  O       -1.5628960     1.1822930    -1.2021870
  O       -1.4752280     0.9069340     1.3887990
  O        2.4271556    -0.8619670     1.2343309
  O        2.1989840     1.4211450     0.0869110
  O        2.5676630    -0.7478960    -1.3107960
  C       -3.4907010    -0.7724380    -0.0147870
  H       -3.7335280    -0.2943150     0.9495100
  H       -3.8114220    -0.0788120    -0.8111520
  H       -4.0969940    -1.6975630    -0.1019980
units angstrom
no_reorient  #important for SAPT in psi4, default
symmetry c1  #important for SAPT in psi4, default
}

set PROPERTIES_ORIGIN ["COM"]
properties('MP2/aug-cc-pvtz', properties = ['dipole'])
--------------------------------------------------------------------------

  Memory set to  29.802 GiB by Python driver.
    SCF Algorithm Type (re)set to DF.

*** tstart() called on c445-113.stampede2.tacc.utexas.edu
*** at Fri Mar 19 21:22:58 2021

   => Loading Basis Set <=

    Name: AUG-CC-PVTZ
    Role: ORBITAL
    Keyword: BASIS
    atoms 1-2   entry P          line   824 file /home1/07844/xy3866/miniconda3/envs/p4env/share/psi4/basis/aug-cc-pvtz.gbs 
    atoms 3-9   entry O          line   331 file /home1/07844/xy3866/miniconda3/envs/p4env/share/psi4/basis/aug-cc-pvtz.gbs 
    atoms 10    entry C          line   239 file /home1/07844/xy3866/miniconda3/envs/p4env/share/psi4/basis/aug-cc-pvtz.gbs 
    atoms 11-13 entry H          line    40 file /home1/07844/xy3866/miniconda3/envs/p4env/share/psi4/basis/aug-cc-pvtz.gbs 


         ---------------------------------------------------------
                                   SCF
               by Justin Turney, Rob Parrish, Andy Simmonett
                          and Daniel G. A. Smith
                              RHF Reference
                       32 Threads,  30517 MiB Core
         ---------------------------------------------------------

  ==> Geometry <==

    Molecular point group: c1
    Full point group: C1

    Geometry (in Angstrom), charge = -3, multiplicity = 1:

       Center              X                  Y                   Z               Mass       
    ------------   -----------------  -----------------  -----------------  -----------------
         P           -1.190419912892     0.344844804958     0.011788810521    30.973761998420
         P            2.022796087108    -0.119674195042     0.004420810521    30.973761998420
         O           -2.204207912892    -1.112246195042    -0.111061189479    15.994914619570
         O            0.175527087108    -0.429222195042    -0.130308189479    15.994914619570
         O           -1.627965912892     1.167965804958    -1.198529189479    15.994914619570
         O           -1.540297912892     0.892606804958     1.392456810521    15.994914619570
         O            2.362085687108    -0.876294195042     1.237988710521    15.994914619570
         O            2.133914087108     1.406817804958     0.090568810521    15.994914619570
         O            2.502593087108    -0.762223195042    -1.307138189479    15.994914619570
         C           -3.555770912892    -0.786765195042    -0.011129189479    12.000000000000
         H           -3.798597912892    -0.308642195042     0.953167810521     1.007825032230
         H           -3.876491912892    -0.093139195042    -0.807494189479     1.007825032230
         H           -4.162063912892    -1.711890195042    -0.098340189479     1.007825032230

  Running in c1 symmetry.

  Rotational constants: A =      0.07233  B =      0.01877  C =      0.01841 [cm^-1]
  Rotational constants: A =   2168.40933  B =    562.57364  C =    552.01750 [MHz]
  Nuclear repulsion =  799.228755249339088

  Charge       = -3
  Multiplicity = 1
  Electrons    = 98
  Nalpha       = 49
  Nbeta        = 49

  ==> Algorithm <==

  SCF Algorithm Type is DF.
  DIIS enabled.
  MOM disabled.
  Fractional occupation disabled.
  Guess Type is SAD.
  Energy threshold   = 1.00e-10
  Density threshold  = 1.00e-10
  Integral threshold = 1.00e-12

  ==> Primary Basis <==

  Basis Set: AUG-CC-PVTZ
    Blend: AUG-CC-PVTZ
    Number of shells: 171
    Number of basis functions: 537
    Number of Cartesian functions: 633
    Spherical Harmonics?: true
    Max angular momentum: 3

   => Loading Basis Set <=

    Name: (AUG-CC-PVTZ AUX)
    Role: JKFIT
    Keyword: DF_BASIS_SCF
    atoms 1-2   entry P          line   644 file /home1/07844/xy3866/miniconda3/envs/p4env/share/psi4/basis/aug-cc-pvtz-jkfit.gbs 
    atoms 3-9   entry O          line   286 file /home1/07844/xy3866/miniconda3/envs/p4env/share/psi4/basis/aug-cc-pvtz-jkfit.gbs 
    atoms 10    entry C          line   162 file /home1/07844/xy3866/miniconda3/envs/p4env/share/psi4/basis/aug-cc-pvtz-jkfit.gbs 
    atoms 11-13 entry H          line    70 file /home1/07844/xy3866/miniconda3/envs/p4env/share/psi4/basis/aug-cc-pvtz-jkfit.gbs 

  ==> Integral Setup <==

  DFHelper Memory: AOs need 2.452 GiB; user supplied 22.352 GiB. Using in-core AOs.

  ==> MemDFJK: Density-Fitted J/K Matrices <==

    J tasked:                   Yes
    K tasked:                   Yes
    wK tasked:                   No
    OpenMP threads:              32
    Memory [MiB]:             22888
    Algorithm:                 Core
    Schwarz Cutoff:           1E-12
    Mask sparsity (%):      14.6777
    Fitting Condition:        1E-10

   => Auxiliary Basis Set <=

  Basis Set: (AUG-CC-PVTZ AUX)
    Blend: AUG-CC-PVTZ-JKFIT
    Number of shells: 366
    Number of basis functions: 1262
    Number of Cartesian functions: 1573
    Spherical Harmonics?: true
    Max angular momentum: 4

  Minimum eigenvalue in the overlap matrix is 3.3092689609E-05.
  Reciprocal condition number of the overlap matrix is 2.5275242098E-06.
    Using symmetric orthogonalization.

  ==> Pre-Iterations <==

  SCF Guess: Superposition of Atomic Densities via on-the-fly atomic UHF (no occupation information).

   -------------------------
    Irrep   Nso     Nmo    
   -------------------------
     A        537     537 
   -------------------------
    Total     537     537
   -------------------------

  ==> Iterations <==

                           Total Energy        Delta E     RMS |[F,P]|

   @DF-RHF iter SAD: -1243.35870444643660   -1.24336e+03   0.00000e+00 
   @DF-RHF iter   1: -1244.78811149039461   -1.42941e+00   2.23016e-03 DIIS
   @DF-RHF iter   2: -1244.30410259619202    4.84009e-01   2.26838e-03 DIIS
   @DF-RHF iter   3: -1245.26529041425715   -9.61188e-01   7.39974e-04 DIIS
   @DF-RHF iter   4: -1245.32525366970253   -5.99633e-02   3.03389e-04 DIIS
   @DF-RHF iter   5: -1245.34054600769264   -1.52923e-02   1.06347e-04 DIIS
   @DF-RHF iter   6: -1245.34270516145148   -2.15915e-03   3.71413e-05 DIIS
   @DF-RHF iter   7: -1245.34308097866347   -3.75817e-04   1.17779e-05 DIIS
   @DF-RHF iter   8: -1245.34312097482552   -3.99962e-05   4.79598e-06 DIIS
   @DF-RHF iter   9: -1245.34312552855818   -4.55373e-06   1.39150e-06 DIIS
   @DF-RHF iter  10: -1245.34312606020785   -5.31650e-07   3.17682e-07 DIIS
   @DF-RHF iter  11: -1245.34312608994401   -2.97362e-08   1.05569e-07 DIIS
   @DF-RHF iter  12: -1245.34312609264316   -2.69915e-09   3.59443e-08 DIIS
   @DF-RHF iter  13: -1245.34312609299559   -3.52429e-10   1.12979e-08 DIIS
   @DF-RHF iter  14: -1245.34312609304266   -4.70664e-11   3.62859e-09 DIIS
   @DF-RHF iter  15: -1245.34312609305016   -7.50333e-12   1.38115e-09 DIIS
   @DF-RHF iter  16: -1245.34312609304834    1.81899e-12   4.81515e-10 DIIS
   @DF-RHF iter  17: -1245.34312609304743    9.09495e-13   1.65644e-10 DIIS
   @DF-RHF iter  18: -1245.34312609304993   -2.50111e-12   7.31396e-11 DIIS
  Energy and wave function converged.


  ==> Post-Iterations <==

    Orbital Energies [Eh]
    ---------------------

    Doubly Occupied:                                                      

       1A    -79.627300     2A    -79.575611     3A    -20.144400  
       4A    -20.085449     5A    -20.054513     6A    -20.054494  
       7A    -20.019889     8A    -20.017875     9A    -20.016880  
      10A    -10.910385    11A     -7.140226    12A     -7.090861  
      13A     -5.039685    14A     -5.037810    15A     -5.037016  
      16A     -4.990398    17A     -4.987876    18A     -4.987326  
      19A     -0.954707    20A     -0.886827    21A     -0.851355  
      22A     -0.816928    23A     -0.800193    24A     -0.770219  
      25A     -0.758798    26A     -0.541879    27A     -0.332385  
      28A     -0.266623    29A     -0.245353    30A     -0.210842  
      31A     -0.202753    32A     -0.156472    33A     -0.141663  
      34A     -0.116772    35A     -0.099097    36A     -0.098575  
      37A     -0.079329    38A     -0.052783    39A     -0.047948  
      40A     -0.028962    41A     -0.012800    42A     -0.004619  
      43A      0.001289    44A      0.004002    45A      0.008777  
      46A      0.022608    47A      0.044819    48A      0.048604  
      49A      0.072966  

    Virtual:                                                              

      50A      0.247320    51A      0.276831    52A      0.279620  
      53A      0.344647    54A      0.354975    55A      0.379535  
      56A      0.386156    57A      0.388875    58A      0.389838  
      59A      0.395680    60A      0.415634    61A      0.423884  
      62A      0.439310    63A      0.470535    64A      0.475352  
      65A      0.495101    66A      0.497476    67A      0.506925  
      68A      0.511883    69A      0.532436    70A      0.536037  
      71A      0.553570    72A      0.562064    73A      0.568320  
      74A      0.576272    75A      0.583326    76A      0.593110  
      77A      0.595057    78A      0.599310    79A      0.604600  
      80A      0.607572    81A      0.611331    82A      0.614025  
      83A      0.618089    84A      0.631508    85A      0.642035  
      86A      0.644603    87A      0.660013    88A      0.662807  
      89A      0.670146    90A      0.674938    91A      0.687283  
      92A      0.696469    93A      0.700901    94A      0.707689  
      95A      0.710659    96A      0.722709    97A      0.729393  
      98A      0.734629    99A      0.749536   100A      0.756822  
     101A      0.766306   102A      0.772535   103A      0.783108  
     104A      0.785853   105A      0.796715   106A      0.804704  
     107A      0.814010   108A      0.826774   109A      0.833859  
     110A      0.840818   111A      0.842939   112A      0.850668  
     113A      0.859607   114A      0.863359   115A      0.875569  
     116A      0.878087   117A      0.886852   118A      0.898244  
     119A      0.905106   120A      0.908392   121A      0.924303  
     122A      0.933935   123A      0.936272   124A      0.943849  
     125A      0.947099   126A      0.959892   127A      0.974066  
     128A      0.995531   129A      1.048105   130A      1.058107  
     131A      1.069090   132A      1.082875   133A      1.090275  
     134A      1.104430   135A      1.106856   136A      1.121222  
     137A      1.124849   138A      1.134968   139A      1.150643  
     140A      1.151484   141A      1.167688   142A      1.169666  
     143A      1.180416   144A      1.185668   145A      1.200922  
     146A      1.213661   147A      1.221954   148A      1.230739  
     149A      1.235630   150A      1.240111   151A      1.245963  
     152A      1.256785   153A      1.264179   154A      1.265630  
     155A      1.270761   156A      1.275999   157A      1.278535  
     158A      1.284735   159A      1.285562   160A      1.305275  
     161A      1.316175   162A      1.318280   163A      1.329261  
     164A      1.332021   165A      1.337335   166A      1.347509  
     167A      1.355651   168A      1.373265   169A      1.376487  
     170A      1.381512   171A      1.387159   172A      1.394433  
     173A      1.400264   174A      1.403247   175A      1.409849  
     176A      1.417087   177A      1.428905   178A      1.429995  
     179A      1.434576   180A      1.437301   181A      1.450990  
     182A      1.456177   183A      1.460131   184A      1.472362  
     185A      1.479924   186A      1.489279   187A      1.493785  
     188A      1.498971   189A      1.516066   190A      1.521388  
     191A      1.530146   192A      1.546089   193A      1.552189  
     194A      1.555894   195A      1.571761   196A      1.577625  
     197A      1.591558   198A      1.601257   199A      1.607494  
     200A      1.618562   201A      1.636528   202A      1.647682  
     203A      1.656660   204A      1.661692   205A      1.666593  
     206A      1.686980   207A      1.691753   208A      1.694177  
     209A      1.716853   210A      1.722820   211A      1.730323  
     212A      1.747269   213A      1.763813   214A      1.771881  
     215A      1.785102   216A      1.805986   217A      1.814540  
     218A      1.833979   219A      1.868061   220A      1.906355  
     221A      1.912506   222A      1.921991   223A      1.933024  
     224A      1.942928   225A      1.958664   226A      1.967433  
     227A      1.974963   228A      1.981448   229A      1.984142  
     230A      2.002324   231A      2.010720   232A      2.020917  
     233A      2.034243   234A      2.040848   235A      2.054412  
     236A      2.063096   237A      2.083754   238A      2.089297  
     239A      2.098287   240A      2.115299   241A      2.124118  
     242A      2.143237   243A      2.156366   244A      2.166481  
     245A      2.196155   246A      2.210722   247A      2.218749  
     248A      2.231589   249A      2.251452   250A      2.281400  
     251A      2.288068   252A      2.298862   253A      2.360632  
     254A      2.367557   255A      2.378983   256A      2.385579  
     257A      2.393479   258A      2.413562   259A      2.420509  
     260A      2.425742   261A      2.436841   262A      2.444036  
     263A      2.445977   264A      2.455041   265A      2.468716  
     266A      2.484230   267A      2.496174   268A      2.515202  
     269A      2.519647   270A      2.534193   271A      2.538019  
     272A      2.556045   273A      2.566425   274A      2.572972  
     275A      2.583403   276A      2.603392   277A      2.614373  
     278A      2.638797   279A      2.650275   280A      2.651347  
     281A      2.659024   282A      2.680781   283A      2.683604  
     284A      2.695852   285A      2.710870   286A      2.719626  
     287A      2.734206   288A      2.738342   289A      2.743647  
     290A      2.750262   291A      2.773658   292A      2.790270  
     293A      2.800489   294A      2.807344   295A      2.813235  
     296A      2.822417   297A      2.839436   298A      2.842956  
     299A      2.854878   300A      2.869834   301A      2.895823  
     302A      2.898446   303A      2.921609   304A      2.926827  
     305A      2.944712   306A      2.949490   307A      2.959500  
     308A      2.961835   309A      2.963828   310A      2.974465  
     311A      2.988871   312A      3.004598   313A      3.005928  
     314A      3.016476   315A      3.029078   316A      3.033959  
     317A      3.051137   318A      3.057119   319A      3.064899  
     320A      3.076425   321A      3.085823   322A      3.093174  
     323A      3.112995   324A      3.122505   325A      3.133279  
     326A      3.151663   327A      3.163030   328A      3.173287  
     329A      3.185691   330A      3.195826   331A      3.199661  
     332A      3.217133   333A      3.230959   334A      3.252699  
     335A      3.306116   336A      3.313864   337A      3.342938  
     338A      3.344718   339A      3.361321   340A      3.369779  
     341A      3.377904   342A      3.392583   343A      3.411909  
     344A      3.437706   345A      3.464101   346A      3.477579  
     347A      3.499331   348A      3.518535   349A      3.533233  
     350A      3.554341   351A      3.574082   352A      3.606662  
     353A      3.638051   354A      3.663244   355A      3.671912  
     356A      3.725349   357A      3.733697   358A      3.741834  
     359A      3.761148   360A      3.787292   361A      3.789892  
     362A      3.795300   363A      3.804230   364A      3.841492  
     365A      3.869686   366A      3.872575   367A      3.882546  
     368A      3.912221   369A      3.928414   370A      3.944635  
     371A      3.986833   372A      3.997229   373A      4.005259  
     374A      4.041449   375A      4.046306   376A      4.068982  
     377A      4.086834   378A      4.110609   379A      4.122026  
     380A      4.146289   381A      4.160233   382A      4.217131  
     383A      4.240043   384A      4.245679   385A      4.276499  
     386A      4.300333   387A      4.317111   388A      4.344111  
     389A      4.373376   390A      4.384033   391A      4.400542  
     392A      4.449522   393A      4.472093   394A      4.544821  
     395A      4.547781   396A      4.568735   397A      4.618187  
     398A      4.632274   399A      4.671648   400A      4.800365  
     401A      4.840754   402A      4.922981   403A      4.971840  
     404A      5.009901   405A      5.085493   406A      5.089527  
     407A      5.115674   408A      5.137740   409A      5.148028  
     410A      5.159851   411A      5.199263   412A      5.206973  
     413A      5.258675   414A      5.273591   415A      5.296174  
     416A      5.322872   417A      5.350985   418A      5.386028  
     419A      5.414319   420A      5.436087   421A      5.445716  
     422A      5.527569   423A      5.557103   424A      5.587620  
     425A      5.687066   426A      5.755591   427A      5.789155  
     428A      5.885205   429A      5.906406   430A      5.932840  
     431A      5.963368   432A      5.992271   433A      6.067573  
     434A      6.075240   435A      6.091759   436A      6.129601  
     437A      6.202425   438A      6.287573   439A      6.433117  
     440A      6.486102   441A      6.752222   442A      7.029293  
     443A      7.045575   444A      7.122525   445A      7.129463  
     446A      7.137467   447A      7.145523   448A      7.151519  
     449A      7.159150   450A      7.176095   451A      7.178127  
     452A      7.185984   453A      7.192535   454A      7.217230  
     455A      7.229884   456A      7.234824   457A      7.255971  
     458A      7.271373   459A      7.283284   460A      7.297296  
     461A      7.303569   462A      7.321064   463A      7.325152  
     464A      7.336748   465A      7.339223   466A      7.348878  
     467A      7.355231   468A      7.366072   469A      7.367849  
     470A      7.379233   471A      7.387350   472A      7.390745  
     473A      7.399278   474A      7.404373   475A      7.415017  
     476A      7.423750   477A      7.438518   478A      7.451167  
     479A      7.468883   480A      7.483220   481A      7.487691  
     482A      7.500264   483A      7.516831   484A      7.525093  
     485A      7.532380   486A      7.537975   487A      7.580808  
     488A      7.604731   489A      7.636819   490A      7.664776  
     491A      7.681609   492A      7.712165   493A      7.718184  
     494A      7.723680   495A      7.736415   496A      7.742260  
     497A      7.754061   498A      7.763903   499A      7.773461  
     500A      7.780091   501A      7.788522   502A      7.805344  
     503A      7.826561   504A      7.834705   505A      7.852514  
     506A      7.890372   507A      7.933175   508A      8.006441  
     509A      8.028024   510A      8.065778   511A      8.073016  
     512A      8.085452   513A      8.095655   514A      8.105539  
     515A      8.120623   516A      8.128245   517A      8.133792  
     518A      8.149313   519A      8.196598   520A      8.226915  
     521A      8.237479   522A      8.244226   523A      8.284559  
     524A      8.311096   525A      8.374552   526A      8.470656  
     527A      8.552613   528A     10.399964   529A     11.014350  
     530A     12.433312   531A     12.572524   532A     12.720953  
     533A     13.263294   534A     13.618001   535A     14.386350  
     536A     15.207768   537A     17.903007  

    Final Occupation by Irrep:
              A 
    DOCC [    49 ]

  @DF-RHF Final Energy: -1245.34312609304993

   => Energetics <=

    Nuclear Repulsion Energy =            799.2287552493390876
    One-Electron Energy =               -3362.9581402231151515
    Two-Electron Energy =                1318.3862588807262455
    Total Energy =                      -1245.3431260930499320

Computation Completed

*** tstop() called on c445-113.stampede2.tacc.utexas.edu at Fri Mar 19 21:23:30 2021
Module time:
	user time   =     498.28 seconds =       8.30 minutes
	system time =      41.23 seconds =       0.69 minutes
	total time  =         32 seconds =       0.53 minutes
Total time:
	user time   =     498.28 seconds =       8.30 minutes
	system time =      41.23 seconds =       0.69 minutes
	total time  =         32 seconds =       0.53 minutes
   => Loading Basis Set <=

    Name: (AUG-CC-PVTZ AUX)
    Role: RIFIT
    Keyword: DF_BASIS_MP2
    atoms 1-2   entry P          line   590 file /home1/07844/xy3866/miniconda3/envs/p4env/share/psi4/basis/aug-cc-pvtz-ri.gbs 
    atoms 3-9   entry O          line   264 file /home1/07844/xy3866/miniconda3/envs/p4env/share/psi4/basis/aug-cc-pvtz-ri.gbs 
    atoms 10    entry C          line   148 file /home1/07844/xy3866/miniconda3/envs/p4env/share/psi4/basis/aug-cc-pvtz-ri.gbs 
    atoms 11-13 entry H          line    30 file /home1/07844/xy3866/miniconda3/envs/p4env/share/psi4/basis/aug-cc-pvtz-ri.gbs 


*** tstart() called on c445-113.stampede2.tacc.utexas.edu
*** at Fri Mar 19 21:23:31 2021


  //>>>>>>>>>>>>>>>>>>>>>>>>>>>>>>>>>>>//
  //               DFMP2               //
  //<<<<<<<<<<<<<<<<<<<<<<<<<<<<<<<<<<<//

	 --------------------------------------------------------
	                          DF-MP2                         
	      2nd-Order Density-Fitted Moller-Plesset Theory     
	              RMP2 Wavefunction,  32 Threads             
	                                                         
	        Rob Parrish, Justin Turney, Andy Simmonett,      
	           Ed Hohenstein, and C. David Sherrill          
	 --------------------------------------------------------

   => Auxiliary Basis Set <=

  Basis Set: (AUG-CC-PVTZ AUX)
    Blend: AUG-CC-PVTZ-RI
    Number of shells: 340
    Number of basis functions: 1280
    Number of Cartesian functions: 1635
    Spherical Harmonics?: true
    Max angular momentum: 4

	 --------------------------------------------------------
	                 NBF =   537, NAUX =  1280
	 --------------------------------------------------------
	   CLASS    FOCC     OCC    AOCC    AVIR     VIR    FVIR
	   PAIRS       0      49      49     488     488       0
	 --------------------------------------------------------

  DFHelper Memory: AOs need 2.587 GiB; user supplied 22.352 GiB. Using in-core AOs.


         ------------------------------------------------------------
                                     CPHF                           
                                  Rob Parrish                       
         ------------------------------------------------------------

  ==> Geometry <==

    Molecular point group: c1
    Full point group: C1

    Geometry (in Angstrom), charge = -3, multiplicity = 1:

       Center              X                  Y                   Z               Mass       
    ------------   -----------------  -----------------  -----------------  -----------------
         P           -1.190419912892     0.344844804958     0.011788810521    30.973761998420
         P            2.022796087108    -0.119674195042     0.004420810521    30.973761998420
         O           -2.204207912892    -1.112246195042    -0.111061189479    15.994914619570
         O            0.175527087108    -0.429222195042    -0.130308189479    15.994914619570
         O           -1.627965912892     1.167965804958    -1.198529189479    15.994914619570
         O           -1.540297912892     0.892606804958     1.392456810521    15.994914619570
         O            2.362085687108    -0.876294195042     1.237988710521    15.994914619570
         O            2.133914087108     1.406817804958     0.090568810521    15.994914619570
         O            2.502593087108    -0.762223195042    -1.307138189479    15.994914619570
         C           -3.555770912892    -0.786765195042    -0.011129189479    12.000000000000
         H           -3.798597912892    -0.308642195042     0.953167810521     1.007825032230
         H           -3.876491912892    -0.093139195042    -0.807494189479     1.007825032230
         H           -4.162063912892    -1.711890195042    -0.098340189479     1.007825032230

  Nuclear repulsion =  799.228755249339088
  Reference energy  = -1245.343126093049932

  ==> Basis Set <==

  Basis Set: AUG-CC-PVTZ
    Blend: AUG-CC-PVTZ
    Number of shells: 171
    Number of basis functions: 537
    Number of Cartesian functions: 633
    Spherical Harmonics?: true
    Max angular momentum: 3

  ==> CGRSolver (by Rob Parrish) <==

   Number of roots    =         1
   Preconditioning    =    JACOBI
   Convergence cutoff =     1E-06
   Maximum iterations =       100

  ==> CPHFRHamiltonian (by Rob Parrish) <== 

  ==> MemDFJK: Density-Fitted J/K Matrices <==

    J tasked:                   Yes
    K tasked:                   Yes
    wK tasked:                   No
    OpenMP threads:              32
    Memory [MiB]:             22888
    Algorithm:                 Core
    Schwarz Cutoff:           1E-12
    Mask sparsity (%):       9.6862
    Fitting Condition:        1E-10

   => Auxiliary Basis Set <=

  Basis Set: (AUG-CC-PVTZ AUX)
    Blend: AUG-CC-PVTZ-JKFIT
    Number of shells: 366
    Number of basis functions: 1262
    Number of Cartesian functions: 1573
    Spherical Harmonics?: true
    Max angular momentum: 4

  ==> CPHF Iterations <==

  => Iterations <=

             Iter  Converged  Remaining    Residual
  CGR           1          0          1   8.104E-02
  CGR           2          0          1   1.847E-02
  CGR           3          0          1   7.211E-03
  CGR           4          0          1   2.467E-03
  CGR           5          0          1   9.191E-04
  CGR           6          0          1   2.324E-04
  CGR           7          0          1   6.076E-05
  CGR           8          0          1   2.537E-05
  CGR           9          0          1   8.503E-06
  CGR          10          0          1   2.675E-06
  CGR          11          1          0   6.860E-07

    CGRSolver converged.

	-----------------------------------------------------------
	 ==================> DF-MP2 Energies <==================== 
	-----------------------------------------------------------
	 Reference Energy          =   -1245.3431260930499320 [Eh]
	 Singles Energy            =      -0.0000000000000000 [Eh]
	 Same-Spin Energy          =      -0.6465502558434806 [Eh]
	 Opposite-Spin Energy      =      -1.8077391725283847 [Eh]
	 Correlation Energy        =      -2.4542894283718653 [Eh]
	 Total Energy              =   -1247.7974155214217262 [Eh]
	-----------------------------------------------------------
	 ================> DF-SCS-MP2 Energies <================== 
	-----------------------------------------------------------
	 SCS Same-Spin Scale       =       0.3333333333333333 [-]
	 SCS Opposite-Spin Scale   =       1.2000000000000000 [-]
	 SCS Same-Spin Energy      =      -0.2155167519478269 [Eh]
	 SCS Opposite-Spin Energy  =      -2.1692870070340615 [Eh]
	 SCS Correlation Energy    =      -2.3848037589818882 [Eh]
	 SCS Total Energy          =   -1247.7279298520318207 [Eh]
	-----------------------------------------------------------



Properties will be evaluated at  -0.000000,  -0.000000,   0.000000 [a0]

Properties computed using the MP2 density matrix

  Nuclear Dipole Moment: [e a0]
     X:   -11.8542      Y:    -2.1873      Z:     0.0293

  Electronic Dipole Moment: [e a0]
     X:     8.8769      Y:     1.4004      Z:     0.0193

  Dipole Moment: [e a0]
     X:    -2.9772      Y:    -0.7869      Z:     0.0486     Total:     3.0798

  Dipole Moment: [D]
     X:    -7.5674      Y:    -2.0001      Z:     0.1235     Total:     7.8282


*** tstop() called on c445-113.stampede2.tacc.utexas.edu at Fri Mar 19 21:28:03 2021
Module time:
	user time   =    1472.86 seconds =      24.55 minutes
	system time =      39.14 seconds =       0.65 minutes
	total time  =        272 seconds =       4.53 minutes
Total time:
	user time   =    1971.82 seconds =      32.86 minutes
	system time =      80.38 seconds =       1.34 minutes
	total time  =        305 seconds =       5.08 minutes

    Psi4 stopped on: Friday, 19 March 2021 09:28PM
    Psi4 wall time for execution: 0:05:06.05

*** Psi4 exiting successfully. Buy a developer a beer!
