
    -----------------------------------------------------------------------
          Psi4: An Open-Source Ab Initio Electronic Structure Package
                               Psi4 1.4a2.dev612 

                         Git: Rev {master} 58d3bc0 


    D. G. A. Smith, L. A. Burns, A. C. Simmonett, R. M. Parrish,
    M. C. Schieber, R. Galvelis, P. Kraus, H. Kruse, R. Di Remigio,
    A. Alenaizan, A. M. James, S. Lehtola, J. P. Misiewicz, M. Scheurer,
    R. A. Shaw, J. B. Schriber, Y. Xie, Z. L. Glick, D. A. Sirianni,
    J. S. O'Brien, J. M. Waldrop, A. Kumar, E. G. Hohenstein,
    B. P. Pritchard, B. R. Brooks, H. F. Schaefer III, A. Yu. Sokolov,
    K. Patkowski, A. E. DePrince III, U. Bozkaya, R. A. King,
    F. A. Evangelista, J. M. Turney, T. D. Crawford, C. D. Sherrill,
    J. Chem. Phys. 152(18) 184108 (2020). https://doi.org/10.1063/5.0006002

                            Additional Code Authors
    E. T. Seidl, C. L. Janssen, E. F. Valeev, M. L. Leininger,
    J. F. Gonthier, R. M. Richard, H. R. McAlexander, M. Saitow, X. Wang,
    P. Verma, and M. H. Lechner

             Previous Authors, Complete List of Code Contributors,
                       and Citations for Specific Modules
    https://github.com/psi4/psi4/blob/master/codemeta.json
    https://github.com/psi4/psi4/graphs/contributors
    http://psicode.org/psi4manual/master/introduction.html#citing-psifour

    -----------------------------------------------------------------------


    Psi4 started on: Monday, 09 November 2020 02:02PM

    Process ID: 6075
    Host:       node142.bme.utexas.edu
    PSIDATADIR: /home/xy3866/.conda/envs/test-rdkit/share/psi4
    Memory:     500.0 MiB
    Threads:    8
    
  ==> Input File <==

--------------------------------------------------------------------------
#psi4
#
memory 32 gb

molecule  {
-1 1
  O        0.5632720    -1.1719080    -0.3765930
  O       -2.2370500    -0.5589400     1.0879600
  O       -2.5032960     0.1554020    -1.0563790
  C        1.9927080     0.6815170     0.1510220
  C        0.6435570     0.0091630    -0.0366810
  C       -0.4250743     0.6426906     0.0701255
  C        3.1729130    -0.2631210    -0.0329300
  C       -1.9010600     0.0931950     0.0560670
  H        2.0429660     1.5133360    -0.5640360
  H        2.0060190     1.1470430     1.1438410
  H       -0.4967450     1.3515110     1.1569670
  H       -0.5352790     1.6874700    -0.5756840
  H        3.1399490    -1.0742180     0.6982180
  H        3.1613950    -0.7098910    -1.0291440
  H        4.1160350     0.2752530     0.0934100
units angstrom
no_reorient  #important for SAPT in psi4, default
symmetry c1  #important for SAPT in psi4, default
}

set PROPERTIES_ORIGIN ["COM"]
properties('MP2/aug-cc-pvtz', properties = ['dipole'])
--------------------------------------------------------------------------

  Memory set to  29.802 GiB by Python driver.
    SCF Algorithm Type (re)set to DF.

*** tstart() called on node142.bme.utexas.edu
*** at Mon Nov  9 14:02:34 2020

   => Loading Basis Set <=

    Name: AUG-CC-PVTZ
    Role: ORBITAL
    Keyword: BASIS
    atoms 1-3  entry O          line   331 file /home/xy3866/.conda/envs/test-rdkit/share/psi4/basis/aug-cc-pvtz.gbs 
    atoms 4-8  entry C          line   239 file /home/xy3866/.conda/envs/test-rdkit/share/psi4/basis/aug-cc-pvtz.gbs 
    atoms 9-15 entry H          line    40 file /home/xy3866/.conda/envs/test-rdkit/share/psi4/basis/aug-cc-pvtz.gbs 


         ---------------------------------------------------------
                                   SCF
               by Justin Turney, Rob Parrish, Andy Simmonett
                          and Daniel G. A. Smith
                              RHF Reference
                        8 Threads,  30517 MiB Core
         ---------------------------------------------------------

  ==> Geometry <==

    Molecular point group: c1
    Full point group: C1

    Geometry (in Angstrom), charge = -1, multiplicity = 1:

       Center              X                  Y                   Z               Mass       
    ------------   -----------------  -----------------  -----------------  -----------------
         O            0.663028618747    -1.110933351595    -0.358369727522    15.994914619570
         O           -2.137293381253    -0.497965351595     1.106183272478    15.994914619570
         O           -2.403539381253     0.216376648405    -1.038155727522    15.994914619570
         C            2.092464618747     0.742491648405     0.169245272478    12.000000000000
         C            0.743313618747     0.070137648405    -0.018457727522    12.000000000000
         C           -0.325317681253     0.703665248405     0.088348772478    12.000000000000
         C            3.272669618747    -0.202146351595    -0.014706727522    12.000000000000
         C           -1.801303381253     0.154169648405     0.074290272478    12.000000000000
         H            2.142722618747     1.574310648405    -0.545812727522     1.007825032230
         H            2.105775618747     1.208017648405     1.162064272478     1.007825032230
         H           -0.396988381253     1.412485648405     1.175190272478     1.007825032230
         H           -0.435522381253     1.748444648405    -0.557460727522     1.007825032230
         H            3.239705618747    -1.013243351595     0.716441272478     1.007825032230
         H            3.261151618747    -0.648916351595    -1.010920727522     1.007825032230
         H            4.215791618747     0.336227648405     0.111633272478     1.007825032230

  Running in c1 symmetry.

  Rotational constants: A =      0.18173  B =      0.03425  C =      0.03381 [cm^-1]
  Rotational constants: A =   5448.10294  B =   1026.63982  C =   1013.49935 [MHz]
  Nuclear repulsion =  360.675978267476694

  Charge       = -1
  Multiplicity = 1
  Electrons    = 62
  Nalpha       = 31
  Nbeta        = 31

  ==> Algorithm <==

  SCF Algorithm Type is DF.
  DIIS enabled.
  MOM disabled.
  Fractional occupation disabled.
  Guess Type is SAD.
  Energy threshold   = 1.00e-10
  Density threshold  = 1.00e-10
  Integral threshold = 0.00e+00

  ==> Primary Basis <==

  Basis Set: AUG-CC-PVTZ
    Blend: AUG-CC-PVTZ
    Number of shells: 175
    Number of basis function: 529
    Number of Cartesian functions: 615
    Spherical Harmonics?: true
    Max angular momentum: 3

   => Loading Basis Set <=

    Name: (AUG-CC-PVTZ AUX)
    Role: JKFIT
    Keyword: DF_BASIS_SCF
    atoms 1-3  entry O          line   286 file /home/xy3866/.conda/envs/test-rdkit/share/psi4/basis/aug-cc-pvtz-jkfit.gbs 
    atoms 4-8  entry C          line   162 file /home/xy3866/.conda/envs/test-rdkit/share/psi4/basis/aug-cc-pvtz-jkfit.gbs 
    atoms 9-15 entry H          line    70 file /home/xy3866/.conda/envs/test-rdkit/share/psi4/basis/aug-cc-pvtz-jkfit.gbs 

  ==> Integral Setup <==

  DFHelper Memory: AOs need 2.357 GiB; user supplied 22.352 GiB. Using in-core AOs.

  ==> MemDFJK: Density-Fitted J/K Matrices <==

    J tasked:                   Yes
    K tasked:                   Yes
    wK tasked:                   No
    OpenMP threads:               8
    Memory [MiB]:             22888
    Algorithm:                 Core
    Schwarz Cutoff:           1E-12
    Mask sparsity (%):       5.4781
    Fitting Condition:        1E-10

   => Auxiliary Basis Set <=

  Basis Set: (AUG-CC-PVTZ AUX)
    Blend: AUG-CC-PVTZ-JKFIT
    Number of shells: 338
    Number of basis function: 1154
    Number of Cartesian functions: 1433
    Spherical Harmonics?: true
    Max angular momentum: 4

  Minimum eigenvalue in the overlap matrix is 3.5927674378E-06.
  Reciprocal condition number of the overlap matrix is 2.0465401868E-07.
    Using symmetric orthogonalization.

  ==> Pre-Iterations <==

  SCF Guess: Superposition of Atomic Densities via on-the-fly atomic UHF (no occupation information).

   -------------------------
    Irrep   Nso     Nmo    
   -------------------------
     A        529     529 
   -------------------------
    Total     529     529
   -------------------------

  ==> Iterations <==

                           Total Energy        Delta E     RMS |[F,P]|

   @DF-RHF iter SAD:  -416.89568224933601   -4.16896e+02   0.00000e+00 
   @DF-RHF iter   1:  -417.67732516001627   -7.81643e-01   1.71158e-03 DIIS
   @DF-RHF iter   2:  -417.94599432040155   -2.68669e-01   1.18460e-03 DIIS
   @DF-RHF iter   3:  -418.08546970473969   -1.39475e-01   1.68545e-04 DIIS
   @DF-RHF iter   4:  -418.09064593090761   -5.17623e-03   8.41026e-05 DIIS
   @DF-RHF iter   5:  -418.09193682071901   -1.29089e-03   1.98387e-05 DIIS
   @DF-RHF iter   6:  -418.09205191545539   -1.15095e-04   9.51786e-06 DIIS
   @DF-RHF iter   7:  -418.09207655409847   -2.46386e-05   3.40596e-06 DIIS
   @DF-RHF iter   8:  -418.09208146254110   -4.90844e-06   1.67460e-06 DIIS
   @DF-RHF iter   9:  -418.09208250117757   -1.03864e-06   5.42261e-07 DIIS
   @DF-RHF iter  10:  -418.09208260798550   -1.06808e-07   1.30612e-07 DIIS
   @DF-RHF iter  11:  -418.09208261450834   -6.52284e-09   3.93687e-08 DIIS
   @DF-RHF iter  12:  -418.09208261499271   -4.84363e-10   1.32149e-08 DIIS
   @DF-RHF iter  13:  -418.09208261504898   -5.62750e-11   5.62894e-09 DIIS
   @DF-RHF iter  14:  -418.09208261505682   -7.84439e-12   2.43569e-09 DIIS
   @DF-RHF iter  15:  -418.09208261506041   -3.58114e-12   1.08818e-09 DIIS
   @DF-RHF iter  16:  -418.09208261506035    5.68434e-14   5.67472e-10 DIIS
   @DF-RHF iter  17:  -418.09208261505955    7.95808e-13   2.46366e-10 DIIS
   @DF-RHF iter  18:  -418.09208261506160   -2.04636e-12   8.92785e-11 DIIS
  Energy and wave function converged.


  ==> Post-Iterations <==

    Orbital Energies [Eh]
    ---------------------

    Doubly Occupied:                                                      

       1A    -20.395903     2A    -20.304397     3A    -20.301745  
       4A    -11.175099     5A    -11.158396     6A    -11.127056  
       7A    -11.118092     8A    -11.096253     9A     -1.243519  
      10A     -1.169825    11A     -1.070755    12A     -0.958495  
      13A     -0.905461    14A     -0.762129    15A     -0.631610  
      16A     -0.554607    17A     -0.528689    18A     -0.524912  
      19A     -0.469064    20A     -0.445821    21A     -0.441635  
      22A     -0.410003    23A     -0.401834    24A     -0.390891  
      25A     -0.376147    26A     -0.342374    27A     -0.297432  
      28A     -0.287612    29A     -0.214018    30A     -0.209625  
      31A     -0.197506  

    Virtual:                                                              

      32A      0.095650    33A      0.114434    34A      0.118486  
      35A      0.127241    36A      0.135161    37A      0.142182  
      38A      0.155651    39A      0.176244    40A      0.186442  
      41A      0.197221    42A      0.201716    43A      0.210409  
      44A      0.213197    45A      0.221689    46A      0.227541  
      47A      0.228854    48A      0.231904    49A      0.240699  
      50A      0.246946    51A      0.256571    52A      0.258857  
      53A      0.266577    54A      0.286400    55A      0.288992  
      56A      0.294019    57A      0.320605    58A      0.323531  
      59A      0.331218    60A      0.331289    61A      0.340620  
      62A      0.348866    63A      0.353256    64A      0.370986  
      65A      0.375239    66A      0.376029    67A      0.384053  
      68A      0.388119    69A      0.391651    70A      0.397068  
      71A      0.405242    72A      0.413404    73A      0.423067  
      74A      0.431219    75A      0.432679    76A      0.437212  
      77A      0.441814    78A      0.444847    79A      0.450706  
      80A      0.454094    81A      0.463671    82A      0.469738  
      83A      0.476649    84A      0.480002    85A      0.495228  
      86A      0.506451    87A      0.513820    88A      0.515444  
      89A      0.522124    90A      0.523488    91A      0.528394  
      92A      0.536762    93A      0.543924    94A      0.554069  
      95A      0.559308    96A      0.560086    97A      0.569242  
      98A      0.575112    99A      0.579075   100A      0.583388  
     101A      0.589306   102A      0.601967   103A      0.608868  
     104A      0.611435   105A      0.621096   106A      0.624629  
     107A      0.627192   108A      0.638802   109A      0.651176  
     110A      0.658480   111A      0.662846   112A      0.669671  
     113A      0.682928   114A      0.700617   115A      0.710902  
     116A      0.714669   117A      0.721819   118A      0.732757  
     119A      0.735393   120A      0.744219   121A      0.759800  
     122A      0.766834   123A      0.781259   124A      0.792630  
     125A      0.801926   126A      0.816665   127A      0.831642  
     128A      0.843113   129A      0.849363   130A      0.864073  
     131A      0.876779   132A      0.883387   133A      0.893356  
     134A      0.896199   135A      0.897432   136A      0.918659  
     137A      0.928567   138A      0.934755   139A      0.941819  
     140A      0.947711   141A      0.948845   142A      0.962818  
     143A      0.967456   144A      0.980622   145A      0.988639  
     146A      0.998507   147A      1.002833   148A      1.006861  
     149A      1.012124   150A      1.020121   151A      1.025374  
     152A      1.027758   153A      1.037182   154A      1.044548  
     155A      1.052708   156A      1.057118   157A      1.060811  
     158A      1.073596   159A      1.076320   160A      1.081681  
     161A      1.089506   162A      1.102585   163A      1.118803  
     164A      1.130182   165A      1.135857   166A      1.141328  
     167A      1.142604   168A      1.153979   169A      1.165435  
     170A      1.178009   171A      1.180226   172A      1.184181  
     173A      1.200980   174A      1.210400   175A      1.215796  
     176A      1.226785   177A      1.230279   178A      1.242522  
     179A      1.245756   180A      1.252652   181A      1.257150  
     182A      1.267664   183A      1.284540   184A      1.288591  
     185A      1.289587   186A      1.294498   187A      1.302408  
     188A      1.308947   189A      1.316226   190A      1.328826  
     191A      1.334733   192A      1.343545   193A      1.365135  
     194A      1.371024   195A      1.376560   196A      1.381612  
     197A      1.390808   198A      1.397159   199A      1.411010  
     200A      1.423033   201A      1.442603   202A      1.445929  
     203A      1.456744   204A      1.471629   205A      1.480920  
     206A      1.495987   207A      1.511115   208A      1.521541  
     209A      1.542180   210A      1.553228   211A      1.568940  
     212A      1.579876   213A      1.593092   214A      1.601640  
     215A      1.612621   216A      1.618033   217A      1.624604  
     218A      1.630829   219A      1.654225   220A      1.662327  
     221A      1.670959   222A      1.677648   223A      1.681521  
     224A      1.689007   225A      1.705967   226A      1.721938  
     227A      1.726835   228A      1.731314   229A      1.745052  
     230A      1.759782   231A      1.769709   232A      1.779820  
     233A      1.784611   234A      1.793594   235A      1.796986  
     236A      1.808145   237A      1.811678   238A      1.822603  
     239A      1.831756   240A      1.843498   241A      1.848775  
     242A      1.857713   243A      1.865122   244A      1.885538  
     245A      1.902426   246A      1.910114   247A      1.928935  
     248A      1.936467   249A      1.947384   250A      1.954161  
     251A      1.957615   252A      1.977300   253A      1.990140  
     254A      2.006411   255A      2.019227   256A      2.023678  
     257A      2.041763   258A      2.054020   259A      2.059797  
     260A      2.067706   261A      2.087326   262A      2.089652  
     263A      2.107219   264A      2.125959   265A      2.135770  
     266A      2.151162   267A      2.157857   268A      2.190107  
     269A      2.196124   270A      2.225275   271A      2.238779  
     272A      2.259906   273A      2.264419   274A      2.291542  
     275A      2.317202   276A      2.337827   277A      2.341038  
     278A      2.349248   279A      2.355743   280A      2.368176  
     281A      2.375373   282A      2.396836   283A      2.407713  
     284A      2.426650   285A      2.435194   286A      2.465482  
     287A      2.479996   288A      2.505392   289A      2.506065  
     290A      2.535114   291A      2.546778   292A      2.549005  
     293A      2.572751   294A      2.594209   295A      2.609104  
     296A      2.646907   297A      2.682063   298A      2.705662  
     299A      2.716717   300A      2.729367   301A      2.738245  
     302A      2.757981   303A      2.768596   304A      2.786276  
     305A      2.793936   306A      2.815524   307A      2.828282  
     308A      2.836166   309A      2.855922   310A      2.859877  
     311A      2.867014   312A      2.891867   313A      2.899055  
     314A      2.922231   315A      2.946343   316A      2.961250  
     317A      2.977539   318A      3.018212   319A      3.021411  
     320A      3.037711   321A      3.056980   322A      3.105922  
     323A      3.112399   324A      3.133264   325A      3.139517  
     326A      3.178967   327A      3.231323   328A      3.248669  
     329A      3.256260   330A      3.272870   331A      3.293789  
     332A      3.303209   333A      3.345725   334A      3.368785  
     335A      3.403560   336A      3.418978   337A      3.437386  
     338A      3.461821   339A      3.502806   340A      3.521955  
     341A      3.530039   342A      3.582228   343A      3.585140  
     344A      3.607566   345A      3.627213   346A      3.639038  
     347A      3.657831   348A      3.672069   349A      3.676607  
     350A      3.715044   351A      3.728424   352A      3.757355  
     353A      3.776016   354A      3.780279   355A      3.794384  
     356A      3.807943   357A      3.822678   358A      3.831288  
     359A      3.845138   360A      3.850130   361A      3.857924  
     362A      3.866212   363A      3.873388   364A      3.891429  
     365A      3.907866   366A      3.933824   367A      3.946256  
     368A      3.979749   369A      3.986097   370A      3.994553  
     371A      4.013479   372A      4.046341   373A      4.051872  
     374A      4.066378   375A      4.073147   376A      4.088012  
     377A      4.106803   378A      4.142976   379A      4.146666  
     380A      4.161664   381A      4.165794   382A      4.185852  
     383A      4.226527   384A      4.231596   385A      4.249784  
     386A      4.254651   387A      4.289410   388A      4.294977  
     389A      4.308625   390A      4.321599   391A      4.354609  
     392A      4.360086   393A      4.375833   394A      4.390116  
     395A      4.409588   396A      4.423859   397A      4.438940  
     398A      4.471399   399A      4.478083   400A      4.486631  
     401A      4.507784   402A      4.525151   403A      4.540028  
     404A      4.564778   405A      4.580755   406A      4.599421  
     407A      4.620468   408A      4.636120   409A      4.662634  
     410A      4.682418   411A      4.693966   412A      4.730940  
     413A      4.750457   414A      4.761949   415A      4.773800  
     416A      4.787385   417A      4.807645   418A      4.822976  
     419A      4.835565   420A      4.865763   421A      4.897890  
     422A      4.918481   423A      4.952518   424A      4.962071  
     425A      4.969906   426A      4.976715   427A      5.002843  
     428A      5.016880   429A      5.029696   430A      5.058882  
     431A      5.059481   432A      5.138049   433A      5.186270  
     434A      5.212007   435A      5.216066   436A      5.222877  
     437A      5.251084   438A      5.259966   439A      5.278713  
     440A      5.280938   441A      5.301708   442A      5.320861  
     443A      5.339576   444A      5.379287   445A      5.390966  
     446A      5.406795   447A      5.436558   448A      5.453783  
     449A      5.489884   450A      5.496551   451A      5.511287  
     452A      5.539048   453A      5.552993   454A      5.558302  
     455A      5.631671   456A      5.666940   457A      5.722928  
     458A      5.731048   459A      5.746458   460A      5.775513  
     461A      5.832520   462A      5.850356   463A      5.861271  
     464A      5.894768   465A      5.929199   466A      5.979556  
     467A      5.999994   468A      6.047408   469A      6.090208  
     470A      6.120733   471A      6.216391   472A      6.221416  
     473A      6.282066   474A      6.317008   475A      6.336472  
     476A      6.409156   477A      6.484050   478A      6.567116  
     479A      6.578770   480A      6.611796   481A      6.684877  
     482A      6.779679   483A      6.842988   484A      6.901802  
     485A      6.906569   486A      6.916833   487A      6.941409  
     488A      6.958791   489A      6.976146   490A      6.985747  
     491A      7.020856   492A      7.121881   493A      7.168245  
     494A      7.175557   495A      7.250763   496A      7.267546  
     497A      7.293073   498A      7.340137   499A      7.397042  
     500A      7.417650   501A      7.435204   502A      7.536368  
     503A      7.548708   504A      7.591431   505A      7.614845  
     506A      7.642193   507A      7.671794   508A      7.732013  
     509A      7.759288   510A      7.826958   511A      7.838674  
     512A      7.887248   513A      7.908089   514A      7.927776  
     515A      7.942329   516A      8.045708   517A      8.082499  
     518A      8.109980   519A      8.154173   520A      8.225628  
     521A      8.259328   522A     14.596323   523A     15.590284  
     524A     16.230058   525A     17.259272   526A     18.320618  
     527A     18.863444   528A     20.180682   529A     20.569613  

    Final Occupation by Irrep:
              A 
    DOCC [    31 ]

  @DF-RHF Final Energy:  -418.09208261506160

   => Energetics <=

    Nuclear Repulsion Energy =            360.6759782674766939
    One-Electron Energy =               -1298.5143092202233674
    Two-Electron Energy =                 519.7462483376850741
    Total Energy =                       -418.0920826150615994

Computation Completed

*** tstop() called on node142.bme.utexas.edu at Mon Nov  9 14:02:51 2020
Module time:
	user time   =     120.60 seconds =       2.01 minutes
	system time =       3.10 seconds =       0.05 minutes
	total time  =         17 seconds =       0.28 minutes
Total time:
	user time   =     120.60 seconds =       2.01 minutes
	system time =       3.10 seconds =       0.05 minutes
	total time  =         17 seconds =       0.28 minutes
   => Loading Basis Set <=

    Name: (AUG-CC-PVTZ AUX)
    Role: RIFIT
    Keyword: DF_BASIS_MP2
    atoms 1-3  entry O          line   264 file /home/xy3866/.conda/envs/test-rdkit/share/psi4/basis/aug-cc-pvtz-ri.gbs 
    atoms 4-8  entry C          line   148 file /home/xy3866/.conda/envs/test-rdkit/share/psi4/basis/aug-cc-pvtz-ri.gbs 
    atoms 9-15 entry H          line    30 file /home/xy3866/.conda/envs/test-rdkit/share/psi4/basis/aug-cc-pvtz-ri.gbs 


*** tstart() called on node142.bme.utexas.edu
*** at Mon Nov  9 14:02:51 2020


  //>>>>>>>>>>>>>>>>>>>>>>>>>>>>>>>>>>>//
  //               DFMP2               //
  //<<<<<<<<<<<<<<<<<<<<<<<<<<<<<<<<<<<//

	 --------------------------------------------------------
	                          DF-MP2                         
	      2nd-Order Density-Fitted Moller-Plesset Theory     
	              RMP2 Wavefunction,   8 Threads             
	                                                         
	        Rob Parrish, Justin Turney, Andy Simmonett,      
	           Ed Hohenstein, and C. David Sherrill          
	 --------------------------------------------------------

   => Auxiliary Basis Set <=

  Basis Set: (AUG-CC-PVTZ AUX)
    Blend: AUG-CC-PVTZ-RI
    Number of shells: 322
    Number of basis function: 1170
    Number of Cartesian functions: 1473
    Spherical Harmonics?: true
    Max angular momentum: 4

	 --------------------------------------------------------
	                 NBF =   529, NAUX =  1170
	 --------------------------------------------------------
	   CLASS    FOCC     OCC    AOCC    AVIR     VIR    FVIR
	   PAIRS       0      31      31     498     498       0
	 --------------------------------------------------------

  DFHelper Memory: AOs need 2.357 GiB; user supplied 22.352 GiB. Using in-core AOs.


         ------------------------------------------------------------
                                     CPHF                           
                                  Rob Parrish                       
         ------------------------------------------------------------

  ==> Geometry <==

    Molecular point group: c1
    Full point group: C1

    Geometry (in Angstrom), charge = -1, multiplicity = 1:

       Center              X                  Y                   Z               Mass       
    ------------   -----------------  -----------------  -----------------  -----------------
         O            0.663028618747    -1.110933351595    -0.358369727522    15.994914619570
         O           -2.137293381253    -0.497965351595     1.106183272478    15.994914619570
         O           -2.403539381253     0.216376648405    -1.038155727522    15.994914619570
         C            2.092464618747     0.742491648405     0.169245272478    12.000000000000
         C            0.743313618747     0.070137648405    -0.018457727522    12.000000000000
         C           -0.325317681253     0.703665248405     0.088348772478    12.000000000000
         C            3.272669618747    -0.202146351595    -0.014706727522    12.000000000000
         C           -1.801303381253     0.154169648405     0.074290272478    12.000000000000
         H            2.142722618747     1.574310648405    -0.545812727522     1.007825032230
         H            2.105775618747     1.208017648405     1.162064272478     1.007825032230
         H           -0.396988381253     1.412485648405     1.175190272478     1.007825032230
         H           -0.435522381253     1.748444648405    -0.557460727522     1.007825032230
         H            3.239705618747    -1.013243351595     0.716441272478     1.007825032230
         H            3.261151618747    -0.648916351595    -1.010920727522     1.007825032230
         H            4.215791618747     0.336227648405     0.111633272478     1.007825032230

  Nuclear repulsion =  360.675978267476694
  Reference energy  = -418.092082615061599

  ==> Basis Set <==

  Basis Set: AUG-CC-PVTZ
    Blend: AUG-CC-PVTZ
    Number of shells: 175
    Number of basis function: 529
    Number of Cartesian functions: 615
    Spherical Harmonics?: true
    Max angular momentum: 3

  ==> CGRSolver (by Rob Parrish) <==

   Number of roots    =         1
   Preconditioning    =    JACOBI
   Convergence cutoff =     1E-06
   Maximum iterations =       100

  ==> CPHFRHamiltonian (by Rob Parrish) <== 

  ==> MemDFJK: Density-Fitted J/K Matrices <==

    J tasked:                   Yes
    K tasked:                   Yes
    wK tasked:                   No
    OpenMP threads:               8
    Memory [MiB]:             22888
    Algorithm:                 Core
    Schwarz Cutoff:           1E-12
    Mask sparsity (%):       5.4781
    Fitting Condition:        1E-10

   => Auxiliary Basis Set <=

  Basis Set: (AUG-CC-PVTZ AUX)
    Blend: AUG-CC-PVTZ-JKFIT
    Number of shells: 338
    Number of basis function: 1154
    Number of Cartesian functions: 1433
    Spherical Harmonics?: true
    Max angular momentum: 4

  ==> CPHF Iterations <==

  => Iterations <=

             Iter  Converged  Remaining    Residual
  CGR           1          0          1   1.238E-01
  CGR           2          0          1   3.553E-02
  CGR           3          0          1   1.386E-02
  CGR           4          0          1   5.038E-03
  CGR           5          0          1   2.160E-03
  CGR           6          0          1   7.641E-04
  CGR           7          0          1   2.723E-04
  CGR           8          0          1   1.018E-04
  CGR           9          0          1   3.946E-05
  CGR          10          0          1   1.392E-05
  CGR          11          0          1   5.895E-06
  CGR          12          0          1   1.748E-06
  CGR          13          1          0   6.806E-07

    CGRSolver converged.

	-----------------------------------------------------------
	 ==================> DF-MP2 Energies <==================== 
	-----------------------------------------------------------
	 Reference Energy          =    -418.0920826150615994 [Eh]
	 Singles Energy            =      -0.0000000000000000 [Eh]
	 Same-Spin Energy          =      -0.4219924962057543 [Eh]
	 Opposite-Spin Energy      =      -1.3016298454835842 [Eh]
	 Correlation Energy        =      -1.7236223416893384 [Eh]
	 Total Energy              =    -419.8157049567509489 [Eh]
	-----------------------------------------------------------
	 ================> DF-SCS-MP2 Energies <================== 
	-----------------------------------------------------------
	 SCS Same-Spin Scale       =       0.3333333333333333 [-]
	 SCS Opposite-Spin Scale   =       1.2000000000000000 [-]
	 SCS Same-Spin Energy      =      -0.1406641654019181 [Eh]
	 SCS Opposite-Spin Energy  =      -1.5619558145803010 [Eh]
	 SCS Correlation Energy    =      -1.7026199799822190 [Eh]
	 SCS Total Energy          =    -419.7947025950438160 [Eh]
	-----------------------------------------------------------



Properties will be evaluated at  -0.000000,  -0.000000,  -0.000000 [a0]

Properties computed using the MP2 density matrix

  Nuclear Dipole Moment: [e a0]
     X:    13.2303      Y:     4.3219      Z:     0.9840

  Electronic Dipole Moment: [e a0]
     X:    -9.5370      Y:    -2.9716      Z:    -0.7653

  Dipole Moment: [e a0]
     X:     3.6933      Y:     1.3504      Z:     0.2187     Total:     3.9385

  Dipole Moment: [D]
     X:     9.3873      Y:     3.4323      Z:     0.5559     Total:    10.0106


*** tstop() called on node142.bme.utexas.edu at Mon Nov  9 14:03:51 2020
Module time:
	user time   =     413.20 seconds =       6.89 minutes
	system time =       8.79 seconds =       0.15 minutes
	total time  =         60 seconds =       1.00 minutes
Total time:
	user time   =     534.57 seconds =       8.91 minutes
	system time =      11.94 seconds =       0.20 minutes
	total time  =         77 seconds =       1.28 minutes

    Psi4 stopped on: Monday, 09 November 2020 02:03PM
    Psi4 wall time for execution: 0:01:17.96

*** Psi4 exiting successfully. Buy a developer a beer!
