11600                                                                   
Freq      RMP2-FC                                                     6-31G(d)            
Number of atoms                            I               16
Info1-9                                    I   N=           9
          28          26        1002           0           0         100
           6           2           1
Charge                                     I                0
Multiplicity                               I                1
Number of electrons                        I               46
Number of alpha electrons                  I               23
Number of beta electrons                   I               23
Number of basis functions                  I              110
Number of independent functions            I              110
Number of point charges in /Mol/           I                0
Number of translation vectors              I                0
Atomic numbers                             I   N=          16
           6           6           6           6           6           6
           1           1           1           1           1           1
           1           1           1           1
Nuclear charges                            R   N=          16
  6.00000000E+00  6.00000000E+00  6.00000000E+00  6.00000000E+00  6.00000000E+00
  6.00000000E+00  1.00000000E+00  1.00000000E+00  1.00000000E+00  1.00000000E+00
  1.00000000E+00  1.00000000E+00  1.00000000E+00  1.00000000E+00  1.00000000E+00
  1.00000000E+00
Current cartesian coordinates              R   N=          48
  1.26191982E+00 -5.43713428E-01 -2.06806128E-05 -1.26191983E+00  5.43715602E-01
  2.97610525E-05  3.40515479E+00  8.28734730E-01  1.17038411E-04 -3.40515409E+00
 -8.28733958E-01 -1.24086361E-04  6.01394226E+00 -2.66472790E-01  1.02248665E-04
 -6.01394272E+00  2.66470731E-01 -1.04450787E-04  1.39012672E+00 -2.60279746E+00
 -1.68307780E-04 -1.39012809E+00  2.60279953E+00  1.88781640E-04  3.26234656E+00
  2.88561853E+00  2.70771623E-04 -3.26234401E+00 -2.88561768E+00 -2.89099366E-04
  5.94917689E+00 -2.33224470E+00 -9.93395623E-05  7.08465418E+00  3.44532037E-01
 -1.66384390E+00  7.08454739E+00  3.44209520E-01  1.66423717E+00 -7.08456430E+00
 -3.44246352E-01 -1.66421574E+00 -7.08463695E+00 -3.44501480E-01  1.66386534E+00
 -5.94917973E+00  2.33224273E+00  5.53429765E-05
Force Field                                I                0
Int Atom Types                             I   N=          16
           0           0           0           0           0           0
           0           0           0           0           0           0
           0           0           0           0
MM charges                                 R   N=          16
  0.00000000E+00  0.00000000E+00  0.00000000E+00  0.00000000E+00  0.00000000E+00
  0.00000000E+00  0.00000000E+00  0.00000000E+00  0.00000000E+00  0.00000000E+00
  0.00000000E+00  0.00000000E+00  0.00000000E+00  0.00000000E+00  0.00000000E+00
  0.00000000E+00
Integer atomic weights                     I   N=          16
          12          12          12          12          12          12
           1           1           1           1           1           1
           1           1           1           1
Real atomic weights                        R   N=          16
  1.20000000E+01  1.20000000E+01  1.20000000E+01  1.20000000E+01  1.20000000E+01
  1.20000000E+01  1.00782504E+00  1.00782504E+00  1.00782504E+00  1.00782504E+00
  1.00782504E+00  1.00782504E+00  1.00782504E+00  1.00782504E+00  1.00782504E+00
  1.00782504E+00
Atom fragment info                         I   N=          16
           0           0           0           0           0           0
           0           0           0           0           0           0
           0           0           0           0
Atom residue num                           I   N=          16
           0           0           0           0           0           0
           0           0           0           0           0           0
           0           0           0           0
Nuclear spins                              I   N=          16
           0           0           0           0           0           0
           1           1           1           1           1           1
           1           1           1           1
Nuclear ZEff                               R   N=          16
 -3.60000000E+00 -3.60000000E+00 -3.60000000E+00 -3.60000000E+00 -3.60000000E+00
 -3.60000000E+00 -1.00000000E+00 -1.00000000E+00 -1.00000000E+00 -1.00000000E+00
 -1.00000000E+00 -1.00000000E+00 -1.00000000E+00 -1.00000000E+00 -1.00000000E+00
 -1.00000000E+00
Nuclear QMom                               R   N=          16
  0.00000000E+00  0.00000000E+00  0.00000000E+00  0.00000000E+00  0.00000000E+00
  0.00000000E+00  0.00000000E+00  0.00000000E+00  0.00000000E+00  0.00000000E+00
  0.00000000E+00  0.00000000E+00  0.00000000E+00  0.00000000E+00  0.00000000E+00
  0.00000000E+00
Nuclear GFac                               R   N=          16
  0.00000000E+00  0.00000000E+00  0.00000000E+00  0.00000000E+00  0.00000000E+00
  0.00000000E+00  2.79284600E+00  2.79284600E+00  2.79284600E+00  2.79284600E+00
  2.79284600E+00  2.79284600E+00  2.79284600E+00  2.79284600E+00  2.79284600E+00
  2.79284600E+00
MicOpt                                     I   N=          16
          -1          -1          -1          -1          -1          -1
          -1          -1          -1          -1          -1          -1
          -1          -1          -1          -1
Number of contracted shells                I               44
Number of primitive shells                 I              106
Pure/Cartesian d shells                    I                1
Pure/Cartesian f shells                    I                0
Highest angular momentum                   I                2
Largest degree of contraction              I                6
Shell types                                I   N=          44
           0          -1          -1           2           0          -1
          -1           2           0          -1          -1           2
           0          -1          -1           2           0          -1
          -1           2           0          -1          -1           2
           0           0           0           0           0           0
           0           0           0           0           0           0
           0           0           0           0           0           0
           0           0
Number of primitives per shell             I   N=          44
           6           3           1           1           6           3
           1           1           6           3           1           1
           6           3           1           1           6           3
           1           1           6           3           1           1
           3           1           3           1           3           1
           3           1           3           1           3           1
           3           1           3           1           3           1
           3           1
Shell to atom map                          I   N=          44
           1           1           1           1           2           2
           2           2           3           3           3           3
           4           4           4           4           5           5
           5           5           6           6           6           6
           7           7           8           8           9           9
          10          10          11          11          12          12
          13          13          14          14          15          15
          16          16
Primitive exponents                        R   N=         106
  3.04752488E+03  4.57369518E+02  1.03948685E+02  2.92101553E+01  9.28666296E+00
  3.16392696E+00  7.86827235E+00  1.88128854E+00  5.44249258E-01  1.68714478E-01
  8.00000000E-01  3.04752488E+03  4.57369518E+02  1.03948685E+02  2.92101553E+01
  9.28666296E+00  3.16392696E+00  7.86827235E+00  1.88128854E+00  5.44249258E-01
  1.68714478E-01  8.00000000E-01  3.04752488E+03  4.57369518E+02  1.03948685E+02
  2.92101553E+01  9.28666296E+00  3.16392696E+00  7.86827235E+00  1.88128854E+00
  5.44249258E-01  1.68714478E-01  8.00000000E-01  3.04752488E+03  4.57369518E+02
  1.03948685E+02  2.92101553E+01  9.28666296E+00  3.16392696E+00  7.86827235E+00
  1.88128854E+00  5.44249258E-01  1.68714478E-01  8.00000000E-01  3.04752488E+03
  4.57369518E+02  1.03948685E+02  2.92101553E+01  9.28666296E+00  3.16392696E+00
  7.86827235E+00  1.88128854E+00  5.44249258E-01  1.68714478E-01  8.00000000E-01
  3.04752488E+03  4.57369518E+02  1.03948685E+02  2.92101553E+01  9.28666296E+00
  3.16392696E+00  7.86827235E+00  1.88128854E+00  5.44249258E-01  1.68714478E-01
  8.00000000E-01  1.87311370E+01  2.82539436E+00  6.40121692E-01  1.61277759E-01
  1.87311370E+01  2.82539436E+00  6.40121692E-01  1.61277759E-01  1.87311370E+01
  2.82539436E+00  6.40121692E-01  1.61277759E-01  1.87311370E+01  2.82539436E+00
  6.40121692E-01  1.61277759E-01  1.87311370E+01  2.82539436E+00  6.40121692E-01
  1.61277759E-01  1.87311370E+01  2.82539436E+00  6.40121692E-01  1.61277759E-01
  1.87311370E+01  2.82539436E+00  6.40121692E-01  1.61277759E-01  1.87311370E+01
  2.82539436E+00  6.40121692E-01  1.61277759E-01  1.87311370E+01  2.82539436E+00
  6.40121692E-01  1.61277759E-01  1.87311370E+01  2.82539436E+00  6.40121692E-01
  1.61277759E-01
Contraction coefficients                   R   N=         106
  1.83473713E-03  1.40373228E-02  6.88426223E-02  2.32184443E-01  4.67941348E-01
  3.62311985E-01 -1.19332420E-01 -1.60854152E-01  1.14345644E+00  1.00000000E+00
  1.00000000E+00  1.83473713E-03  1.40373228E-02  6.88426223E-02  2.32184443E-01
  4.67941348E-01  3.62311985E-01 -1.19332420E-01 -1.60854152E-01  1.14345644E+00
  1.00000000E+00  1.00000000E+00  1.83473713E-03  1.40373228E-02  6.88426223E-02
  2.32184443E-01  4.67941348E-01  3.62311985E-01 -1.19332420E-01 -1.60854152E-01
  1.14345644E+00  1.00000000E+00  1.00000000E+00  1.83473713E-03  1.40373228E-02
  6.88426223E-02  2.32184443E-01  4.67941348E-01  3.62311985E-01 -1.19332420E-01
 -1.60854152E-01  1.14345644E+00  1.00000000E+00  1.00000000E+00  1.83473713E-03
  1.40373228E-02  6.88426223E-02  2.32184443E-01  4.67941348E-01  3.62311985E-01
 -1.19332420E-01 -1.60854152E-01  1.14345644E+00  1.00000000E+00  1.00000000E+00
  1.83473713E-03  1.40373228E-02  6.88426223E-02  2.32184443E-01  4.67941348E-01
  3.62311985E-01 -1.19332420E-01 -1.60854152E-01  1.14345644E+00  1.00000000E+00
  1.00000000E+00  3.34946043E-02  2.34726953E-01  8.13757326E-01  1.00000000E+00
  3.34946043E-02  2.34726953E-01  8.13757326E-01  1.00000000E+00  3.34946043E-02
  2.34726953E-01  8.13757326E-01  1.00000000E+00  3.34946043E-02  2.34726953E-01
  8.13757326E-01  1.00000000E+00  3.34946043E-02  2.34726953E-01  8.13757326E-01
  1.00000000E+00  3.34946043E-02  2.34726953E-01  8.13757326E-01  1.00000000E+00
  3.34946043E-02  2.34726953E-01  8.13757326E-01  1.00000000E+00  3.34946043E-02
  2.34726953E-01  8.13757326E-01  1.00000000E+00  3.34946043E-02  2.34726953E-01
  8.13757326E-01  1.00000000E+00  3.34946043E-02  2.34726953E-01  8.13757326E-01
  1.00000000E+00
P(S=P) Contraction coefficients            R   N=         106
  0.00000000E+00  0.00000000E+00  0.00000000E+00  0.00000000E+00  0.00000000E+00
  0.00000000E+00  6.89990666E-02  3.16423961E-01  7.44308291E-01  1.00000000E+00
  0.00000000E+00  0.00000000E+00  0.00000000E+00  0.00000000E+00  0.00000000E+00
  0.00000000E+00  0.00000000E+00  6.89990666E-02  3.16423961E-01  7.44308291E-01
  1.00000000E+00  0.00000000E+00  0.00000000E+00  0.00000000E+00  0.00000000E+00
  0.00000000E+00  0.00000000E+00  0.00000000E+00  6.89990666E-02  3.16423961E-01
  7.44308291E-01  1.00000000E+00  0.00000000E+00  0.00000000E+00  0.00000000E+00
  0.00000000E+00  0.00000000E+00  0.00000000E+00  0.00000000E+00  6.89990666E-02
  3.16423961E-01  7.44308291E-01  1.00000000E+00  0.00000000E+00  0.00000000E+00
  0.00000000E+00  0.00000000E+00  0.00000000E+00  0.00000000E+00  0.00000000E+00
  6.89990666E-02  3.16423961E-01  7.44308291E-01  1.00000000E+00  0.00000000E+00
  0.00000000E+00  0.00000000E+00  0.00000000E+00  0.00000000E+00  0.00000000E+00
  0.00000000E+00  6.89990666E-02  3.16423961E-01  7.44308291E-01  1.00000000E+00
  0.00000000E+00  0.00000000E+00  0.00000000E+00  0.00000000E+00  0.00000000E+00
  0.00000000E+00  0.00000000E+00  0.00000000E+00  0.00000000E+00  0.00000000E+00
  0.00000000E+00  0.00000000E+00  0.00000000E+00  0.00000000E+00  0.00000000E+00
  0.00000000E+00  0.00000000E+00  0.00000000E+00  0.00000000E+00  0.00000000E+00
  0.00000000E+00  0.00000000E+00  0.00000000E+00  0.00000000E+00  0.00000000E+00
  0.00000000E+00  0.00000000E+00  0.00000000E+00  0.00000000E+00  0.00000000E+00
  0.00000000E+00  0.00000000E+00  0.00000000E+00  0.00000000E+00  0.00000000E+00
  0.00000000E+00  0.00000000E+00  0.00000000E+00  0.00000000E+00  0.00000000E+00
  0.00000000E+00
Coordinates of each shell                  R   N=         132
  1.26191982E+00 -5.43713428E-01 -2.06806128E-05  1.26191982E+00 -5.43713428E-01
 -2.06806128E-05  1.26191982E+00 -5.43713428E-01 -2.06806128E-05  1.26191982E+00
 -5.43713428E-01 -2.06806128E-05 -1.26191983E+00  5.43715602E-01  2.97610525E-05
 -1.26191983E+00  5.43715602E-01  2.97610525E-05 -1.26191983E+00  5.43715602E-01
  2.97610525E-05 -1.26191983E+00  5.43715602E-01  2.97610525E-05  3.40515479E+00
  8.28734730E-01  1.17038411E-04  3.40515479E+00  8.28734730E-01  1.17038411E-04
  3.40515479E+00  8.28734730E-01  1.17038411E-04  3.40515479E+00  8.28734730E-01
  1.17038411E-04 -3.40515409E+00 -8.28733958E-01 -1.24086361E-04 -3.40515409E+00
 -8.28733958E-01 -1.24086361E-04 -3.40515409E+00 -8.28733958E-01 -1.24086361E-04
 -3.40515409E+00 -8.28733958E-01 -1.24086361E-04  6.01394226E+00 -2.66472790E-01
  1.02248665E-04  6.01394226E+00 -2.66472790E-01  1.02248665E-04  6.01394226E+00
 -2.66472790E-01  1.02248665E-04  6.01394226E+00 -2.66472790E-01  1.02248665E-04
 -6.01394272E+00  2.66470731E-01 -1.04450787E-04 -6.01394272E+00  2.66470731E-01
 -1.04450787E-04 -6.01394272E+00  2.66470731E-01 -1.04450787E-04 -6.01394272E+00
  2.66470731E-01 -1.04450787E-04  1.39012672E+00 -2.60279746E+00 -1.68307780E-04
  1.39012672E+00 -2.60279746E+00 -1.68307780E-04 -1.39012809E+00  2.60279953E+00
  1.88781640E-04 -1.39012809E+00  2.60279953E+00  1.88781640E-04  3.26234656E+00
  2.88561853E+00  2.70771623E-04  3.26234656E+00  2.88561853E+00  2.70771623E-04
 -3.26234401E+00 -2.88561768E+00 -2.89099366E-04 -3.26234401E+00 -2.88561768E+00
 -2.89099366E-04  5.94917689E+00 -2.33224470E+00 -9.93395623E-05  5.94917689E+00
 -2.33224470E+00 -9.93395623E-05  7.08465418E+00  3.44532037E-01 -1.66384390E+00
  7.08465418E+00  3.44532037E-01 -1.66384390E+00  7.08454739E+00  3.44209520E-01
  1.66423717E+00  7.08454739E+00  3.44209520E-01  1.66423717E+00 -7.08456430E+00
 -3.44246352E-01 -1.66421574E+00 -7.08456430E+00 -3.44246352E-01 -1.66421574E+00
 -7.08463695E+00 -3.44501480E-01  1.66386534E+00 -7.08463695E+00 -3.44501480E-01
  1.66386534E+00 -5.94917973E+00  2.33224273E+00  5.53429765E-05 -5.94917973E+00
  2.33224273E+00  5.53429765E-05
Constraint Structure                       R   N=          48
  1.26191982E+00 -5.43713428E-01 -2.06806128E-05 -1.26191983E+00  5.43715602E-01
  2.97610525E-05  3.40515479E+00  8.28734730E-01  1.17038411E-04 -3.40515409E+00
 -8.28733958E-01 -1.24086361E-04  6.01394226E+00 -2.66472790E-01  1.02248665E-04
 -6.01394272E+00  2.66470731E-01 -1.04450787E-04  1.39012672E+00 -2.60279746E+00
 -1.68307780E-04 -1.39012809E+00  2.60279953E+00  1.88781640E-04  3.26234656E+00
  2.88561853E+00  2.70771623E-04 -3.26234401E+00 -2.88561768E+00 -2.89099366E-04
  5.94917689E+00 -2.33224470E+00 -9.93395623E-05  7.08465418E+00  3.44532037E-01
 -1.66384390E+00  7.08454739E+00  3.44209520E-01  1.66423717E+00 -7.08456430E+00
 -3.44246352E-01 -1.66421574E+00 -7.08463695E+00 -3.44501480E-01  1.66386534E+00
 -5.94917973E+00  2.33224273E+00  5.53429765E-05
Num ILSW                                   I              100
ILSW                                       I   N=         100
           0           1           0           0           2           0
           0           0           0           0           0          -1
           0           0           0           0           0           0
           0           0           0           0           1           0
           1           0           0           0           0           0
           0           0      100000           0          -1           0
           0           0           0           0           0           0
           0           0           0           1           1           0
           0           0           1           0           0           0
           0           0           4          40           0           0
           0           0           0           0           0           0
           0           0           0           0           0           0
           0           0           0           0           0           0
           0           0           0           0           0           0
           0           0           0           0           0           0
           0           0           0           0           0           0
           0           0           0           0
Num RLSW                                   I               40
RLSW                                       R   N=          40
  1.00000000E+00  1.00000000E+00  1.00000000E+00  1.00000000E+00  1.00000000E+00
  0.00000000E+00  0.00000000E+00  1.00000000E+00  0.00000000E+00  0.00000000E+00
  0.00000000E+00  0.00000000E+00  1.00000000E+00  0.00000000E+00  0.00000000E+00
  0.00000000E+00  0.00000000E+00  1.00000000E+00  0.00000000E+00  0.00000000E+00
  0.00000000E+00  0.00000000E+00  1.00000000E+00  0.00000000E+00  0.00000000E+00
  0.00000000E+00  0.00000000E+00  1.00000000E+00  0.00000000E+00  0.00000000E+00
  0.00000000E+00  0.00000000E+00  0.00000000E+00  0.00000000E+00  0.00000000E+00
  0.00000000E+00  0.00000000E+00  0.00000000E+00  1.00000000E+00  1.00000000E+00
MxBond                                     I                4
NBond                                      I   N=          16
           3           3           3           3           4           4
           1           1           1           1           1           1
           1           1           1           1
IBond                                      I   N=          64
           2           3           7           0           1           4
           8           0           1           5           9           0
           2           6          10           0           3          11
          12          13           4          14          15          16
           1           0           0           0           2           0
           0           0           3           0           0           0
           4           0           0           0           5           0
           0           0           5           0           0           0
           5           0           0           0           6           0
           0           0           6           0           0           0
           6           0           0           0
RBond                                      R   N=          64
  1.00000000E+00  2.00000000E+00  1.00000000E+00  0.00000000E+00  1.00000000E+00
  2.00000000E+00  1.00000000E+00  0.00000000E+00  2.00000000E+00  1.00000000E+00
  1.00000000E+00  0.00000000E+00  2.00000000E+00  1.00000000E+00  1.00000000E+00
  0.00000000E+00  1.00000000E+00  1.00000000E+00  1.00000000E+00  1.00000000E+00
  1.00000000E+00  1.00000000E+00  1.00000000E+00  1.00000000E+00  1.00000000E+00
  0.00000000E+00  0.00000000E+00  0.00000000E+00  1.00000000E+00  0.00000000E+00
  0.00000000E+00  0.00000000E+00  1.00000000E+00  0.00000000E+00  0.00000000E+00
  0.00000000E+00  1.00000000E+00  0.00000000E+00  0.00000000E+00  0.00000000E+00
  1.00000000E+00  0.00000000E+00  0.00000000E+00  0.00000000E+00  1.00000000E+00
  0.00000000E+00  0.00000000E+00  0.00000000E+00  1.00000000E+00  0.00000000E+00
  0.00000000E+00  0.00000000E+00  1.00000000E+00  0.00000000E+00  0.00000000E+00
  0.00000000E+00  1.00000000E+00  0.00000000E+00  0.00000000E+00  0.00000000E+00
  1.00000000E+00  0.00000000E+00  0.00000000E+00  0.00000000E+00
Virial Ratio                               R      2.001708908882637E+00
SCF Energy                                 R     -2.329963392625230E+02
MP2 Energy                                 R     -2.337648963526830E+02
Total Energy                               R     -2.337648963526830E+02
Post-SCF wavefunction norm                 R      1.595770132794050E+00
RMS Force                                  R      2.927754549421424E-06
RMS Density                                R      9.752524363935792E-10
External E-field                           R   N=          35
  0.00000000E+00  0.00000000E+00  0.00000000E+00  0.00000000E+00  0.00000000E+00
  0.00000000E+00  0.00000000E+00  0.00000000E+00  0.00000000E+00  0.00000000E+00
  0.00000000E+00  0.00000000E+00  0.00000000E+00  0.00000000E+00  0.00000000E+00
  0.00000000E+00  0.00000000E+00  0.00000000E+00  0.00000000E+00  0.00000000E+00
  0.00000000E+00  0.00000000E+00  0.00000000E+00  0.00000000E+00  0.00000000E+00
  0.00000000E+00  0.00000000E+00  0.00000000E+00  0.00000000E+00  0.00000000E+00
  0.00000000E+00  0.00000000E+00  0.00000000E+00  0.00000000E+00  0.00000000E+00
IOpCl                                      I                0
IROHF                                      I                0
Alpha Orbital Energies                     R   N=         110
 -1.12296413E+01 -1.12296179E+01 -1.12258696E+01 -1.12250744E+01 -1.12205999E+01
 -1.12205995E+01 -1.09281239E+00 -1.04275932E+00 -9.64108634E-01 -8.89683185E-01
 -7.60494764E-01 -7.45737131E-01 -6.40918100E-01 -6.06987360E-01 -5.65086093E-01
 -5.62157049E-01 -5.54891248E-01 -5.43466828E-01 -5.08940956E-01 -5.00190021E-01
 -4.79601248E-01 -4.18111883E-01 -2.93009773E-01  1.38400050E-01  2.49371778E-01
  2.59380062E-01  2.64675222E-01  2.66255040E-01  3.02094178E-01  3.07114460E-01
  3.17760684E-01  3.23691694E-01  3.30860918E-01  3.45986291E-01  3.53653005E-01
  4.29220403E-01  4.62298230E-01  5.28651384E-01  5.57356160E-01  6.29703645E-01
  6.78667515E-01  7.14431829E-01  7.51203121E-01  7.54964067E-01  8.02062880E-01
  8.21813318E-01  8.33518828E-01  8.54195115E-01  8.56345179E-01  8.59413255E-01
  9.55216233E-01  9.60389900E-01  9.62651667E-01  9.64901510E-01  1.04002274E+00
  1.04228098E+00  1.12496255E+00  1.12796602E+00  1.15078464E+00  1.15614572E+00
  1.15621370E+00  1.17061606E+00  1.18460275E+00  1.20649232E+00  1.22242299E+00
  1.23024183E+00  1.25457757E+00  1.30698734E+00  1.37578543E+00  1.42308634E+00
  1.57634240E+00  1.58564014E+00  1.61054086E+00  1.61287703E+00  1.65270236E+00
  1.66951331E+00  1.72598101E+00  1.86572035E+00  1.99263357E+00  2.07026123E+00
  2.07626158E+00  2.14458878E+00  2.20698217E+00  2.21978180E+00  2.22462091E+00
  2.31696285E+00  2.33521048E+00  2.39205619E+00  2.49075453E+00  2.51308172E+00
  2.53494251E+00  2.58751966E+00  2.64280568E+00  2.68946415E+00  2.69058552E+00
  2.70629990E+00  2.80494523E+00  2.83025305E+00  2.83255229E+00  3.01636494E+00
  3.14314350E+00  3.17594733E+00  3.38947289E+00  3.40608422E+00  4.52760194E+00
  4.56255791E+00  4.61318198E+00  4.72708923E+00  4.80222870E+00  4.92891905E+00
Alpha MO coefficients                      R   N=       12100
  1.46363249E-01  3.75729825E-03 -1.40651710E-04 -5.71190043E-05 -4.87024001E-09
  2.14929231E-03  1.32957928E-03  1.82442470E-04  3.60513082E-08 -4.11453862E-04
 -5.37195196E-04 -4.32980481E-04  3.85573805E-05  4.48344271E-09 -7.42999497E-09
  1.46514489E-01  3.76125892E-03  1.40862597E-04  5.72167431E-05  5.84879364E-09
  2.15126319E-03 -1.33183240E-03 -1.83050682E-04 -4.09106604E-08 -4.11920240E-04
 -5.37723237E-04 -4.33385037E-04  3.85469185E-05  4.00407063E-09 -8.52503455E-09
  6.87661883E-01  1.88864194E-02  1.55288235E-04 -6.12085024E-05  2.20078378E-10
 -8.56744124E-03 -4.77735817E-04  1.15589056E-03  6.85873458E-08 -1.05876656E-03
 -1.27865581E-03 -1.60136100E-03  1.14612076E-04  2.06219072E-08  2.97934080E-08
  6.88517991E-01  1.89100097E-02 -1.55415112E-04  6.12707598E-05  1.89458223E-09
 -8.57834326E-03  4.77255859E-04 -1.15707306E-03 -7.53083848E-08 -1.06012267E-03
 -1.28023562E-03 -1.60333145E-03  1.14757154E-04  2.20732803E-08  3.24423746E-08
  2.53376331E-02  7.80018120E-04  8.36337140E-05 -4.18080857E-06  5.40445179E-09
  2.05194363E-03 -1.32312633E-03  5.27505964E-05 -4.62775288E-08 -3.60975824E-04
 -2.16356618E-04 -9.84320918E-05  1.70069234E-04  4.72602632E-09 -4.39576201E-09
  2.53692718E-02  7.81066276E-04 -8.37566405E-05  4.18723946E-06 -1.43929220E-09
  2.05367890E-03  1.32443549E-03 -5.26103661E-05  2.53248025E-08 -3.61430466E-04
 -2.16610514E-04 -9.85361214E-05  1.70288843E-04  5.47763433E-09 -6.13773045E-09
 -1.13516889E-04 -1.27962795E-04 -1.13590831E-04 -1.27762755E-04 -1.58408622E-04
  1.13866953E-03 -1.58515104E-04  1.14010133E-03 -8.43867912E-05 -1.72519935E-04
 -1.03142281E-04  3.48352587E-04 -1.03145400E-04  3.48371238E-04 -1.03247545E-04
  3.48813520E-04 -1.03247832E-04  3.48818951E-04 -8.44595600E-05 -1.72803512E-04
  1.22762230E-01  3.21490044E-03 -1.70934065E-04 -7.89632455E-05 -8.04633563E-09
  1.59459492E-03  1.82509103E-03  4.92350393E-04  6.65558555E-08 -3.77627220E-04
 -4.27973684E-04 -3.28342960E-04 -8.33463429E-06 -9.49066684E-10 -7.99593897E-09
 -1.22580568E-01 -3.21023534E-03 -1.70760024E-04 -7.88927108E-05 -9.38142445E-09
 -1.59194376E-03  1.82344659E-03  4.92125346E-04  7.71099401E-08  3.77117121E-04
  4.27308029E-04  3.27805931E-04  8.38264601E-06  9.11024948E-10  8.52214630E-09
  6.93167419E-01  1.91009975E-02  1.02696321E-04 -5.05766730E-05  8.16586442E-10
 -8.82790837E-03  3.89622071E-04  9.58965397E-04  6.67719944E-08 -1.09839339E-03
 -1.27934699E-03 -1.59549979E-03  1.17345237E-04  2.09790214E-08  2.89811406E-08
 -6.92317274E-01 -1.90776481E-02  1.02504469E-04 -5.05008378E-05 -1.80191552E-09
  8.81731817E-03  3.90212354E-04  9.57535919E-04  7.52460821E-08  1.09708410E-03
  1.27776590E-03  1.59351988E-03 -1.17203638E-04 -2.19999577E-08 -3.18931298E-08
  2.56430241E-02  8.49324972E-04  9.93950061E-05 -5.21832487E-06  5.40211091E-09
  1.40502157E-03 -1.06014694E-03 -1.12423717E-04 -4.81661392E-08 -3.67741943E-04
 -2.05832249E-04 -8.42431894E-05  1.77873436E-04  4.58129507E-09 -3.88614275E-09
 -2.56116690E-02 -8.48359810E-04  9.92917544E-05 -5.21312053E-06  1.34752054E-09
 -1.40248513E-03 -1.05851112E-03 -1.12489977E-04 -2.77346733E-08  3.67296111E-04
  2.05564458E-04  8.41215031E-05 -1.77663060E-04 -5.38261419E-09  5.89667068E-09
 -5.98152088E-05  1.62295720E-04  5.96748757E-05 -1.62452224E-04 -8.63562795E-05
  1.15886012E-03  8.61602970E-05 -1.15745301E-03 -5.89139844E-05 -2.29684016E-04
 -8.40978192E-05  3.67953007E-04 -8.41023711E-05  3.67969968E-04  8.39728863E-05
 -3.67526898E-04  8.39722569E-05 -3.67534478E-04  5.88097088E-05  2.29470525E-04
  6.88476304E-01  1.91493704E-02 -2.55210838E-05  5.44471677E-05  2.48717328E-09
 -7.19859313E-03 -1.26441065E-03 -9.81742952E-04 -9.83211696E-08 -1.36357037E-03
 -1.44864456E-03 -1.69897165E-03  2.41516176E-04  2.58410307E-08  2.31934171E-08
  6.88489978E-01  1.91497488E-02  2.55249384E-05 -5.44511001E-05 -4.21192534E-09
 -7.19884256E-03  1.26439063E-03  9.81769725E-04  1.09560002E-07 -1.36358222E-03
 -1.44866395E-03 -1.69900179E-03  2.41515312E-04  2.81560749E-08  2.68567586E-08
 -1.46625264E-01 -4.30217456E-03  1.18877567E-04  6.77901729E-05  7.51426881E-09
  4.89346807E-03 -1.59232730E-03 -4.85187470E-04 -6.34813568E-08  7.11790902E-05
  7.59297885E-05  2.71312939E-04 -3.35078601E-05 -8.24733697E-09 -1.72700104E-08
 -1.46626956E-01 -4.30222379E-03 -1.18879076E-04 -6.77927299E-05 -7.50800057E-09
  4.89355669E-03  1.59235369E-03  4.85202841E-04  6.60378512E-08  7.11765926E-05
  7.59273409E-05  2.71316294E-04 -3.35093874E-05 -8.72367437E-09 -1.90678757E-08
 -1.02640806E-02 -4.25317810E-04 -1.74563248E-05 -3.41107143E-06 -2.74861859E-09
  1.97131276E-04  6.37359954E-05  1.31819146E-04  1.98786263E-08  1.41233877E-04
  4.63810617E-05 -5.91679304E-06 -3.04971316E-05  2.21783656E-09  3.30843396E-09
 -1.02642473E-02 -4.25323669E-04  1.74561693E-05  3.41110001E-06  8.35081235E-10
  1.97127879E-04 -6.37412567E-05 -1.31821175E-04 -9.07798663E-09  1.41235657E-04
  4.63820657E-05 -5.91660780E-06 -3.04976598E-05  2.06404385E-09  3.45863274E-09
 -1.53759049E-04  1.02918879E-03 -1.53759536E-04  1.02921746E-03 -6.20215242E-05
 -5.57894745E-04 -6.20220036E-05 -5.57899754E-04 -5.38141435E-06  3.42716768E-05
  4.58619547E-06 -8.96876734E-05  4.58590675E-06 -8.97000159E-05  4.58661233E-06
 -8.96948709E-05  4.58600782E-06 -8.96955575E-05 -5.38091595E-06  3.42708589E-05
  6.93398575E-01  1.92013865E-02 -1.96176966E-04  2.01701927E-04  1.35620269E-08
 -1.27514197E-02  9.17934205E-04 -1.28765682E-03 -9.31159921E-08 -5.64833982E-04
 -9.86084894E-04 -1.53367008E-03 -4.41075292E-05  1.23035660E-08  4.82708630E-08
 -6.93385196E-01 -1.92010141E-02 -1.96176466E-04  2.01701043E-04  1.42573355E-08
  1.27512782E-02  9.17959192E-04 -1.28763815E-03 -9.96956975E-08  5.64808091E-04
  9.86056247E-04  1.53363692E-03  4.41125475E-05 -1.53026072E-08 -5.03185436E-08
 -1.22781250E-01 -3.51787182E-03  8.14544219E-05  1.34739640E-04  1.12222270E-08
  4.89602484E-03 -1.35981784E-03 -7.65495555E-04 -7.50294660E-08 -6.94790582E-05
 -5.76236060E-05  2.57920060E-04 -7.79577556E-05 -1.32801511E-08 -2.93226733E-08
  1.22778039E-01  3.51777775E-03  8.14519731E-05  1.34738123E-04  1.43534947E-08
 -4.89592509E-03 -1.35978619E-03 -7.65487044E-04 -8.91816369E-08  6.94811647E-05
  5.76256689E-05 -2.57913960E-04  7.79569455E-05  1.48018608E-08  3.19988277E-08