
    -----------------------------------------------------------------------
          Psi4: An Open-Source Ab Initio Electronic Structure Package
                               Psi4 1.4a3.dev225 

                         Git: Rev {master} 7105e37 


    D. G. A. Smith, L. A. Burns, A. C. Simmonett, R. M. Parrish,
    M. C. Schieber, R. Galvelis, P. Kraus, H. Kruse, R. Di Remigio,
    A. Alenaizan, A. M. James, S. Lehtola, J. P. Misiewicz, M. Scheurer,
    R. A. Shaw, J. B. Schriber, Y. Xie, Z. L. Glick, D. A. Sirianni,
    J. S. O'Brien, J. M. Waldrop, A. Kumar, E. G. Hohenstein,
    B. P. Pritchard, B. R. Brooks, H. F. Schaefer III, A. Yu. Sokolov,
    K. Patkowski, A. E. DePrince III, U. Bozkaya, R. A. King,
    F. A. Evangelista, J. M. Turney, T. D. Crawford, C. D. Sherrill,
    J. Chem. Phys. 152(18) 184108 (2020). https://doi.org/10.1063/5.0006002

                            Additional Code Authors
    E. T. Seidl, C. L. Janssen, E. F. Valeev, M. L. Leininger,
    J. F. Gonthier, R. M. Richard, H. R. McAlexander, M. Saitow, X. Wang,
    P. Verma, and M. H. Lechner

             Previous Authors, Complete List of Code Contributors,
                       and Citations for Specific Modules
    https://github.com/psi4/psi4/blob/master/codemeta.json
    https://github.com/psi4/psi4/graphs/contributors
    http://psicode.org/psi4manual/master/introduction.html#citing-psifour

    -----------------------------------------------------------------------


    Psi4 started on: Friday, 19 March 2021 08:11AM

    Process ID: 41564
    Host:       c469-083.stampede2.tacc.utexas.edu
    PSIDATADIR: /home1/07844/xy3866/miniconda3/envs/p4env/share/psi4
    Memory:     500.0 MiB
    Threads:    32
    
  ==> Input File <==

--------------------------------------------------------------------------
#psi4
#
memory 32 gb

molecule  {
0 1
  O        1.2409240    -0.2774600     0.0000000
  C       -1.1702280    -0.1505200     0.0000000
  C        0.2076017     0.3987231     0.0000000
  H       -1.7131240     0.2066740    -0.8814370
  H       -1.1334130    -1.2403610    -0.0000090
  H       -1.7131170     0.2066590     0.8814470
  H        0.2965490     1.5130530     0.0000000
units angstrom
no_reorient  #important for SAPT in psi4, default
symmetry c1  #important for SAPT in psi4, default
}

set PROPERTIES_ORIGIN ["COM"]
properties('MP2/aug-cc-pvtz', properties = ['dipole'])
--------------------------------------------------------------------------

  Memory set to  29.802 GiB by Python driver.
    SCF Algorithm Type (re)set to DF.

*** tstart() called on c469-083.stampede2.tacc.utexas.edu
*** at Fri Mar 19 08:14:24 2021

   => Loading Basis Set <=

    Name: AUG-CC-PVTZ
    Role: ORBITAL
    Keyword: BASIS
    atoms 1   entry O          line   331 file /home1/07844/xy3866/miniconda3/envs/p4env/share/psi4/basis/aug-cc-pvtz.gbs 
    atoms 2-3 entry C          line   239 file /home1/07844/xy3866/miniconda3/envs/p4env/share/psi4/basis/aug-cc-pvtz.gbs 
    atoms 4-7 entry H          line    40 file /home1/07844/xy3866/miniconda3/envs/p4env/share/psi4/basis/aug-cc-pvtz.gbs 


         ---------------------------------------------------------
                                   SCF
               by Justin Turney, Rob Parrish, Andy Simmonett
                          and Daniel G. A. Smith
                              RHF Reference
                       32 Threads,  30517 MiB Core
         ---------------------------------------------------------

  ==> Geometry <==

    Molecular point group: c1
    Full point group: C1

    Geometry (in Angstrom), charge = 0, multiplicity = 1:

       Center              X                  Y                   Z               Mass       
    ------------   -----------------  -----------------  -----------------  -----------------
         O            1.150057821333    -0.260013152775    -0.000000022891    15.994914619570
         C           -1.261094178667    -0.133073152775    -0.000000022891    12.000000000000
         C            0.116735521333     0.416169947225    -0.000000022891    12.000000000000
         H           -1.803990178667     0.224120847225    -0.881437022891     1.007825032230
         H           -1.224279178667    -1.222914152775    -0.000009022891     1.007825032230
         H           -1.803983178667     0.224105847225     0.881446977109     1.007825032230
         H            0.205682821333     1.530499847225    -0.000000022891     1.007825032230

  Running in c1 symmetry.

  Rotational constants: A =      1.89967  B =      0.33637  C =      0.30180 [cm^-1]
  Rotational constants: A =  56950.55237  B =  10084.25321  C =   9047.63545 [MHz]
  Nuclear repulsion =   69.339330055430096

  Charge       = 0
  Multiplicity = 1
  Electrons    = 24
  Nalpha       = 12
  Nbeta        = 12

  ==> Algorithm <==

  SCF Algorithm Type is DF.
  DIIS enabled.
  MOM disabled.
  Fractional occupation disabled.
  Guess Type is SAD.
  Energy threshold   = 1.00e-10
  Density threshold  = 1.00e-10
  Integral threshold = 1.00e-12

  ==> Primary Basis <==

  Basis Set: AUG-CC-PVTZ
    Blend: AUG-CC-PVTZ
    Number of shells: 78
    Number of basis functions: 230
    Number of Cartesian functions: 265
    Spherical Harmonics?: true
    Max angular momentum: 3

   => Loading Basis Set <=

    Name: (AUG-CC-PVTZ AUX)
    Role: JKFIT
    Keyword: DF_BASIS_SCF
    atoms 1   entry O          line   286 file /home1/07844/xy3866/miniconda3/envs/p4env/share/psi4/basis/aug-cc-pvtz-jkfit.gbs 
    atoms 2-3 entry C          line   162 file /home1/07844/xy3866/miniconda3/envs/p4env/share/psi4/basis/aug-cc-pvtz-jkfit.gbs 
    atoms 4-7 entry H          line    70 file /home1/07844/xy3866/miniconda3/envs/p4env/share/psi4/basis/aug-cc-pvtz-jkfit.gbs 

  ==> Integral Setup <==

  DFHelper Memory: AOs need 0.220 GiB; user supplied 22.352 GiB. Using in-core AOs.

  ==> MemDFJK: Density-Fitted J/K Matrices <==

    J tasked:                   Yes
    K tasked:                   Yes
    wK tasked:                   No
    OpenMP threads:              32
    Memory [MiB]:             22888
    Algorithm:                 Core
    Schwarz Cutoff:           1E-12
    Mask sparsity (%):       0.2722
    Fitting Condition:        1E-10

   => Auxiliary Basis Set <=

  Basis Set: (AUG-CC-PVTZ AUX)
    Blend: AUG-CC-PVTZ-JKFIT
    Number of shells: 146
    Number of basis functions: 496
    Number of Cartesian functions: 613
    Spherical Harmonics?: true
    Max angular momentum: 4

  Minimum eigenvalue in the overlap matrix is 2.8437556799E-05.
  Reciprocal condition number of the overlap matrix is 2.3202189520E-06.
    Using symmetric orthogonalization.

  ==> Pre-Iterations <==

  SCF Guess: Superposition of Atomic Densities via on-the-fly atomic UHF (no occupation information).

   -------------------------
    Irrep   Nso     Nmo    
   -------------------------
     A        230     230 
   -------------------------
    Total     230     230
   -------------------------

  ==> Iterations <==

                           Total Energy        Delta E     RMS |[F,P]|

   @DF-RHF iter SAD:  -152.07393908379754   -1.52074e+02   0.00000e+00 
   @DF-RHF iter   1:  -152.84947312717648   -7.75534e-01   2.14036e-03 DIIS
   @DF-RHF iter   2:  -152.93281102350124   -8.33379e-02   1.45356e-03 DIIS
   @DF-RHF iter   3:  -152.97031756759645   -3.75065e-02   2.57603e-04 DIIS
   @DF-RHF iter   4:  -152.97256755154015   -2.24998e-03   9.87973e-05 DIIS
   @DF-RHF iter   5:  -152.97299868435522   -4.31133e-04   1.89174e-05 DIIS
   @DF-RHF iter   6:  -152.97302856436229   -2.98800e-05   7.72248e-06 DIIS
   @DF-RHF iter   7:  -152.97303283675430   -4.27239e-06   3.06884e-06 DIIS
   @DF-RHF iter   8:  -152.97303357082740   -7.34073e-07   6.54895e-07 DIIS
   @DF-RHF iter   9:  -152.97303360636161   -3.55342e-08   1.91345e-07 DIIS
   @DF-RHF iter  10:  -152.97303360859041   -2.22880e-09   4.08777e-08 DIIS
   @DF-RHF iter  11:  -152.97303360868722   -9.68043e-11   7.67647e-09 DIIS
   @DF-RHF iter  12:  -152.97303360869137   -4.14957e-12   1.59045e-09 DIIS
   @DF-RHF iter  13:  -152.97303360869140   -2.84217e-14   4.26929e-10 DIIS
   @DF-RHF iter  14:  -152.97303360869148   -8.52651e-14   1.12268e-10 DIIS
   @DF-RHF iter  15:  -152.97303360869162   -1.42109e-13   2.39360e-11 DIIS
  Energy and wave function converged.


  ==> Post-Iterations <==

    Orbital Energies [Eh]
    ---------------------

    Doubly Occupied:                                                      

       1A    -20.560758     2A    -11.341607     3A    -11.245988  
       4A     -1.377990     5A     -1.029696     6A     -0.801768  
       7A     -0.672472     8A     -0.621818     9A     -0.607496  
      10A     -0.560534    11A     -0.496190    12A     -0.430663  

    Virtual:                                                              

      13A      0.025829    14A      0.038381    15A      0.041845  
      16A      0.053350    17A      0.088390    18A      0.092041  
      19A      0.098264    20A      0.119520    21A      0.127910  
      22A      0.128852    23A      0.133285    24A      0.135739  
      25A      0.177714    26A      0.192511    27A      0.203040  
      28A      0.221513    29A      0.236515    30A      0.238349  
      31A      0.266580    32A      0.278364    33A      0.279425  
      34A      0.294454    35A      0.308874    36A      0.324250  
      37A      0.336106    38A      0.338314    39A      0.349993  
      40A      0.360265    41A      0.380728    42A      0.388566  
      43A      0.407747    44A      0.414031    45A      0.415599  
      46A      0.429700    47A      0.435301    48A      0.438658  
      49A      0.451532    50A      0.474504    51A      0.487284  
      52A      0.520344    53A      0.535767    54A      0.539606  
      55A      0.572056    56A      0.580317    57A      0.628525  
      58A      0.673600    59A      0.687065    60A      0.720351  
      61A      0.734912    62A      0.748969    63A      0.791713  
      64A      0.800053    65A      0.818616    66A      0.827201  
      67A      0.849645    68A      0.861865    69A      0.870025  
      70A      0.878138    71A      0.895957    72A      0.900956  
      73A      0.922710    74A      0.943142    75A      0.953058  
      76A      0.953634    77A      0.959089    78A      0.979385  
      79A      0.987991    80A      1.014510    81A      1.034213  
      82A      1.044120    83A      1.063261    84A      1.065935  
      85A      1.088296    86A      1.107113    87A      1.110427  
      88A      1.128999    89A      1.178325    90A      1.185865  
      91A      1.198203    92A      1.203226    93A      1.242449  
      94A      1.263288    95A      1.270701    96A      1.278699  
      97A      1.332873    98A      1.353009    99A      1.387616  
     100A      1.420610   101A      1.450430   102A      1.463057  
     103A      1.507848   104A      1.518558   105A      1.550084  
     106A      1.573859   107A      1.607814   108A      1.635083  
     109A      1.652068   110A      1.670197   111A      1.685557  
     112A      1.694186   113A      1.738716   114A      1.746676  
     115A      1.751410   116A      1.779367   117A      1.804245  
     118A      1.861807   119A      1.873306   120A      1.882889  
     121A      1.966608   122A      1.969460   123A      2.023222  
     124A      2.062514   125A      2.093526   126A      2.140680  
     127A      2.178953   128A      2.203999   129A      2.225532  
     130A      2.239935   131A      2.294393   132A      2.358476  
     133A      2.360156   134A      2.449697   135A      2.476069  
     136A      2.482909   137A      2.575356   138A      2.583084  
     139A      2.643025   140A      2.727405   141A      2.751710  
     142A      2.824268   143A      2.911714   144A      2.916339  
     145A      2.953307   146A      3.044773   147A      3.155422  
     148A      3.189456   149A      3.221553   150A      3.319043  
     151A      3.341700   152A      3.377724   153A      3.410336  
     154A      3.479637   155A      3.494377   156A      3.495944  
     157A      3.566865   158A      3.581478   159A      3.595930  
     160A      3.598803   161A      3.656526   162A      3.700385  
     163A      3.817900   164A      3.842160   165A      3.860596  
     166A      3.877615   167A      3.928727   168A      3.929891  
     169A      3.997664   170A      4.003567   171A      4.063326  
     172A      4.068411   173A      4.094027   174A      4.123358  
     175A      4.167440   176A      4.198722   177A      4.240210  
     178A      4.295979   179A      4.313352   180A      4.316111  
     181A      4.467698   182A      4.479208   183A      4.556902  
     184A      4.593620   185A      4.673836   186A      4.729296  
     187A      4.743448   188A      4.802820   189A      4.818851  
     190A      4.863439   191A      4.878128   192A      4.879588  
     193A      4.984816   194A      5.052291   195A      5.071161  
     196A      5.075781   197A      5.192092   198A      5.199511  
     199A      5.249066   200A      5.333919   201A      5.353261  
     202A      5.486303   203A      5.495356   204A      5.624270  
     205A      5.649702   206A      5.657467   207A      5.860241  
     208A      5.924623   209A      6.033490   210A      6.084971  
     211A      6.179851   212A      6.293152   213A      6.396104  
     214A      6.631771   215A      6.652483   216A      6.677379  
     217A      6.692115   218A      6.964759   219A      6.992879  
     220A      7.163742   221A      7.288096   222A      7.315438  
     223A      7.483708   224A      7.562786   225A      7.642512  
     226A      7.775512   227A      7.860443   228A     14.701670  
     229A     16.481422   230A     18.138680  

    Final Occupation by Irrep:
              A 
    DOCC [    12 ]

  @DF-RHF Final Energy:  -152.97303360869162

   => Energetics <=

    Nuclear Repulsion Energy =             69.3393300554300964
    One-Electron Energy =                -345.1307668347018875
    Two-Electron Energy =                 122.8184031705801971
    Total Energy =                       -152.9730336086915941

Computation Completed

*** tstop() called on c469-083.stampede2.tacc.utexas.edu at Fri Mar 19 08:17:46 2021
Module time:
	user time   =      82.66 seconds =       1.38 minutes
	system time =       9.50 seconds =       0.16 minutes
	total time  =        202 seconds =       3.37 minutes
Total time:
	user time   =      82.66 seconds =       1.38 minutes
	system time =       9.50 seconds =       0.16 minutes
	total time  =        202 seconds =       3.37 minutes
   => Loading Basis Set <=

    Name: (AUG-CC-PVTZ AUX)
    Role: RIFIT
    Keyword: DF_BASIS_MP2
    atoms 1   entry O          line   264 file /home1/07844/xy3866/miniconda3/envs/p4env/share/psi4/basis/aug-cc-pvtz-ri.gbs 
    atoms 2-3 entry C          line   148 file /home1/07844/xy3866/miniconda3/envs/p4env/share/psi4/basis/aug-cc-pvtz-ri.gbs 
    atoms 4-7 entry H          line    30 file /home1/07844/xy3866/miniconda3/envs/p4env/share/psi4/basis/aug-cc-pvtz-ri.gbs 


*** tstart() called on c469-083.stampede2.tacc.utexas.edu
*** at Fri Mar 19 08:17:47 2021


  //>>>>>>>>>>>>>>>>>>>>>>>>>>>>>>>>>>>//
  //               DFMP2               //
  //<<<<<<<<<<<<<<<<<<<<<<<<<<<<<<<<<<<//

	 --------------------------------------------------------
	                          DF-MP2                         
	      2nd-Order Density-Fitted Moller-Plesset Theory     
	              RMP2 Wavefunction,  32 Threads             
	                                                         
	        Rob Parrish, Justin Turney, Andy Simmonett,      
	           Ed Hohenstein, and C. David Sherrill          
	 --------------------------------------------------------

   => Auxiliary Basis Set <=

  Basis Set: (AUG-CC-PVTZ AUX)
    Blend: AUG-CC-PVTZ-RI
    Number of shells: 140
    Number of basis functions: 502
    Number of Cartesian functions: 628
    Spherical Harmonics?: true
    Max angular momentum: 4

	 --------------------------------------------------------
	                 NBF =   230, NAUX =   502
	 --------------------------------------------------------
	   CLASS    FOCC     OCC    AOCC    AVIR     VIR    FVIR
	   PAIRS       0      12      12     218     218       0
	 --------------------------------------------------------

  DFHelper Memory: AOs need 0.220 GiB; user supplied 22.352 GiB. Using in-core AOs.


         ------------------------------------------------------------
                                     CPHF                           
                                  Rob Parrish                       
         ------------------------------------------------------------

  ==> Geometry <==

    Molecular point group: c1
    Full point group: C1

    Geometry (in Angstrom), charge = 0, multiplicity = 1:

       Center              X                  Y                   Z               Mass       
    ------------   -----------------  -----------------  -----------------  -----------------
         O            1.150057821333    -0.260013152775    -0.000000022891    15.994914619570
         C           -1.261094178667    -0.133073152775    -0.000000022891    12.000000000000
         C            0.116735521333     0.416169947225    -0.000000022891    12.000000000000
         H           -1.803990178667     0.224120847225    -0.881437022891     1.007825032230
         H           -1.224279178667    -1.222914152775    -0.000009022891     1.007825032230
         H           -1.803983178667     0.224105847225     0.881446977109     1.007825032230
         H            0.205682821333     1.530499847225    -0.000000022891     1.007825032230

  Nuclear repulsion =   69.339330055430096
  Reference energy  = -152.973033608691622

  ==> Basis Set <==

  Basis Set: AUG-CC-PVTZ
    Blend: AUG-CC-PVTZ
    Number of shells: 78
    Number of basis functions: 230
    Number of Cartesian functions: 265
    Spherical Harmonics?: true
    Max angular momentum: 3

  ==> CGRSolver (by Rob Parrish) <==

   Number of roots    =         1
   Preconditioning    =    JACOBI
   Convergence cutoff =     1E-06
   Maximum iterations =       100

  ==> CPHFRHamiltonian (by Rob Parrish) <== 

  ==> MemDFJK: Density-Fitted J/K Matrices <==

    J tasked:                   Yes
    K tasked:                   Yes
    wK tasked:                   No
    OpenMP threads:              32
    Memory [MiB]:             22888
    Algorithm:                 Core
    Schwarz Cutoff:           1E-12
    Mask sparsity (%):       0.0529
    Fitting Condition:        1E-10

   => Auxiliary Basis Set <=

  Basis Set: (AUG-CC-PVTZ AUX)
    Blend: AUG-CC-PVTZ-JKFIT
    Number of shells: 146
    Number of basis functions: 496
    Number of Cartesian functions: 613
    Spherical Harmonics?: true
    Max angular momentum: 4

  ==> CPHF Iterations <==

  => Iterations <=

             Iter  Converged  Remaining    Residual
  CGR           1          0          1   1.093E-01
  CGR           2          0          1   3.434E-02
  CGR           3          0          1   1.062E-02
  CGR           4          0          1   3.699E-03
  CGR           5          0          1   1.212E-03
  CGR           6          0          1   3.274E-04
  CGR           7          0          1   8.108E-05
  CGR           8          0          1   2.249E-05
  CGR           9          0          1   4.663E-06
  CGR          10          1          0   8.275E-07

    CGRSolver converged.

	-----------------------------------------------------------
	 ==================> DF-MP2 Energies <==================== 
	-----------------------------------------------------------
	 Reference Energy          =    -152.9730336086916225 [Eh]
	 Singles Energy            =      -0.0000000000000000 [Eh]
	 Same-Spin Energy          =      -0.1449027767847854 [Eh]
	 Opposite-Spin Energy      =      -0.4862963688681988 [Eh]
	 Correlation Energy        =      -0.6311991456529842 [Eh]
	 Total Energy              =    -153.6042327543445936 [Eh]
	-----------------------------------------------------------
	 ================> DF-SCS-MP2 Energies <================== 
	-----------------------------------------------------------
	 SCS Same-Spin Scale       =       0.3333333333333333 [-]
	 SCS Opposite-Spin Scale   =       1.2000000000000000 [-]
	 SCS Same-Spin Energy      =      -0.0483009255949285 [Eh]
	 SCS Opposite-Spin Energy  =      -0.5835556426418385 [Eh]
	 SCS Correlation Energy    =      -0.6318565682367669 [Eh]
	 SCS Total Energy          =    -153.6048901769283930 [Eh]
	-----------------------------------------------------------



Properties will be evaluated at  -0.000000,   0.000000,  -0.000000 [a0]

Properties computed using the MP2 density matrix

  Nuclear Dipole Moment: [e a0]
     X:    -4.3317      Y:     0.7073      Z:     0.0000

  Electronic Dipole Moment: [e a0]
     X:     3.2824      Y:    -0.2548      Z:    -0.0000

  Dipole Moment: [e a0]
     X:    -1.0494      Y:     0.4525      Z:     0.0000     Total:     1.1428

  Dipole Moment: [D]
     X:    -2.6672      Y:     1.1502      Z:     0.0000     Total:     2.9046


*** tstop() called on c469-083.stampede2.tacc.utexas.edu at Fri Mar 19 08:18:06 2021
Module time:
	user time   =     128.41 seconds =       2.14 minutes
	system time =       9.21 seconds =       0.15 minutes
	total time  =         19 seconds =       0.32 minutes
Total time:
	user time   =     213.44 seconds =       3.56 minutes
	system time =      18.93 seconds =       0.32 minutes
	total time  =        222 seconds =       3.70 minutes

    Psi4 stopped on: Friday, 19 March 2021 08:18AM
    Psi4 wall time for execution: 0:03:42.34

*** Psi4 exiting successfully. Buy a developer a beer!

