
    -----------------------------------------------------------------------
          Psi4: An Open-Source Ab Initio Electronic Structure Package
                               Psi4 1.3.2 release

                         Git: Rev {HEAD} ecbda83 


    R. M. Parrish, L. A. Burns, D. G. A. Smith, A. C. Simmonett,
    A. E. DePrince III, E. G. Hohenstein, U. Bozkaya, A. Yu. Sokolov,
    R. Di Remigio, R. M. Richard, J. F. Gonthier, A. M. James,
    H. R. McAlexander, A. Kumar, M. Saitow, X. Wang, B. P. Pritchard,
    P. Verma, H. F. Schaefer III, K. Patkowski, R. A. King, E. F. Valeev,
    F. A. Evangelista, J. M. Turney, T. D. Crawford, and C. D. Sherrill,
    J. Chem. Theory Comput. 13(7) pp 3185--3197 (2017).
    (doi: 10.1021/acs.jctc.7b00174)


                         Additional Contributions by
    P. Kraus, H. Kruse, M. H. Lechner, M. C. Schieber, R. A. Shaw,
    A. Alenaizan, R. Galvelis, Z. L. Glick, S. Lehtola, and J. P. Misiewicz

    -----------------------------------------------------------------------


    Psi4 started on: Thursday, 05 November 2020 07:17PM

    Process ID: 27750
    Host:       node35.bme.utexas.edu
    PSIDATADIR: /home/xy3866/psi4conda/share/psi4
    Memory:     500.0 MiB
    Threads:    8
    
  ==> Input File <==

--------------------------------------------------------------------------
#psi4
#
memory 32 gb

molecule  {
0 1
  O        1.1638030    -0.3798443     0.0000081
  C       -1.1702100    -0.1504720    -0.0000180
  C        0.2261640     0.4062520     0.0000350
  H       -1.7133170     0.2069280    -0.8812060
  H       -1.1329820    -1.2403210    -0.0006610
  H       -1.7128360     0.2058240     0.8819220
  H        0.2967200     1.5131120    -0.0000780
units angstrom
no_reorient  #important for SAPT in psi4, default
symmetry c1  #important for SAPT in psi4, default
}

set PROPERTIES_ORIGIN ["COM"]
properties('MP2/aug-cc-pvtz', properties = ['dipole'])
--------------------------------------------------------------------------

  Memory set to  29.802 GiB by Python driver.
    SCF Algorithm Type (re)set to DF.

*** tstart() called on node35.bme.utexas.edu
*** at Thu Nov  5 19:17:56 2020

   => Loading Basis Set <=

    Name: AUG-CC-PVTZ
    Role: ORBITAL
    Keyword: BASIS
    atoms 1   entry O          line   327 file /home/xy3866/psi4conda/share/psi4/basis/aug-cc-pvtz.gbs 
    atoms 2-3 entry C          line   235 file /home/xy3866/psi4conda/share/psi4/basis/aug-cc-pvtz.gbs 
    atoms 4-7 entry H          line    36 file /home/xy3866/psi4conda/share/psi4/basis/aug-cc-pvtz.gbs 


         ---------------------------------------------------------
                                   SCF
               by Justin Turney, Rob Parrish, Andy Simmonett
                          and Daniel G. A. Smith
                              RHF Reference
                        8 Threads,  30517 MiB Core
         ---------------------------------------------------------

  ==> Geometry <==

    Molecular point group: c1
    Full point group: C1

    Geometry (in Angstrom), charge = 0, multiplicity = 1:

       Center              X                  Y                   Z               Mass       
    ------------   -----------------  -----------------  -----------------  -----------------
         O            1.095875082478    -0.327254956029     0.000001050136    15.994914619570
         C           -1.238137917522    -0.097882656029    -0.000025049864    12.000000000000
         C            0.158236082478     0.458841343971     0.000027950136    12.000000000000
         H           -1.781244917522     0.259517343971    -0.881213049864     1.007825032230
         H           -1.200909917522    -1.187731656029    -0.000668049864     1.007825032230
         H           -1.780763917522     0.258413343971     0.881914950136     1.007825032230
         H            0.228792082478     1.565701343971    -0.000085049864     1.007825032230

  Running in c1 symmetry.

  Rotational constants: A =      1.72430  B =      0.35457  C =      0.31110 [cm^-1]
  Rotational constants: A =  51693.08100  B =  10629.84491  C =   9326.57503 [MHz]
  Nuclear repulsion =   69.719703583929572

  Charge       = 0
  Multiplicity = 1
  Electrons    = 24
  Nalpha       = 12
  Nbeta        = 12

  ==> Algorithm <==

  SCF Algorithm Type is DF.
  DIIS enabled.
  MOM disabled.
  Fractional occupation disabled.
  Guess Type is SAD.
  Energy threshold   = 1.00e-10
  Density threshold  = 1.00e-10
  Integral threshold = 0.00e+00

  ==> Primary Basis <==

  Basis Set: AUG-CC-PVTZ
    Blend: AUG-CC-PVTZ
    Number of shells: 78
    Number of basis function: 230
    Number of Cartesian functions: 265
    Spherical Harmonics?: true
    Max angular momentum: 3

   => Loading Basis Set <=

    Name: (AUG-CC-PVTZ AUX)
    Role: JKFIT
    Keyword: DF_BASIS_SCF
    atoms 1   entry O          line   286 file /home/xy3866/psi4conda/share/psi4/basis/aug-cc-pvtz-jkfit.gbs 
    atoms 2-3 entry C          line   162 file /home/xy3866/psi4conda/share/psi4/basis/aug-cc-pvtz-jkfit.gbs 
    atoms 4-7 entry H          line    70 file /home/xy3866/psi4conda/share/psi4/basis/aug-cc-pvtz-jkfit.gbs 

  ==> Pre-Iterations <==

   -------------------------------------------------------
    Irrep   Nso     Nmo     Nalpha   Nbeta   Ndocc  Nsocc
   -------------------------------------------------------
     A        230     230       0       0       0       0
   -------------------------------------------------------
    Total     230     230      12      12      12       0
   -------------------------------------------------------

  ==> Integral Setup <==

  DFHelper Memory: AOs need 0.211 GiB; user supplied 22.352 GiB. Using in-core AOs.

  ==> MemDFJK: Density-Fitted J/K Matrices <==

    J tasked:                   Yes
    K tasked:                   Yes
    wK tasked:                   No
    OpenMP threads:               8
    Memory [MiB]:             22888
    Algorithm:                 Core
    Schwarz Cutoff:           1E-12
    Mask sparsity (%):       0.0076
    Fitting Condition:        1E-10

   => Auxiliary Basis Set <=

  Basis Set: (AUG-CC-PVTZ AUX)
    Blend: AUG-CC-PVTZ-JKFIT
    Number of shells: 146
    Number of basis function: 496
    Number of Cartesian functions: 613
    Spherical Harmonics?: true
    Max angular momentum: 4

  Minimum eigenvalue in the overlap matrix is 3.2017264176E-05.
  Using Symmetric Orthogonalization.

  SCF Guess: Superposition of Atomic Densities via on-the-fly atomic UHF.

  ==> Iterations <==

                           Total Energy        Delta E     RMS |[F,P]|

   @DF-RHF iter SAD:  -152.08265979342852   -1.52083e+02   0.00000e+00 
   @DF-RHF iter   1:  -152.84719718533356   -7.64537e-01   2.15951e-03 DIIS
   @DF-RHF iter   2:  -152.93154000643682   -8.43428e-02   1.45764e-03 DIIS
   @DF-RHF iter   3:  -152.96953221785043   -3.79922e-02   2.53381e-04 DIIS
   @DF-RHF iter   4:  -152.97170814382579   -2.17593e-03   9.85552e-05 DIIS
   @DF-RHF iter   5:  -152.97212898929732   -4.20845e-04   1.88265e-05 DIIS
   @DF-RHF iter   6:  -152.97215833056495   -2.93413e-05   7.46532e-06 DIIS
   @DF-RHF iter   7:  -152.97216230611420   -3.97555e-06   2.99700e-06 DIIS
   @DF-RHF iter   8:  -152.97216296805598   -6.61942e-07   7.29924e-07 DIIS
   @DF-RHF iter   9:  -152.97216301167578   -4.36198e-08   1.94339e-07 DIIS
   @DF-RHF iter  10:  -152.97216301431206   -2.63628e-09   4.13590e-08 DIIS
   @DF-RHF iter  11:  -152.97216301441890   -1.06837e-10   7.69781e-09 DIIS
   @DF-RHF iter  12:  -152.97216301442327   -4.37694e-12   1.54571e-09 DIIS
   @DF-RHF iter  13:  -152.97216301442356   -2.84217e-13   3.96344e-10 DIIS
   @DF-RHF iter  14:  -152.97216301442344    1.13687e-13   1.05906e-10 DIIS
   @DF-RHF iter  15:  -152.97216301442342    2.84217e-14   2.24084e-11 DIIS
  Energy and wave function converged.


  ==> Post-Iterations <==

    Orbital Energies [Eh]
    ---------------------

    Doubly Occupied:                                                      

       1A    -20.561438     2A    -11.341040     3A    -11.239402  
       4A     -1.386839     5A     -1.018051     6A     -0.806690  
       7A     -0.674920     8A     -0.618713     9A     -0.602663  
      10A     -0.558589    11A     -0.499565    12A     -0.428861  

    Virtual:                                                              

      13A      0.026253    14A      0.038363    15A      0.042343  
      16A      0.053919    17A      0.088859    18A      0.090566  
      19A      0.097585    20A      0.120259    21A      0.127679  
      22A      0.129244    23A      0.134516    24A      0.137548  
      25A      0.176836    26A      0.194446    27A      0.203170  
      28A      0.222742    29A      0.234489    30A      0.238340  
      31A      0.267062    32A      0.275065    33A      0.279301  
      34A      0.292858    35A      0.307807    36A      0.325469  
      37A      0.337379    38A      0.339029    39A      0.352707  
      40A      0.361375    41A      0.383856    42A      0.391308  
      43A      0.407347    44A      0.415758    45A      0.416756  
      46A      0.428037    47A      0.439883    48A      0.440193  
      49A      0.451115    50A      0.476797    51A      0.490536  
      52A      0.518872    53A      0.524298    54A      0.541399  
      55A      0.574855    56A      0.580702    57A      0.628301  
      58A      0.677717    59A      0.684155    60A      0.711598  
      61A      0.727482    62A      0.766037    63A      0.793306  
      64A      0.803570    65A      0.820802    66A      0.820921  
      67A      0.851621    68A      0.860916    69A      0.870331  
      70A      0.876773    71A      0.889070    72A      0.913203  
      73A      0.926133    74A      0.945792    75A      0.949223  
      76A      0.952419    77A      0.959196    78A      0.973760  
      79A      0.986155    80A      1.018186    81A      1.038996  
      82A      1.049082    83A      1.062530    84A      1.073691  
      85A      1.083836    86A      1.111280    87A      1.111471  
      88A      1.132023    89A      1.163872    90A      1.195434  
      91A      1.197162    92A      1.207844    93A      1.255135  
      94A      1.269294    95A      1.269560    96A      1.281805  
      97A      1.332151    98A      1.340996    99A      1.413258  
     100A      1.418777   101A      1.448127   102A      1.479398  
     103A      1.510563   104A      1.536871   105A      1.557028  
     106A      1.576196   107A      1.590469   108A      1.637960  
     109A      1.639528   110A      1.663235   111A      1.684415  
     112A      1.693428   113A      1.739459   114A      1.740107  
     115A      1.764295   116A      1.781516   117A      1.809637  
     118A      1.860193   119A      1.864784   120A      1.879386  
     121A      1.952457   122A      1.977342   123A      2.011953  
     124A      2.067583   125A      2.088607   126A      2.166375  
     127A      2.174409   128A      2.212706   129A      2.227173  
     130A      2.232384   131A      2.282780   132A      2.358939  
     133A      2.365114   134A      2.451552   135A      2.465409  
     136A      2.496618   137A      2.585375   138A      2.594197  
     139A      2.638493   140A      2.739250   141A      2.765834  
     142A      2.840554   143A      2.871003   144A      2.908530  
     145A      2.953815   146A      3.016287   147A      3.138821  
     148A      3.158671   149A      3.247609   150A      3.327635  
     151A      3.354490   152A      3.390929   153A      3.418514  
     154A      3.484962   155A      3.488238   156A      3.493162  
     157A      3.574278   158A      3.579226   159A      3.593722  
     160A      3.605173   161A      3.642548   162A      3.697751  
     163A      3.820994   164A      3.847004   165A      3.853642  
     166A      3.863424   167A      3.933124   168A      3.937525  
     169A      3.989226   170A      4.009069   171A      4.070136  
     172A      4.073201   173A      4.092188   174A      4.138953  
     175A      4.179364   176A      4.223443   177A      4.258328  
     178A      4.304671   179A      4.323208   180A      4.338029  
     181A      4.450552   182A      4.463978   183A      4.556766  
     184A      4.588157   185A      4.663318   186A      4.739211  
     187A      4.765961   188A      4.806553   189A      4.815976  
     190A      4.837334   191A      4.880739   192A      4.914490  
     193A      4.988973   194A      5.048988   195A      5.084206  
     196A      5.112811   197A      5.174693   198A      5.179468  
     199A      5.292549   200A      5.328093   201A      5.373676  
     202A      5.455780   203A      5.492160   204A      5.631189  
     205A      5.637967   206A      5.649148   207A      5.825797  
     208A      5.965530   209A      6.080402   210A      6.082240  
     211A      6.184662   212A      6.244101   213A      6.411334  
     214A      6.643114   215A      6.653278   216A      6.670330  
     217A      6.719245   218A      6.971191   219A      7.021154  
     220A      7.151329   221A      7.291109   222A      7.327752  
     223A      7.516388   224A      7.576291   225A      7.636196  
     226A      7.787044   227A      7.856678   228A     15.136346  
     229A     16.551660   230A     17.922680  

    Final Occupation by Irrep:
              A 
    DOCC [    12 ]

  @DF-RHF Final Energy:  -152.97216301442342

   => Energetics <=

    Nuclear Repulsion Energy =             69.7197035839295722
    One-Electron Energy =                -345.9101915120229478
    Two-Electron Energy =                 123.2183249136699601
    Total Energy =                       -152.9721630144234155

Computation Completed

*** tstop() called on node35.bme.utexas.edu at Thu Nov  5 19:18:02 2020
Module time:
	user time   =      32.95 seconds =       0.55 minutes
	system time =       2.70 seconds =       0.05 minutes
	total time  =          6 seconds =       0.10 minutes
Total time:
	user time   =      32.95 seconds =       0.55 minutes
	system time =       2.70 seconds =       0.05 minutes
	total time  =          6 seconds =       0.10 minutes
   => Loading Basis Set <=

    Name: (AUG-CC-PVTZ AUX)
    Role: RIFIT
    Keyword: DF_BASIS_MP2
    atoms 1   entry O          line   264 file /home/xy3866/psi4conda/share/psi4/basis/aug-cc-pvtz-ri.gbs 
    atoms 2-3 entry C          line   148 file /home/xy3866/psi4conda/share/psi4/basis/aug-cc-pvtz-ri.gbs 
    atoms 4-7 entry H          line    30 file /home/xy3866/psi4conda/share/psi4/basis/aug-cc-pvtz-ri.gbs 


*** tstart() called on node35.bme.utexas.edu
*** at Thu Nov  5 19:18:03 2020


  //>>>>>>>>>>>>>>>>>>>>>>>>>>>>>>>>>>>//
  //               DFMP2               //
  //<<<<<<<<<<<<<<<<<<<<<<<<<<<<<<<<<<<//

	 --------------------------------------------------------
	                          DF-MP2                         
	      2nd-Order Density-Fitted Moller-Plesset Theory     
	              RMP2 Wavefunction,   8 Threads             
	                                                         
	        Rob Parrish, Justin Turney, Andy Simmonett,      
	           Ed Hohenstein, and C. David Sherrill          
	 --------------------------------------------------------

   => Auxiliary Basis Set <=

  Basis Set: (AUG-CC-PVTZ AUX)
    Blend: AUG-CC-PVTZ-RI
    Number of shells: 140
    Number of basis function: 502
    Number of Cartesian functions: 628
    Spherical Harmonics?: true
    Max angular momentum: 4

	 --------------------------------------------------------
	                 NBF =   230, NAUX =   502
	 --------------------------------------------------------
	   CLASS    FOCC     OCC    AOCC    AVIR     VIR    FVIR
	   PAIRS       0      12      12     218     218       0
	 --------------------------------------------------------

  DFHelper Memory: AOs need 0.211 GiB; user supplied 22.352 GiB. Using in-core AOs.


         ------------------------------------------------------------
                                     CPHF                           
                                  Rob Parrish                       
         ------------------------------------------------------------

  ==> Geometry <==

    Molecular point group: c1
    Full point group: C1

    Geometry (in Angstrom), charge = 0, multiplicity = 1:

       Center              X                  Y                   Z               Mass       
    ------------   -----------------  -----------------  -----------------  -----------------
         O            1.095875082478    -0.327254956029     0.000001050136    15.994914619570
         C           -1.238137917522    -0.097882656029    -0.000025049864    12.000000000000
         C            0.158236082478     0.458841343971     0.000027950136    12.000000000000
         H           -1.781244917522     0.259517343971    -0.881213049864     1.007825032230
         H           -1.200909917522    -1.187731656029    -0.000668049864     1.007825032230
         H           -1.780763917522     0.258413343971     0.881914950136     1.007825032230
         H            0.228792082478     1.565701343971    -0.000085049864     1.007825032230

  Nuclear repulsion =   69.719703583929572
  Reference energy  = -152.972163014423415

  ==> Basis Set <==

  Basis Set: AUG-CC-PVTZ
    Blend: AUG-CC-PVTZ
    Number of shells: 78
    Number of basis function: 230
    Number of Cartesian functions: 265
    Spherical Harmonics?: true
    Max angular momentum: 3

  ==> CGRSolver (by Rob Parrish) <==

   Number of roots    =         1
   Preconditioning    =    JACOBI
   Convergence cutoff =     1E-06
   Maximum iterations =       100

  ==> CPHFRHamiltonian (by Rob Parrish) <== 

  ==> MemDFJK: Density-Fitted J/K Matrices <==

    J tasked:                   Yes
    K tasked:                   Yes
    wK tasked:                   No
    OpenMP threads:               8
    Memory [MiB]:             22888
    Algorithm:                 Core
    Schwarz Cutoff:           1E-12
    Mask sparsity (%):       0.0076
    Fitting Condition:        1E-10

   => Auxiliary Basis Set <=

  Basis Set: (AUG-CC-PVTZ AUX)
    Blend: AUG-CC-PVTZ-JKFIT
    Number of shells: 146
    Number of basis function: 496
    Number of Cartesian functions: 613
    Spherical Harmonics?: true
    Max angular momentum: 4

  ==> CPHF Iterations <==

  => Iterations <=

             Iter  Converged  Remaining    Residual
  CGR           1          0          1   1.075E-01
  CGR           2          0          1   3.296E-02
  CGR           3          0          1   1.000E-02
  CGR           4          0          1   3.314E-03
  CGR           5          0          1   1.103E-03
  CGR           6          0          1   3.463E-04
  CGR           7          0          1   8.828E-05
  CGR           8          0          1   2.423E-05
  CGR           9          0          1   4.940E-06
  CGR          10          1          0   9.008E-07

    CGRSolver converged.

	-----------------------------------------------------------
	 ==================> DF-MP2 Energies <==================== 
	-----------------------------------------------------------
	 Reference Energy          =    -152.9721630144234155 [Eh]
	 Singles Energy            =      -0.0000000000000000 [Eh]
	 Same-Spin Energy          =      -0.1445891210364129 [Eh]
	 Opposite-Spin Energy      =      -0.4857460791522223 [Eh]
	 Correlation Energy        =      -0.6303352001886353 [Eh]
	 Total Energy              =    -153.6024982146120408 [Eh]
	-----------------------------------------------------------
	 ================> DF-SCS-MP2 Energies <================== 
	-----------------------------------------------------------
	 SCS Same-Spin Scale       =       0.3333333333333333 [-]
	 SCS Opposite-Spin Scale   =       1.2000000000000000 [-]
	 SCS Same-Spin Energy      =      -0.0481963736788043 [Eh]
	 SCS Opposite-Spin Energy  =      -0.5828952949826668 [Eh]
	 SCS Correlation Energy    =      -0.6310916686614712 [Eh]
	 SCS Total Energy          =    -153.6032546830848844 [Eh]
	-----------------------------------------------------------



Properties will be evaluated at   0.000000,  -0.000000,  -0.000000 [a0]

Properties computed using the MP2 density matrix

  Nuclear Dipole Moment: [e a0]
     X:    -4.2453      Y:     0.8383      Z:    -0.0000

  Electronic Dipole Moment: [e a0]
     X:     3.3195      Y:    -0.2904      Z:     0.0001

  Dipole Moment: [e a0]
     X:    -0.9259      Y:     0.5479      Z:     0.0000     Total:     1.0758

  Dipole Moment: [D]
     X:    -2.3533      Y:     1.3927      Z:     0.0001     Total:     2.7345


*** tstop() called on node35.bme.utexas.edu at Thu Nov  5 19:18:12 2020
Module time:
	user time   =      52.22 seconds =       0.87 minutes
	system time =       3.85 seconds =       0.06 minutes
	total time  =          9 seconds =       0.15 minutes
Total time:
	user time   =      86.07 seconds =       1.43 minutes
	system time =       6.63 seconds =       0.11 minutes
	total time  =         16 seconds =       0.27 minutes

    Psi4 stopped on: Thursday, 05 November 2020 07:18PM
    Psi4 wall time for execution: 0:00:15.73

*** Psi4 exiting successfully. Buy a developer a beer!
