
    -----------------------------------------------------------------------
          Psi4: An Open-Source Ab Initio Electronic Structure Package
                               Psi4 1.3.2 release

                         Git: Rev {HEAD} ecbda83 


    R. M. Parrish, L. A. Burns, D. G. A. Smith, A. C. Simmonett,
    A. E. DePrince III, E. G. Hohenstein, U. Bozkaya, A. Yu. Sokolov,
    R. Di Remigio, R. M. Richard, J. F. Gonthier, A. M. James,
    H. R. McAlexander, A. Kumar, M. Saitow, X. Wang, B. P. Pritchard,
    P. Verma, H. F. Schaefer III, K. Patkowski, R. A. King, E. F. Valeev,
    F. A. Evangelista, J. M. Turney, T. D. Crawford, and C. D. Sherrill,
    J. Chem. Theory Comput. 13(7) pp 3185--3197 (2017).
    (doi: 10.1021/acs.jctc.7b00174)


                         Additional Contributions by
    P. Kraus, H. Kruse, M. H. Lechner, M. C. Schieber, R. A. Shaw,
    A. Alenaizan, R. Galvelis, Z. L. Glick, S. Lehtola, and J. P. Misiewicz

    -----------------------------------------------------------------------


    Psi4 started on: Tuesday, 03 November 2020 03:19AM

    Process ID: 10926
    Host:       node54.bme.utexas.edu
    PSIDATADIR: /home/xy3866/psi4conda/share/psi4
    Memory:     500.0 MiB
    Threads:    8
    
  ==> Input File <==

--------------------------------------------------------------------------
#psi4
#
memory 32 gb

molecule  {
0 1
  O       -1.6636540     1.3623100    -0.0826750
  O        3.2950020     0.8732560    -0.0394660
  O        2.6676780    -1.2988900     0.0825990
  C       -2.5713650    -0.8630400     0.0337620
  C       -1.4513780     0.1516300    -0.0098980
  C       -3.9526870    -0.2300600    -0.0211700
  C       -0.0687043    -0.3805993     0.0318900
  C        0.9984040     0.4317740    -0.0078830
  C        2.3750219    -0.1050415     0.0213351
  H       -2.4419680    -1.4628000     0.9443570
  H       -2.4189490    -1.5634100    -0.8003330
  H       -4.1001540     0.4487780     0.8215890
  H       -4.7285220    -0.9991160     0.0102380
  H       -4.0749460     0.3516660    -0.9371360
  H        0.0882100    -1.4658090     0.0960520
  H        0.8681440     1.5076730    -0.0687300
  H        4.1643390     0.4215720    -0.0233140
units angstrom
no_reorient  #important for SAPT in psi4, default
symmetry c1  #important for SAPT in psi4, default
}

set PROPERTIES_ORIGIN ["COM"]
properties('MP2/aug-cc-pvtz', properties = ['dipole'])
--------------------------------------------------------------------------

  Memory set to  29.802 GiB by Python driver.
    SCF Algorithm Type (re)set to DF.

*** tstart() called on node54.bme.utexas.edu
*** at Tue Nov  3 03:19:04 2020

   => Loading Basis Set <=

    Name: AUG-CC-PVTZ
    Role: ORBITAL
    Keyword: BASIS
    atoms 1-3   entry O          line   327 file /home/xy3866/psi4conda/share/psi4/basis/aug-cc-pvtz.gbs 
    atoms 4-9   entry C          line   235 file /home/xy3866/psi4conda/share/psi4/basis/aug-cc-pvtz.gbs 
    atoms 10-17 entry H          line    36 file /home/xy3866/psi4conda/share/psi4/basis/aug-cc-pvtz.gbs 


         ---------------------------------------------------------
                                   SCF
               by Justin Turney, Rob Parrish, Andy Simmonett
                          and Daniel G. A. Smith
                              RHF Reference
                        8 Threads,  30517 MiB Core
         ---------------------------------------------------------

  ==> Geometry <==

    Molecular point group: c1
    Full point group: C1

    Geometry (in Angstrom), charge = 0, multiplicity = 1:

       Center              X                  Y                   Z               Mass       
    ------------   -----------------  -----------------  -----------------  -----------------
         O           -1.663429618266     1.360318887697    -0.082573628081    15.994914619570
         O            3.295226381734     0.871264887697    -0.039364628081    15.994914619570
         O            2.667902381734    -1.300881112303     0.082700371919    15.994914619570
         C           -2.571140618266    -0.865031112303     0.033863371919    12.000000000000
         C           -1.451153618266     0.149638887697    -0.009796628081    12.000000000000
         C           -3.952462618266    -0.232051112303    -0.021068628081    12.000000000000
         C           -0.068479918266    -0.382590412303     0.031991371919    12.000000000000
         C            0.998628381734     0.429782887697    -0.007781628081    12.000000000000
         C            2.375246281734    -0.107032612303     0.021436471919    12.000000000000
         H           -2.441743618266    -1.464791112303     0.944458371919     1.007825032230
         H           -2.418724618266    -1.565401112303    -0.800231628081     1.007825032230
         H           -4.099929618266     0.446786887697     0.821690371919     1.007825032230
         H           -4.728297618266    -1.001107112303     0.010339371919     1.007825032230
         H           -4.074721618266     0.349674887697    -0.937034628081     1.007825032230
         H            0.088434381734    -1.467800112303     0.096153371919     1.007825032230
         H            0.868368381734     1.505681887697    -0.068628628081     1.007825032230
         H            4.164563381734     0.419580887697    -0.023212628081     1.007825032230

  Running in c1 symmetry.

  Rotational constants: A =      0.17419  B =      0.02126  C =      0.01908 [cm^-1]
  Rotational constants: A =   5221.98011  B =    637.23360  C =    571.92881 [MHz]
  Nuclear repulsion =  413.518955032134897

  Charge       = 0
  Multiplicity = 1
  Electrons    = 68
  Nalpha       = 34
  Nbeta        = 34

  ==> Algorithm <==

  SCF Algorithm Type is DF.
  DIIS enabled.
  MOM disabled.
  Fractional occupation disabled.
  Guess Type is SAD.
  Energy threshold   = 1.00e-10
  Density threshold  = 1.00e-10
  Integral threshold = 0.00e+00

  ==> Primary Basis <==

  Basis Set: AUG-CC-PVTZ
    Blend: AUG-CC-PVTZ
    Number of shells: 198
    Number of basis function: 598
    Number of Cartesian functions: 695
    Spherical Harmonics?: true
    Max angular momentum: 3

   => Loading Basis Set <=

    Name: (AUG-CC-PVTZ AUX)
    Role: JKFIT
    Keyword: DF_BASIS_SCF
    atoms 1-3   entry O          line   286 file /home/xy3866/psi4conda/share/psi4/basis/aug-cc-pvtz-jkfit.gbs 
    atoms 4-9   entry C          line   162 file /home/xy3866/psi4conda/share/psi4/basis/aug-cc-pvtz-jkfit.gbs 
    atoms 10-17 entry H          line    70 file /home/xy3866/psi4conda/share/psi4/basis/aug-cc-pvtz-jkfit.gbs 

  ==> Pre-Iterations <==

   -------------------------------------------------------
    Irrep   Nso     Nmo     Nalpha   Nbeta   Ndocc  Nsocc
   -------------------------------------------------------
     A        598     598       0       0       0       0
   -------------------------------------------------------
    Total     598     598      34      34      34       0
   -------------------------------------------------------

  ==> Integral Setup <==

  DFHelper Memory: AOs need 3.204 GiB; user supplied 22.352 GiB. Using in-core AOs.

  ==> MemDFJK: Density-Fitted J/K Matrices <==

    J tasked:                   Yes
    K tasked:                   Yes
    wK tasked:                   No
    OpenMP threads:               8
    Memory [MiB]:             22888
    Algorithm:                 Disk
    Schwarz Cutoff:           1E-12
    Mask sparsity (%):      10.8405
    Fitting Condition:        1E-10

   => Auxiliary Basis Set <=

  Basis Set: (AUG-CC-PVTZ AUX)
    Blend: AUG-CC-PVTZ-JKFIT
    Number of shells: 382
    Number of basis function: 1304
    Number of Cartesian functions: 1619
    Spherical Harmonics?: true
    Max angular momentum: 4

  Minimum eigenvalue in the overlap matrix is 2.4543283409E-06.
  Using Symmetric Orthogonalization.

  SCF Guess: Superposition of Atomic Densities via on-the-fly atomic UHF.

  ==> Iterations <==

                           Total Energy        Delta E     RMS |[F,P]|

   @DF-RHF iter SAD:  -455.19892737746000   -4.55199e+02   0.00000e+00 
   @DF-RHF iter   1:  -456.31963342301492   -1.12071e+00   1.32610e-03 DIIS
   @DF-RHF iter   2:  -456.54008624117466   -2.20453e-01   8.17631e-04 DIIS
   @DF-RHF iter   3:  -456.62099661226375   -8.09104e-02   1.54993e-04 DIIS
   @DF-RHF iter   4:  -456.62618027579163   -5.18366e-03   6.47412e-05 DIIS
   @DF-RHF iter   5:  -456.62716608427917   -9.85808e-04   1.46158e-05 DIIS
   @DF-RHF iter   6:  -456.62724793325106   -8.18490e-05   7.40145e-06 DIIS
   @DF-RHF iter   7:  -456.62726785469437   -1.99214e-05   2.69781e-06 DIIS
   @DF-RHF iter   8:  -456.62727151812481   -3.66343e-06   1.09517e-06 DIIS
   @DF-RHF iter   9:  -456.62727209982853   -5.81704e-07   3.75504e-07 DIIS
   @DF-RHF iter  10:  -456.62727215916993   -5.93414e-08   1.48754e-07 DIIS
   @DF-RHF iter  11:  -456.62727216592685   -6.75692e-09   5.15504e-08 DIIS
   @DF-RHF iter  12:  -456.62727216679781   -8.70955e-10   1.84117e-08 DIIS
   @DF-RHF iter  13:  -456.62727216692434   -1.26533e-10   5.84484e-09 DIIS
   @DF-RHF iter  14:  -456.62727216694742   -2.30784e-11   3.38469e-09 DIIS
   @DF-RHF iter  15:  -456.62727216695328   -5.85487e-12   1.21007e-09 DIIS
   @DF-RHF iter  16:  -456.62727216695612   -2.84217e-12   5.70093e-10 DIIS
   @DF-RHF iter  17:  -456.62727216695691   -7.95808e-13   1.65946e-10 DIIS
   @DF-RHF iter  18:  -456.62727216695663    2.84217e-13   5.07307e-11 DIIS
  Energy and wave function converged.


  ==> Post-Iterations <==

    Orbital Energies [Eh]
    ---------------------

    Doubly Occupied:                                                      

       1A    -20.631405     2A    -20.560290     3A    -20.559347  
       4A    -11.406525     5A    -11.349105     6A    -11.277023  
       7A    -11.275359     8A    -11.252368     9A    -11.225066  
      10A     -1.475866    11A     -1.390667    12A     -1.363478  
      13A     -1.108957    14A     -1.065563    15A     -0.959126  
      16A     -0.888993    17A     -0.802605    18A     -0.745027  
      19A     -0.719174    20A     -0.713576    21A     -0.662870  
      22A     -0.645342    23A     -0.641108    24A     -0.640077  
      25A     -0.605250    26A     -0.566283    27A     -0.540325  
      28A     -0.539077    29A     -0.524349    30A     -0.500186  
      31A     -0.494350    32A     -0.470185    33A     -0.435949  
      34A     -0.403431  

    Virtual:                                                              

      35A      0.025827    36A      0.030043    37A      0.031927  
      38A      0.038801    39A      0.040163    40A      0.045446  
      41A      0.056538    42A      0.063470    43A      0.068015  
      44A      0.084954    45A      0.085737    46A      0.098236  
      47A      0.103661    48A      0.112879    49A      0.115070  
      50A      0.119696    51A      0.124736    52A      0.127490  
      53A      0.130420    54A      0.130992    55A      0.138157  
      56A      0.144225    57A      0.148452    58A      0.157688  
      59A      0.160249    60A      0.164442    61A      0.172833  
      62A      0.175869    63A      0.186429    64A      0.198323  
      65A      0.208918    66A      0.215887    67A      0.217557  
      68A      0.225007    69A      0.228021    70A      0.228300  
      71A      0.232624    72A      0.240785    73A      0.250202  
      74A      0.256184    75A      0.256291    76A      0.263704  
      77A      0.270253    78A      0.271437    79A      0.276298  
      80A      0.282939    81A      0.283559    82A      0.293937  
      83A      0.302020    84A      0.314895    85A      0.316867  
      86A      0.318301    87A      0.327512    88A      0.328353  
      89A      0.336297    90A      0.344955    91A      0.350064  
      92A      0.355936    93A      0.365955    94A      0.370716  
      95A      0.375477    96A      0.379492    97A      0.385620  
      98A      0.394184    99A      0.396376   100A      0.401567  
     101A      0.404808   102A      0.415084   103A      0.416220  
     104A      0.417618   105A      0.426677   106A      0.434924  
     107A      0.441321   108A      0.444241   109A      0.446786  
     110A      0.447168   111A      0.452681   112A      0.459032  
     113A      0.462339   114A      0.464286   115A      0.474219  
     116A      0.474535   117A      0.482221   118A      0.484452  
     119A      0.493342   120A      0.497493   121A      0.507489  
     122A      0.509907   123A      0.512493   124A      0.525049  
     125A      0.525840   126A      0.530536   127A      0.531821  
     128A      0.533098   129A      0.544132   130A      0.567426  
     131A      0.573246   132A      0.578948   133A      0.579999  
     134A      0.585133   135A      0.592415   136A      0.595845  
     137A      0.604995   138A      0.615007   139A      0.631859  
     140A      0.633958   141A      0.635387   142A      0.656112  
     143A      0.666558   144A      0.685593   145A      0.690626  
     146A      0.706924   147A      0.714332   148A      0.718915  
     149A      0.720362   150A      0.732267   151A      0.740153  
     152A      0.754412   153A      0.761304   154A      0.781819  
     155A      0.783478   156A      0.798807   157A      0.805504  
     158A      0.810081   159A      0.814397   160A      0.819644  
     161A      0.822010   162A      0.831220   163A      0.832885  
     164A      0.834658   165A      0.848589   166A      0.857997  
     167A      0.860184   168A      0.863598   169A      0.865519  
     170A      0.869305   171A      0.887418   172A      0.888662  
     173A      0.894446   174A      0.899373   175A      0.899715  
     176A      0.909345   177A      0.925583   178A      0.926461  
     179A      0.927100   180A      0.930996   181A      0.935992  
     182A      0.944037   183A      0.948370   184A      0.949411  
     185A      0.950819   186A      0.967455   187A      0.981425  
     188A      0.990206   189A      0.992623   190A      0.995059  
     191A      1.004447   192A      1.005689   193A      1.015152  
     194A      1.022004   195A      1.031514   196A      1.036360  
     197A      1.040521   198A      1.044920   199A      1.057279  
     200A      1.065329   201A      1.067053   202A      1.074776  
     203A      1.080267   204A      1.095104   205A      1.095983  
     206A      1.098914   207A      1.104198   208A      1.106683  
     209A      1.113377   210A      1.116421   211A      1.132083  
     212A      1.132671   213A      1.160631   214A      1.162258  
     215A      1.170020   216A      1.172136   217A      1.176650  
     218A      1.184691   219A      1.196920   220A      1.206265  
     221A      1.211893   222A      1.214674   223A      1.219094  
     224A      1.221853   225A      1.223064   226A      1.248430  
     227A      1.251531   228A      1.265357   229A      1.268707  
     230A      1.282582   231A      1.288065   232A      1.292012  
     233A      1.293862   234A      1.319617   235A      1.327655  
     236A      1.332075   237A      1.351669   238A      1.351930  
     239A      1.359296   240A      1.359998   241A      1.381180  
     242A      1.398123   243A      1.415473   244A      1.421794  
     245A      1.431812   246A      1.449172   247A      1.465027  
     248A      1.466865   249A      1.472670   250A      1.475697  
     251A      1.481860   252A      1.506790   253A      1.509409  
     254A      1.514027   255A      1.522858   256A      1.543335  
     257A      1.561276   258A      1.570536   259A      1.573273  
     260A      1.579735   261A      1.587498   262A      1.594698  
     263A      1.616803   264A      1.632907   265A      1.634520  
     266A      1.637594   267A      1.645567   268A      1.650247  
     269A      1.661856   270A      1.667982   271A      1.673726  
     272A      1.704345   273A      1.705428   274A      1.717746  
     275A      1.721182   276A      1.728749   277A      1.733487  
     278A      1.751440   279A      1.754796   280A      1.767098  
     281A      1.781674   282A      1.783978   283A      1.788949  
     284A      1.793421   285A      1.802184   286A      1.804597  
     287A      1.823435   288A      1.838947   289A      1.855888  
     290A      1.868228   291A      1.876272   292A      1.891204  
     293A      1.898406   294A      1.908081   295A      1.925252  
     296A      1.934080   297A      1.945112   298A      1.953812  
     299A      1.972273   300A      1.983697   301A      1.991661  
     302A      1.995091   303A      2.004268   304A      2.021478  
     305A      2.027057   306A      2.048447   307A      2.058038  
     308A      2.061340   309A      2.069478   310A      2.085923  
     311A      2.089331   312A      2.124519   313A      2.132367  
     314A      2.163539   315A      2.164961   316A      2.191576  
     317A      2.194677   318A      2.211724   319A      2.225944  
     320A      2.234394   321A      2.254449   322A      2.259209  
     323A      2.278867   324A      2.293389   325A      2.293747  
     326A      2.312881   327A      2.321221   328A      2.334486  
     329A      2.342999   330A      2.344818   331A      2.352516  
     332A      2.379655   333A      2.394683   334A      2.401087  
     335A      2.413719   336A      2.437730   337A      2.449472  
     338A      2.471652   339A      2.478033   340A      2.502304  
     341A      2.507066   342A      2.527830   343A      2.536202  
     344A      2.542595   345A      2.577891   346A      2.593630  
     347A      2.602035   348A      2.616568   349A      2.620273  
     350A      2.654155   351A      2.658886   352A      2.687414  
     353A      2.692659   354A      2.700091   355A      2.709587  
     356A      2.726499   357A      2.770027   358A      2.776125  
     359A      2.782620   360A      2.817678   361A      2.829020  
     362A      2.849882   363A      2.866811   364A      2.891156  
     365A      2.901361   366A      2.947725   367A      2.974223  
     368A      2.988488   369A      3.001242   370A      3.004822  
     371A      3.041748   372A      3.065301   373A      3.097712  
     374A      3.112358   375A      3.127461   376A      3.142154  
     377A      3.178092   378A      3.200504   379A      3.226383  
     380A      3.240329   381A      3.250978   382A      3.273046  
     383A      3.295958   384A      3.328165   385A      3.334171  
     386A      3.371932   387A      3.375097   388A      3.395076  
     389A      3.402096   390A      3.413893   391A      3.424930  
     392A      3.447057   393A      3.448365   394A      3.452801  
     395A      3.486710   396A      3.494732   397A      3.512792  
     398A      3.520401   399A      3.537175   400A      3.537351  
     401A      3.562577   402A      3.573801   403A      3.593544  
     404A      3.617226   405A      3.622890   406A      3.651518  
     407A      3.663460   408A      3.679686   409A      3.701513  
     410A      3.710794   411A      3.715852   412A      3.731602  
     413A      3.746063   414A      3.759728   415A      3.763242  
     416A      3.788033   417A      3.797484   418A      3.805635  
     419A      3.815211   420A      3.827182   421A      3.841482  
     422A      3.866324   423A      3.868400   424A      3.880355  
     425A      3.892062   426A      3.902506   427A      3.930102  
     428A      3.945709   429A      3.952178   430A      3.955350  
     431A      3.974260   432A      3.989398   433A      4.018890  
     434A      4.029543   435A      4.039616   436A      4.050326  
     437A      4.078208   438A      4.086460   439A      4.099967  
     440A      4.105018   441A      4.123458   442A      4.131022  
     443A      4.145319   444A      4.174718   445A      4.176276  
     446A      4.181374   447A      4.199794   448A      4.204619  
     449A      4.227374   450A      4.243385   451A      4.252074  
     452A      4.257210   453A      4.272076   454A      4.294064  
     455A      4.304312   456A      4.311429   457A      4.335773  
     458A      4.355307   459A      4.359954   460A      4.374929  
     461A      4.399849   462A      4.407357   463A      4.420529  
     464A      4.462196   465A      4.463464   466A      4.487407  
     467A      4.493867   468A      4.498562   469A      4.506454  
     470A      4.530431   471A      4.582616   472A      4.595958  
     473A      4.611615   474A      4.614326   475A      4.651343  
     476A      4.662493   477A      4.664591   478A      4.676872  
     479A      4.689846   480A      4.720649   481A      4.729617  
     482A      4.777511   483A      4.781955   484A      4.799804  
     485A      4.835671   486A      4.850345   487A      4.859597  
     488A      4.877643   489A      4.879122   490A      4.894528  
     491A      4.931205   492A      4.940580   493A      4.967895  
     494A      4.968961   495A      4.981067   496A      4.990359  
     497A      5.038190   498A      5.058711   499A      5.069991  
     500A      5.094362   501A      5.126151   502A      5.126497  
     503A      5.159911   504A      5.191126   505A      5.191863  
     506A      5.217857   507A      5.225677   508A      5.252228  
     509A      5.268048   510A      5.286958   511A      5.317975  
     512A      5.344093   513A      5.357830   514A      5.366512  
     515A      5.383810   516A      5.392241   517A      5.403115  
     518A      5.419820   519A      5.472491   520A      5.477177  
     521A      5.503230   522A      5.505942   523A      5.553876  
     524A      5.585228   525A      5.603267   526A      5.611513  
     527A      5.656192   528A      5.679942   529A      5.700620  
     530A      5.767092   531A      5.791467   532A      5.841659  
     533A      5.872113   534A      5.988608   535A      6.001987  
     536A      6.063057   537A      6.110032   538A      6.158870  
     539A      6.186916   540A      6.215065   541A      6.229021  
     542A      6.260967   543A      6.296773   544A      6.384142  
     545A      6.443005   546A      6.531620   547A      6.545699  
     548A      6.595148   549A      6.643740   550A      6.651582  
     551A      6.716653   552A      6.745297   553A      6.760380  
     554A      6.790809   555A      6.813173   556A      6.814672  
     557A      6.827502   558A      6.847891   559A      6.879540  
     560A      6.906330   561A      7.007190   562A      7.026023  
     563A      7.038136   564A      7.147575   565A      7.158088  
     566A      7.197994   567A      7.204178   568A      7.263647  
     569A      7.315986   570A      7.354132   571A      7.364068  
     572A      7.390845   573A      7.441356   574A      7.449719  
     575A      7.531759   576A      7.584168   577A      7.589642  
     578A      7.616755   579A      7.650385   580A      7.677813  
     581A      7.717075   582A      7.761761   583A      7.848542  
     584A      7.902558   585A      7.957160   586A      8.028466  
     587A      8.077822   588A      8.279739   589A      8.540484  
     590A     15.108676   591A     15.477034   592A     15.910264  
     593A     16.956101   594A     17.659757   595A     17.801133  
     596A     18.567194   597A     19.662324   598A     20.404730  

    Final Occupation by Irrep:
              A 
    DOCC [    34 ]

  @DF-RHF Final Energy:  -456.62727216695663

   => Energetics <=

    Nuclear Repulsion Energy =            413.5189550321348975
    One-Electron Energy =               -1443.4158530395161506
    Two-Electron Energy =                 573.2696258404245100
    Total Energy =                       -456.6272721669566863

Computation Completed

*** tstop() called on node54.bme.utexas.edu at Tue Nov  3 03:20:19 2020
Module time:
	user time   =     225.69 seconds =       3.76 minutes
	system time =      25.96 seconds =       0.43 minutes
	total time  =         75 seconds =       1.25 minutes
Total time:
	user time   =     225.69 seconds =       3.76 minutes
	system time =      25.96 seconds =       0.43 minutes
	total time  =         75 seconds =       1.25 minutes
   => Loading Basis Set <=

    Name: (AUG-CC-PVTZ AUX)
    Role: RIFIT
    Keyword: DF_BASIS_MP2
    atoms 1-3   entry O          line   264 file /home/xy3866/psi4conda/share/psi4/basis/aug-cc-pvtz-ri.gbs 
    atoms 4-9   entry C          line   148 file /home/xy3866/psi4conda/share/psi4/basis/aug-cc-pvtz-ri.gbs 
    atoms 10-17 entry H          line    30 file /home/xy3866/psi4conda/share/psi4/basis/aug-cc-pvtz-ri.gbs 


*** tstart() called on node54.bme.utexas.edu
*** at Tue Nov  3 03:20:19 2020


  //>>>>>>>>>>>>>>>>>>>>>>>>>>>>>>>>>>>//
  //               DFMP2               //
  //<<<<<<<<<<<<<<<<<<<<<<<<<<<<<<<<<<<//

	 --------------------------------------------------------
	                          DF-MP2                         
	      2nd-Order Density-Fitted Moller-Plesset Theory     
	              RMP2 Wavefunction,   8 Threads             
	                                                         
	        Rob Parrish, Justin Turney, Andy Simmonett,      
	           Ed Hohenstein, and C. David Sherrill          
	 --------------------------------------------------------

   => Auxiliary Basis Set <=

  Basis Set: (AUG-CC-PVTZ AUX)
    Blend: AUG-CC-PVTZ-RI
    Number of shells: 364
    Number of basis function: 1322
    Number of Cartesian functions: 1664
    Spherical Harmonics?: true
    Max angular momentum: 4

	 --------------------------------------------------------
	                 NBF =   598, NAUX =  1322
	 --------------------------------------------------------
	   CLASS    FOCC     OCC    AOCC    AVIR     VIR    FVIR
	   PAIRS       0      34      34     564     564       0
	 --------------------------------------------------------

  DFHelper Memory: AOs need 3.204 GiB; user supplied 22.352 GiB. Using in-core AOs.


         ------------------------------------------------------------
                                     CPHF                           
                                  Rob Parrish                       
         ------------------------------------------------------------

  ==> Geometry <==

    Molecular point group: c1
    Full point group: C1

    Geometry (in Angstrom), charge = 0, multiplicity = 1:

       Center              X                  Y                   Z               Mass       
    ------------   -----------------  -----------------  -----------------  -----------------
         O           -1.663429618266     1.360318887697    -0.082573628081    15.994914619570
         O            3.295226381734     0.871264887697    -0.039364628081    15.994914619570
         O            2.667902381734    -1.300881112303     0.082700371919    15.994914619570
         C           -2.571140618266    -0.865031112303     0.033863371919    12.000000000000
         C           -1.451153618266     0.149638887697    -0.009796628081    12.000000000000
         C           -3.952462618266    -0.232051112303    -0.021068628081    12.000000000000
         C           -0.068479918266    -0.382590412303     0.031991371919    12.000000000000
         C            0.998628381734     0.429782887697    -0.007781628081    12.000000000000
         C            2.375246281734    -0.107032612303     0.021436471919    12.000000000000
         H           -2.441743618266    -1.464791112303     0.944458371919     1.007825032230
         H           -2.418724618266    -1.565401112303    -0.800231628081     1.007825032230
         H           -4.099929618266     0.446786887697     0.821690371919     1.007825032230
         H           -4.728297618266    -1.001107112303     0.010339371919     1.007825032230
         H           -4.074721618266     0.349674887697    -0.937034628081     1.007825032230
         H            0.088434381734    -1.467800112303     0.096153371919     1.007825032230
         H            0.868368381734     1.505681887697    -0.068628628081     1.007825032230
         H            4.164563381734     0.419580887697    -0.023212628081     1.007825032230

  Nuclear repulsion =  413.518955032134897
  Reference energy  = -456.627272166956629

  ==> Basis Set <==

  Basis Set: AUG-CC-PVTZ
    Blend: AUG-CC-PVTZ
    Number of shells: 198
    Number of basis function: 598
    Number of Cartesian functions: 695
    Spherical Harmonics?: true
    Max angular momentum: 3

  ==> CGRSolver (by Rob Parrish) <==

   Number of roots    =         1
   Preconditioning    =    JACOBI
   Convergence cutoff =     1E-06
   Maximum iterations =       100

  ==> CPHFRHamiltonian (by Rob Parrish) <== 

  ==> MemDFJK: Density-Fitted J/K Matrices <==

    J tasked:                   Yes
    K tasked:                   Yes
    wK tasked:                   No
    OpenMP threads:               8
    Memory [MiB]:             22888
    Algorithm:                 Disk
    Schwarz Cutoff:           1E-12
    Mask sparsity (%):      10.8405
    Fitting Condition:        1E-10

   => Auxiliary Basis Set <=

  Basis Set: (AUG-CC-PVTZ AUX)
    Blend: AUG-CC-PVTZ-JKFIT
    Number of shells: 382
    Number of basis function: 1304
    Number of Cartesian functions: 1619
    Spherical Harmonics?: true
    Max angular momentum: 4

  ==> CPHF Iterations <==

  => Iterations <=

             Iter  Converged  Remaining    Residual
  CGR           1          0          1   1.169E-01
  CGR           2          0          1   3.562E-02
  CGR           3          0          1   1.216E-02
  CGR           4          0          1   4.279E-03
  CGR           5          0          1   1.721E-03
  CGR           6          0          1   6.288E-04
  CGR           7          0          1   2.633E-04
  CGR           8          0          1   9.031E-05
  CGR           9          0          1   3.254E-05
  CGR          10          0          1   1.095E-05
  CGR          11          0          1   3.754E-06
  CGR          12          0          1   1.189E-06
  CGR          13          1          0   4.837E-07

    CGRSolver converged.

	-----------------------------------------------------------
	 ==================> DF-MP2 Energies <==================== 
	-----------------------------------------------------------
	 Reference Energy          =    -456.6272721669566295 [Eh]
	 Singles Energy            =      -0.0000000000000000 [Eh]
	 Same-Spin Energy          =      -0.4485042700384458 [Eh]
	 Opposite-Spin Energy      =      -1.4094420688599207 [Eh]
	 Correlation Energy        =      -1.8579463388983666 [Eh]
	 Total Energy              =    -458.4852185058550162 [Eh]
	-----------------------------------------------------------
	 ================> DF-SCS-MP2 Energies <================== 
	-----------------------------------------------------------
	 SCS Same-Spin Scale       =       0.3333333333333333 [-]
	 SCS Opposite-Spin Scale   =       1.2000000000000000 [-]
	 SCS Same-Spin Energy      =      -0.1495014233461486 [Eh]
	 SCS Opposite-Spin Energy  =      -1.6913304826319049 [Eh]
	 SCS Correlation Energy    =      -1.8408319059780536 [Eh]
	 SCS Total Energy          =    -458.4681040729346932 [Eh]
	-----------------------------------------------------------



Properties will be evaluated at   0.000000,   0.000000,  -0.000000 [a0]

Properties computed using the MP2 density matrix

  Nuclear Dipole Moment: [e a0]
     X:   -11.8309      Y:    -2.5992      Z:     0.0406

  Electronic Dipole Moment: [e a0]
     X:    11.7922      Y:     2.1707      Z:    -0.0185

  Dipole Moment: [e a0]
     X:    -0.0386      Y:    -0.4286      Z:     0.0221     Total:     0.4309

  Dipole Moment: [D]
     X:    -0.0982      Y:    -1.0893      Z:     0.0563     Total:     1.0951


*** tstop() called on node54.bme.utexas.edu at Tue Nov  3 03:22:27 2020
Module time:
	user time   =     661.41 seconds =      11.02 minutes
	system time =      28.82 seconds =       0.48 minutes
	total time  =        128 seconds =       2.13 minutes
Total time:
	user time   =     888.38 seconds =      14.81 minutes
	system time =      54.82 seconds =       0.91 minutes
	total time  =        203 seconds =       3.38 minutes

    Psi4 stopped on: Tuesday, 03 November 2020 03:22AM
    Psi4 wall time for execution: 0:03:23.98

*** Psi4 exiting successfully. Buy a developer a beer!
