029_MeCl Gaussian SP Calculation on g2-node38.bme.utexas.edu            
Freq      RMP2-FC                                                     6-31G(d)            
Number of atoms                            I                5
Info1-9                                    I   N=           9
          16          15        1002           0           0         100
           6           2           1
Charge                                     I                0
Multiplicity                               I                1
Number of electrons                        I               26
Number of alpha electrons                  I               13
Number of beta electrons                   I               13
Number of basis functions                  I               40
Number of independent functions            I               40
Number of point charges in /Mol/           I                0
Number of translation vectors              I                0
Atomic numbers                             I   N=           5
          17           6           1           1           1
Nuclear charges                            R   N=           5
  1.70000000E+01  6.00000000E+00  1.00000000E+00  1.00000000E+00  1.00000000E+00
Current cartesian coordinates              R   N=          15
 -1.24038637E+00 -2.01654596E-07  3.13048293E-07  2.12086168E+00  1.83138297E-06
 -3.39600862E-06  2.78713579E+00 -3.38905796E-01  1.91629634E+00  2.78713272E+00
 -1.49012090E+00 -1.25163718E+00  2.78712975E+00  1.82901913E+00 -6.64644103E-01
Force Field                                I                0
Int Atom Types                             I   N=           5
           0           0           0           0           0
MM charges                                 R   N=           5
  0.00000000E+00  0.00000000E+00  0.00000000E+00  0.00000000E+00  0.00000000E+00
Integer atomic weights                     I   N=           5
          35          12           1           1           1
Real atomic weights                        R   N=           5
  3.49688527E+01  1.20000000E+01  1.00782504E+00  1.00782504E+00  1.00782504E+00
Atom fragment info                         I   N=           5
           0           0           0           0           0
Atom residue num                           I   N=           5
           0           0           0           0           0
Nuclear spins                              I   N=           5
           3           0           1           1           1
Nuclear ZEff                               R   N=           5
 -1.42400000E+01 -3.60000000E+00 -1.00000000E+00 -1.00000000E+00 -1.00000000E+00
Nuclear QMom                               R   N=           5
 -8.16500000E+00  0.00000000E+00  0.00000000E+00  0.00000000E+00  0.00000000E+00
Nuclear GFac                               R   N=           5
  8.21874000E-01  0.00000000E+00  2.79284600E+00  2.79284600E+00  2.79284600E+00
MicOpt                                     I   N=           5
          -1          -1          -1          -1          -1
Number of contracted shells                I               15
Number of primitive shells                 I               40
Pure/Cartesian d shells                    I                1
Pure/Cartesian f shells                    I                0
Highest angular momentum                   I                2
Largest degree of contraction              I                6
Shell types                                I   N=          15
           0          -1          -1          -1           2           0
          -1          -1           2           0           0           0
           0           0           0
Number of primitives per shell             I   N=          15
           6           6           3           1           1           6
           3           1           1           3           1           3
           1           3           1
Shell to atom map                          I   N=          15
           1           1           1           1           1           2
           2           2           2           3           3           4
           4           5           5
Primitive exponents                        R   N=          40
  2.51801000E+04  3.78035000E+03  8.60474000E+02  2.42145000E+02  7.73349000E+01
  2.62470000E+01  4.91765000E+02  1.16984000E+02  3.74153000E+01  1.37834000E+01
  5.45215000E+00  2.22588000E+00  3.18649000E+00  1.14427000E+00  4.20377000E-01
  1.42657000E-01  7.50000000E-01  3.04752488E+03  4.57369518E+02  1.03948685E+02
  2.92101553E+01  9.28666296E+00  3.16392696E+00  7.86827235E+00  1.88128854E+00
  5.44249258E-01  1.68714478E-01  8.00000000E-01  1.87311370E+01  2.82539436E+00
  6.40121692E-01  1.61277759E-01  1.87311370E+01  2.82539436E+00  6.40121692E-01
  1.61277759E-01  1.87311370E+01  2.82539436E+00  6.40121692E-01  1.61277759E-01
Contraction coefficients                   R   N=          40
  1.83295985E-03  1.40341988E-02  6.90973943E-02  2.37451980E-01  4.83033960E-01
  3.39855972E-01 -2.29739142E-03 -3.07137189E-02 -1.12528069E-01  4.50163278E-02
  5.89353363E-01  4.65206287E-01 -2.51828028E-01  6.15892514E-02  1.06018433E+00
  1.00000000E+00  1.00000000E+00  1.83473713E-03  1.40373228E-02  6.88426223E-02
  2.32184443E-01  4.67941348E-01  3.62311985E-01 -1.19332420E-01 -1.60854152E-01
  1.14345644E+00  1.00000000E+00  1.00000000E+00  3.34946043E-02  2.34726953E-01
  8.13757326E-01  1.00000000E+00  3.34946043E-02  2.34726953E-01  8.13757326E-01
  1.00000000E+00  3.34946043E-02  2.34726953E-01  8.13757326E-01  1.00000000E+00
P(S=P) Contraction coefficients            R   N=          40
  0.00000000E+00  0.00000000E+00  0.00000000E+00  0.00000000E+00  0.00000000E+00
  0.00000000E+00  3.98940088E-03  3.03177067E-02  1.29880029E-01  3.27951072E-01
  4.53527100E-01  2.52154056E-01 -1.42993147E-02  3.23572333E-01  7.43507765E-01
  1.00000000E+00  0.00000000E+00  0.00000000E+00  0.00000000E+00  0.00000000E+00
  0.00000000E+00  0.00000000E+00  0.00000000E+00  6.89990666E-02  3.16423961E-01
  7.44308291E-01  1.00000000E+00  0.00000000E+00  0.00000000E+00  0.00000000E+00
  0.00000000E+00  0.00000000E+00  0.00000000E+00  0.00000000E+00  0.00000000E+00
  0.00000000E+00  0.00000000E+00  0.00000000E+00  0.00000000E+00  0.00000000E+00
Coordinates of each shell                  R   N=          45
 -1.24038637E+00 -2.01654595E-07  3.13048293E-07 -1.24038637E+00 -2.01654595E-07
  3.13048293E-07 -1.24038637E+00 -2.01654595E-07  3.13048293E-07 -1.24038637E+00
 -2.01654595E-07  3.13048293E-07 -1.24038637E+00 -2.01654595E-07  3.13048293E-07
  2.12086168E+00  1.83138297E-06 -3.39600862E-06  2.12086168E+00  1.83138297E-06
 -3.39600862E-06  2.12086168E+00  1.83138297E-06 -3.39600862E-06  2.12086168E+00
  1.83138297E-06 -3.39600862E-06  2.78713579E+00 -3.38905796E-01  1.91629634E+00
  2.78713579E+00 -3.38905796E-01  1.91629634E+00  2.78713272E+00 -1.49012090E+00
 -1.25163718E+00  2.78713272E+00 -1.49012090E+00 -1.25163718E+00  2.78712975E+00
  1.82901913E+00 -6.64644103E-01  2.78712975E+00  1.82901913E+00 -6.64644103E-01
Constraint Structure                       R   N=          15
 -1.24038637E+00 -2.01654595E-07  3.13048293E-07  2.12086168E+00  1.83138297E-06
 -3.39600862E-06  2.78713579E+00 -3.38905796E-01  1.91629634E+00  2.78713272E+00
 -1.49012090E+00 -1.25163718E+00  2.78712975E+00  1.82901913E+00 -6.64644103E-01
Num ILSW                                   I              100
ILSW                                       I   N=         100
           0           1           0           0           2           0
           0           0           0           0           0          -1
           0           0           0           0           0           0
           0           0           0           0           1           0
           1           0           0           0           0           0
           0           0      100000           0          -1           0
           0           0           0           0           0           0
           0           0           0           1           1           0
           0           0           1           0           0           0
           0           0           4          40           0           0
           0           0           0           0           0           0
           0           0           0           0           0           0
           0           0           0           0           0           0
           0           0           0           0           0           0
           0           0           0           0           0           0
           0           0           0           0           0           0
           0           0           0           0
Num RLSW                                   I               40
RLSW                                       R   N=          40
  1.00000000E+00  1.00000000E+00  1.00000000E+00  1.00000000E+00  1.00000000E+00
  0.00000000E+00  0.00000000E+00  1.00000000E+00  0.00000000E+00  0.00000000E+00
  0.00000000E+00  0.00000000E+00  1.00000000E+00  0.00000000E+00  0.00000000E+00
  0.00000000E+00  0.00000000E+00  1.00000000E+00  0.00000000E+00  0.00000000E+00
  0.00000000E+00  0.00000000E+00  1.00000000E+00  0.00000000E+00  0.00000000E+00
  0.00000000E+00  0.00000000E+00  1.00000000E+00  0.00000000E+00  0.00000000E+00
  0.00000000E+00  0.00000000E+00  0.00000000E+00  0.00000000E+00  0.00000000E+00
  0.00000000E+00  0.00000000E+00  0.00000000E+00  1.00000000E+00  1.00000000E+00
MxBond                                     I                4
NBond                                      I   N=           5
           1           4           1           1           1
IBond                                      I   N=          20
           2           0           0           0           1           3
           4           5           2           0           0           0
           2           0           0           0           2           0
           0           0
RBond                                      R   N=          20
  1.00000000E+00  0.00000000E+00  0.00000000E+00  0.00000000E+00  1.00000000E+00
  1.00000000E+00  1.00000000E+00  1.00000000E+00  1.00000000E+00  0.00000000E+00
  0.00000000E+00  0.00000000E+00  1.00000000E+00  0.00000000E+00  0.00000000E+00
  0.00000000E+00  1.00000000E+00  0.00000000E+00  0.00000000E+00  0.00000000E+00
Virial Ratio                               R      2.000468825996413E+00
SCF Energy                                 R     -4.990929017208866E+02
MP2 Energy                                 R     -4.993545601589596E+02
Total Energy                               R     -4.993545601589596E+02
Post-SCF wavefunction norm                 R      1.477378031713544E+00
RMS Force                                  R      1.429862280791493E-06
RMS Density                                R      2.963210751091772E-10
External E-field                           R   N=          35
  0.00000000E+00  0.00000000E+00  0.00000000E+00  0.00000000E+00  0.00000000E+00
  0.00000000E+00  0.00000000E+00  0.00000000E+00  0.00000000E+00  0.00000000E+00
  0.00000000E+00  0.00000000E+00  0.00000000E+00  0.00000000E+00  0.00000000E+00
  0.00000000E+00  0.00000000E+00  0.00000000E+00  0.00000000E+00  0.00000000E+00
  0.00000000E+00  0.00000000E+00  0.00000000E+00  0.00000000E+00  0.00000000E+00
  0.00000000E+00  0.00000000E+00  0.00000000E+00  0.00000000E+00  0.00000000E+00
  0.00000000E+00  0.00000000E+00  0.00000000E+00  0.00000000E+00  0.00000000E+00
IOpCl                                      I                0
IROHF                                      I                0
Alpha Orbital Energies                     R   N=          40
 -1.04812407E+02 -1.12922986E+01 -1.05463459E+01 -8.01578206E+00 -8.01237274E+00
 -8.01237273E+00 -1.13021508E+00 -9.15869462E-01 -6.19151291E-01 -6.19148275E-01
 -5.47928919E-01 -4.34674253E-01 -4.34673771E-01  1.95275323E-01  2.57734799E-01
  2.89875577E-01  2.89876661E-01  5.87483511E-01  6.25596755E-01  6.52112878E-01
  6.52113252E-01  7.27718134E-01  7.27719124E-01  7.86228320E-01  1.10410072E+00
  1.10410361E+00  1.16508875E+00  1.17317460E+00  1.17317488E+00  1.21351006E+00
  1.21351394E+00  1.29853504E+00  1.50192506E+00  1.98213174E+00  1.98213364E+00
  2.47190816E+00  2.53916911E+00  2.53917089E+00  4.50949253E+00  4.74979786E+00
Alpha MO coefficients                      R   N=        1600
  9.96116665E-01  1.46470629E-02  5.62978997E-05  2.22417728E-11 -5.04998530E-11
 -1.77351504E-02 -4.35534114E-05 -1.94209600E-11  2.93874275E-11  1.50198318E-03
  7.97614604E-05  1.58655994E-10 -2.79712692E-10  6.27394414E-03  6.26629944E-03
  6.26629941E-03  4.73471555E-11 -9.12380285E-11 -7.02205889E-13 -5.12346043E-06
  4.36203965E-05 -7.20414111E-05  5.81789972E-11 -1.19304408E-10  1.03971630E-04
  9.95659349E-05 -6.38343678E-10  1.25197922E-09 -3.50025995E-05 -9.90071202E-06
 -9.90097845E-06 -8.33611249E-11  1.40765271E-10 -4.12596328E-12 -1.43560122E-05
 -8.85383734E-05 -1.43558186E-05 -8.85378184E-05 -1.43557412E-05 -8.85376025E-05
 -3.39903010E-05  7.12823707E-05 -3.15522545E-05  2.22860552E-11 -5.85505795E-11
  2.98052717E-04  3.30453189E-04  5.80222453E-11  1.50018418E-11  2.56972350E-03
  1.57075361E-03 -1.50086220E-09  2.20050978E-09 -2.34185584E-04 -1.63534337E-04
 -1.63533522E-04 -9.83096001E-10  1.65590725E-09  7.68877322E-12  9.95777772E-01
  2.80193593E-02 -7.44576801E-04 -3.98889531E-09  6.82060342E-09 -1.36146755E-02
  8.97980506E-04  1.64311478E-08 -3.01121519E-08 -2.16387902E-03 -1.72129542E-03
 -1.72130573E-03  6.38479879E-10 -1.66849312E-09  3.04842926E-10  1.21256637E-04
  2.32460713E-03  1.21249572E-04  2.32459851E-03  1.21246471E-04  2.32459382E-03
 -2.86736089E-01  1.03057746E+00  4.58982356E-03  1.72942223E-09 -4.04736516E-09
  2.61802668E-02  1.11724262E-03  5.45209113E-10 -1.00711268E-09 -6.78751507E-03
 -1.30652361E-03 -1.14682569E-09  2.08562224E-09 -1.32549053E-03 -1.75872542E-03
 -1.75872546E-03  1.38936963E-10 -2.58206800E-10  1.10618037E-11 -2.21449985E-04
  4.51568882E-04  2.37471980E-04 -3.35076280E-10  6.87025443E-10  2.73240443E-04
 -8.84764586E-04  2.28213068E-09 -5.15112597E-09 -6.46320571E-04 -2.77201851E-06
 -2.77231721E-06 -2.74954800E-10  4.80282509E-10  5.85770616E-11 -9.78515251E-05
  5.87491020E-04 -9.78526372E-05  5.87489177E-04 -9.78531284E-05  5.87489199E-04
  1.51383128E-03 -5.65554015E-03  9.92813302E-01  6.15637297E-07 -1.17999441E-06
  2.64798830E-03  2.28214919E-02  1.38363281E-08 -2.66640457E-08 -1.16939753E-04
 -5.29114421E-03 -4.02238875E-09  7.77519705E-09  2.85953742E-04 -1.00863792E-03
 -1.00863791E-03  5.71326918E-10 -1.00206410E-09  1.27925879E-11 -2.05185014E-05
  1.17218075E-03  6.27829410E-04 -4.17396583E-10  8.96018181E-10 -1.66076215E-03
  2.27305665E-04  5.49231439E-09 -1.16992518E-08 -1.32347834E-03  1.64264182E-04
  1.64265879E-04 -6.13908952E-10  1.10359256E-09  1.06527124E-10  7.73299080E-05
  8.07989653E-04  7.73280199E-05  8.07985096E-04  7.73275563E-05  8.07984107E-04
 -3.37312596E-10  1.24003300E-09 -5.89244025E-07  9.93335487E-01  2.22992095E-02
 -5.69897753E-10 -1.24610129E-08  2.02763894E-02  4.55181018E-04  1.20651991E-10
  2.89439491E-09 -4.57932321E-03 -1.02800439E-04 -1.92329631E-10 -1.90549930E-06
  1.90611859E-06  3.41313233E-04  7.66205473E-06  4.00266993E-06 -1.89858854E-10
 -7.07245402E-10 -1.40405109E-10 -3.19181366E-05 -7.16565806E-07  4.51477562E-09
  1.09182402E-09  6.17718245E-06  1.39093318E-07 -6.51835652E-10 -6.53313661E-06
  6.53266865E-06  1.98245750E-04  4.45041658E-06  1.37206413E-05  1.05625430E-05
 -8.51348265E-05  5.41984773E-05 -4.36828161E-04 -6.47612024E-05  5.21958200E-04
  4.62003903E-10 -1.67195614E-09  1.19413162E-06 -2.22992095E-02  9.93335488E-01
  7.62953783E-10  2.51003892E-08 -4.55180993E-04  2.02763886E-02  1.43938344E-10
 -5.52561001E-09  1.02800404E-04 -4.57932491E-03  6.54349306E-10  3.46640162E-06
 -3.46737523E-06 -7.66208054E-06  3.41312403E-04  2.20091991E-06  4.53636183E-10
  1.82575668E-09  2.13510013E-10  7.16534916E-07 -3.19204286E-05 -1.07285711E-08
 -1.77655674E-09 -1.38621285E-07  6.19376411E-06  1.36054982E-09  1.18826285E-05
 -1.18815981E-05 -4.45036372E-06  1.98246374E-04  7.54320592E-06 -6.86822478E-05
  5.53547506E-04  4.34894622E-05 -3.50493933E-04  2.51937937E-05 -2.03042942E-04
  6.68371699E-02 -3.04920549E-01 -4.32779073E-02 -2.42383742E-08  4.12204607E-08
  5.90527663E-01  1.00302328E-01  5.71457737E-08 -9.66122379E-08  2.35467032E-01
  7.60442513E-03  2.05817505E-08 -3.42141380E-08  3.31692707E-02 -6.70434226E-03
 -6.70436260E-03  3.06151222E-08 -5.65043351E-08  1.91627019E-11 -1.09160284E-01
  2.01161295E-01 -7.40124159E-02 -1.10522538E-07  1.96648385E-07  1.95592704E-01
 -2.04713847E-02 -1.40085169E-07  2.67831039E-07  1.81458138E-02  1.55517495E-03
  1.55489485E-03 -9.88557841E-09  8.90109770E-09  2.04175833E-09  5.67015844E-02
  2.11678406E-03  5.67017233E-02  2.11687600E-03  5.67017897E-02  2.11691560E-03
  4.42680485E-02 -2.03396930E-01  4.47991841E-02  5.09909343E-09 -1.10640835E-08
  4.09405127E-01 -1.07709913E-01 -1.05823572E-08  2.47170334E-08  2.44141426E-01
 -6.77459949E-03 -2.44324090E-08  4.38278314E-08 -1.70503511E-02  5.62354944E-03
  5.62355251E-03 -1.00771746E-08  1.93071256E-08 -3.66549705E-11  1.59966375E-01
 -3.05227043E-01 -1.10877107E-01  2.50750951E-07 -3.84263620E-07 -3.45552637E-01
 -2.68691687E-02  2.46063980E-07 -4.37634782E-07  9.49169455E-03 -1.52868695E-02
 -1.52862991E-02  7.96428359E-08 -1.13988207E-07 -9.36991013E-09 -1.34138209E-01
 -4.20890371E-02 -1.34138443E-01 -4.20891801E-02 -1.34138461E-01 -4.20892272E-02
 -5.60305854E-08  2.61597154E-07 -4.18949117E-07 -8.70222046E-02 -9.82294605E-04
 -5.57706171E-07  1.05949799E-06  2.20405629E-01  2.48790840E-03 -5.10296051E-07
  3.25017257E-07  8.44534320E-02  9.53297494E-04  1.42055343E-07  4.10406002E-04
 -4.10484859E-04  2.24295124E-02  2.53181317E-04 -8.39708457E-04 -2.07443364E-07
  5.72738092E-07 -8.60554491E-07  4.30635201E-01  4.86099500E-03  1.72723113E-07
 -5.32017574E-07  2.29240229E-01  2.58764708E-03  7.02002976E-08  1.22630181E-02
 -1.22630932E-02  1.18540745E-02  1.33817637E-04 -2.50883857E-02 -4.07340452E-02
 -2.72928835E-02 -1.93127066E-01 -1.29400413E-01  2.33860511E-01  1.56693059E-01
  7.06522029E-08 -3.28592075E-07  5.07442303E-07  9.82325361E-04 -8.70238399E-02
  7.10159643E-07 -1.29248538E-06 -2.48798700E-03  2.20409864E-01  5.75394411E-07
 -4.28811099E-07 -9.53338887E-04  8.44558532E-02 -1.82050290E-07 -7.27140051E-04
  7.27233121E-04 -2.53186303E-04  2.24296775E-02 -4.73925589E-04  3.67922541E-07
 -1.07297490E-06  1.03654684E-06 -4.86095333E-03  4.30634087E-01 -1.22987037E-07
  6.80078491E-07 -2.58765166E-03  2.29240307E-01 -1.12287373E-07 -2.17274159E-02
  2.17275555E-02 -1.33795152E-04  1.18537948E-02 -1.41603511E-02  2.46520707E-01
  1.65178009E-01 -1.58536289E-01 -1.06225337E-01 -8.79834618E-02 -5.89523078E-02
 -1.48583240E-02  7.20479142E-02 -2.22619776E-01  1.72347673E-07 -9.43927950E-08
 -1.47166148E-01  5.66043821E-01 -4.38218034E-07  2.38120127E-07 -2.05532724E-01
  1.85798553E-01 -2.63073423E-07  2.20871167E-07  6.64978551E-02 -1.91340814E-02
 -1.91340600E-02 -2.10318501E-09 -4.33108914E-08  8.32874288E-10 -3.76343394E-03
 -7.42560064E-03 -3.47048277E-01 -1.04928616E-06  1.35150263E-06  8.12446590E-02
 -2.13679374E-01 -6.56274291E-07  8.57999766E-07  3.71787448E-02 -1.50420663E-02
 -1.50416518E-02  5.88531704E-08 -9.28465532E-08  8.32861186E-09 -7.52143961E-02
 -6.76587105E-02 -7.52154369E-02 -6.76594487E-02 -7.52161858E-02 -6.76600330E-02
 -5.24908910E-11  2.82563725E-09  3.44271612E-08 -2.66438098E-01 -5.16554795E-03
  1.96674065E-09 -8.77832307E-08  6.91993222E-01  1.34159650E-02 -4.19031145E-08
 -9.63292455E-08  4.12142341E-01  7.99037388E-03  1.44475751E-08 -5.44458271E-04
  5.44456463E-04  4.20286369E-03  8.14840712E-05  1.13526131E-03  7.12643024E-08
 -1.70791777E-07 -8.42762513E-08 -1.57006974E-01 -3.04397000E-03 -1.75783786E-07
 -8.35128698E-08 -6.92657913E-02 -1.34288205E-03  5.09942726E-08 -5.31113817E-03
  5.31112267E-03 -2.44336186E-02 -4.73708781E-04  1.10743335E-02  1.89415940E-02
  2.17279156E-02  9.50613185E-02  1.09044878E-01 -1.14002844E-01 -1.30772656E-01
  4.77463464E-10 -5.12277001E-09 -1.87607587E-07  5.16554390E-03 -2.66437568E-01
  1.41359167E-09  4.86990482E-07 -1.34159555E-02  6.91991898E-01  5.53219877E-08
  3.39101623E-07 -7.99038208E-03  4.12141908E-01 -7.06621896E-09  9.83195920E-04
 -9.83200698E-04 -8.14777197E-05  4.20265650E-03  6.28708073E-04 -1.21372701E-07
  3.10356226E-07  8.66003390E-08  3.04399986E-03 -1.57009334E-01  2.29490340E-07
  6.66175590E-08  1.34293604E-03 -6.92682125E-02 -6.56775716E-08  9.59094057E-03
 -9.59094226E-03  4.73701872E-04 -2.44336340E-02  6.13295099E-03 -1.20704784E-01
 -1.38460711E-01  7.67563538E-02  8.80473279E-02  4.39481629E-02  5.04129781E-02
 -1.65188627E-02  9.48457102E-02  1.24516728E-01  5.12175247E-08 -1.23246642E-07
 -1.24049373E-01 -3.17181997E-01 -1.43507387E-07  3.33614591E-07 -8.22218334E-01
 -1.01582595E+00 -1.53320358E-07  4.57029328E-07  1.03928642E-01 -3.92896487E-02
 -3.92895104E-02  3.26026735E-08 -9.41411991E-08 -4.52511060E-10 -1.42293346E-01
  1.45408265E-01 -2.43047785E-01 -5.60840571E-07  8.91613761E-07  2.01774890E+00
 -6.67042720E-01 -3.03731923E-06  5.15987736E-06 -1.15279514E-02 -4.17500009E-03
 -4.17515653E-03 -8.71394159E-09  1.72158212E-08 -2.11462860E-09 -2.01907353E-03
 -5.32365124E-01 -2.01915813E-03 -5.32363282E-01 -2.01914306E-03 -5.32361949E-01
  2.12183709E-02 -7.57211785E-02 -7.23910899E-02  1.80444116E-08 -7.32663164E-09
  2.82115898E-01  1.94570985E-01 -9.28813361E-08  1.18744352E-07  2.48750527E-01
  4.90439292E-01  6.56142498E-07 -1.67640557E-06 -1.91423069E-02  2.98971819E-02
  2.98975553E-02 -4.27739022E-08  2.03122055E-07  2.32620259E-08 -7.47896499E-02
  2.36892778E-02  3.12887051E-01  6.09250108E-08  7.14715445E-07  1.70436474E+00
  1.07264535E+00 -1.09846335E-06  5.47189837E-06  1.12114388E-02 -1.75398760E-02
 -1.75396272E-02 -3.59196074E-08  2.68456963E-08  1.71707531E-08 -1.65892390E-02
 -1.07252496E+00 -1.65895418E-02 -1.07252268E+00 -1.65900036E-02 -1.07252541E+00
 -4.22799522E-08  1.36371897E-07  1.58033456E-07  1.20856317E-04 -5.90573543E-03
 -6.12426601E-07 -3.69628906E-07 -5.77915303E-05  2.82605870E-03  5.16511986E-07
 -2.19976206E-07 -5.15889502E-03  2.52058930E-01  7.70897590E-08 -1.76186075E-02
  1.76184731E-02  1.22929095E-03 -6.00624423E-02 -1.12375376E-02 -3.15478682E-07
  9.64454420E-07 -4.94440264E-07  6.51297373E-03 -3.18215707E-01  4.52157542E-06
 -4.90469538E-07  3.09194834E-02 -1.51068087E+00  1.36624554E-07 -1.11949903E-02
  1.11948551E-02 -2.37736914E-04  1.16158803E-02 -7.14040244E-03  7.45699240E-02
  1.85804394E+00 -4.73487038E-02 -1.17975706E+00 -2.72228261E-02 -6.78289112E-01
  4.63142167E-08 -1.69727337E-07 -1.68463556E-07 -5.90498785E-03 -1.20875439E-04
  6.10943571E-07  4.18307419E-07  2.82360929E-03  5.78408714E-05  4.60288724E-07
  1.09197524E-06  2.52061411E-01  5.15901280E-03 -1.16020628E-07  9.73194194E-03
 -9.73176329E-03 -6.00624568E-02 -1.22932377E-03 -2.03438249E-02  9.12304144E-08
 -4.89882482E-07  7.53658586E-07 -3.18215638E-01 -6.51296382E-03 -1.83300669E-07
  2.39274166E-06 -1.51069998E+00 -3.09195834E-02 -7.50395552E-08  6.18355885E-03
 -6.18351547E-03  1.16157275E-02  2.37747976E-04 -1.29263061E-02 -1.16188575E-02
 -2.89526600E-01 -5.87673421E-02 -1.46436766E+00  7.03870555E-02  1.75389101E+00
 -6.30763832E-02  5.56908707E-02 -1.07113856E-01  1.52756818E-07 -3.25106926E-07
 -1.31291209E+00  3.59410039E-01 -5.92949909E-07  1.26173123E-06  2.00850130E+00
  5.57614281E-02  5.25309668E-07 -1.13912848E-06 -2.75483241E-01 -6.07951467E-02
 -6.07949010E-02 -6.00279649E-08  1.26649429E-07  3.61071066E-09 -7.81018883E-03
 -1.45100400E-02  2.50495305E-01 -9.99042421E-07  2.02163579E-06  8.72228327E-02
  3.00901492E-01  1.27735187E-06 -2.21338038E-06 -4.76248647E-02  4.45880281E-03
  4.45955684E-03 -5.58828733E-08  9.41813344E-08  4.74774781E-10 -2.61492337E-02
 -2.53619216E-01 -2.61510355E-02 -2.53619080E-01 -2.61519772E-02 -2.53619145E-01
 -8.30057047E-03 -2.43068391E-02  2.39836539E-01 -2.99941638E-07  2.58578371E-07
 -2.37617862E-01 -9.87409203E-01  1.11617370E-06 -9.36005022E-07  5.25493766E-01
  1.35867641E+00 -8.23974983E-07  5.65969408E-07 -2.53170155E-01  5.41823252E-02
  5.41824267E-02 -2.39155892E-07  3.82503431E-07  5.78695171E-09 -2.01348352E-02
  1.89422282E-01  2.73413207E-01  7.43784996E-07 -6.80453028E-07 -5.96960610E-01
 -2.57905089E-01 -4.72575681E-07  3.50204563E-07 -1.43251480E-01  5.98565691E-02
  5.98560382E-02 -1.20364356E-07  2.29842761E-07 -2.20935381E-08  1.03698723E-01
 -1.40330484E-01  1.03699722E-01 -1.40332387E-01  1.03700727E-01 -1.40334155E-01
 -2.98398153E-08  2.56210836E-08 -9.54999659E-07  4.63727999E-03  2.93342639E-01
 -6.33260645E-07  3.47175627E-06 -1.80382880E-02 -1.14105680E+00 -6.39183176E-07
 -4.40014818E-06  1.85137000E-02  1.17113139E+00 -3.50547687E-07  5.46271802E-03
 -5.46259910E-03  6.80057524E-06  4.28698442E-04  3.78905707E-03  1.35238148E-07
  8.54816271E-07  2.47134362E-06 -2.09510674E-03 -1.32537615E-01 -1.45876450E-07
 -3.16393639E-06  3.68277220E-03  2.32956251E-01  3.53848946E-07  2.44667092E-02
 -2.44666657E-02 -1.73447909E-04 -1.09709000E-02  1.69707781E-02 -1.64135742E-01
 -1.22885586E-01  1.09531738E-01  8.20036343E-02  5.46062003E-02  4.08816149E-02
  6.97497671E-09 -2.34508644E-08  6.68273507E-07  2.93343391E-01 -4.63727611E-03
  1.15873457E-07 -2.51050264E-06 -1.14105997E+00  1.80382827E-02  6.91388163E-07
  3.19528078E-06  1.17113696E+00 -1.85137700E-02  1.76160658E-08 -3.28148093E-03
  3.28147545E-03  4.28004780E-04 -6.74280223E-06  6.30784051E-03 -8.24874940E-08
 -2.89199633E-07 -1.15301740E-06 -1.32529120E-01  2.09517013E-03 -5.07347852E-07
  1.29717856E-06  2.32952626E-01 -3.68249301E-03 -2.80390194E-07 -1.46966861E-02
  1.46967385E-02 -1.09708201E-02  1.73415239E-04  2.82508213E-02  3.17101043E-02
  2.37435861E-02  1.26286651E-01  9.45600661E-02 -1.57997664E-01 -1.18303546E-01
  2.95771107E-07 -3.18133941E-07 -3.45061660E-06 -3.00150525E-04 -6.13288568E-02
  6.31852572E-06  1.21203277E-05  1.32228415E-03  2.70177114E-01 -2.20085684E-05
 -2.28511006E-05 -3.23662796E-03 -6.61321241E-01 -1.86375054E-06  1.23725279E-02
 -1.23699613E-02  1.19665667E-03  2.44496922E-01  8.37026991E-03  7.01572562E-07
  8.94568242E-07  1.37315326E-05 -3.43605379E-03 -7.02107503E-01  8.21172605E-08
 -2.78440410E-05  7.00399488E-03  1.43106720E+00 -1.62410021E-07  6.65696819E-02
 -6.65689370E-02 -3.39548750E-04 -6.93708637E-02  4.50401979E-02 -4.55458117E-01
 -9.78678243E-02  2.99487165E-01  6.43568497E-02  1.55985950E-01  3.35203130E-02
 -1.64202572E-07  1.80026100E-07  1.96942609E-06 -6.13255234E-02  3.00122692E-04
 -3.49094403E-06 -6.98083007E-06  2.70164298E-01 -1.32215879E-03  1.16985883E-05
  1.26190004E-05 -6.61311601E-01  3.23636848E-03  9.41285942E-07 -7.24965870E-03
  7.24830400E-03  2.44501137E-01 -1.19651156E-03  1.42852770E-02 -3.80610176E-07
 -3.43707019E-07 -7.29577206E-06 -7.02107665E-01  3.43621033E-03 -7.25483647E-07
  1.42298548E-05  1.43109296E+00 -7.00348660E-03  4.78454703E-08 -3.90061274E-02
  3.90057404E-02 -6.93722173E-02  3.39463227E-04  7.68674567E-02  8.28480212E-02
  1.78061563E-02  3.53015586E-01  7.58766490E-02 -4.35871616E-01 -9.36870389E-02
 -2.51402257E-02  1.58122963E-02  1.51358339E-01  1.13834026E-07 -1.84639467E-07
 -5.67430456E-01 -5.20257878E-01 -7.46425338E-07  1.26526480E-06  1.77484664E+00
  1.36183505E+00  5.63198105E-06 -1.02656369E-05  1.07024779E-01 -9.68053969E-02
 -9.68058290E-02 -3.63641057E-06  6.63061540E-06  1.81895329E-08 -3.20946626E-02
  1.64657308E-01 -8.31763336E-01  6.62656144E-06 -1.27425292E-05 -3.30099293E-01
  1.93241029E+00 -1.67406974E-05  3.12284873E-05  3.63664915E-02 -1.10048022E-02
 -1.10068877E-02  1.24843901E-06 -2.21580450E-06  6.16125032E-08 -2.34101332E-01
 -3.25808039E-01 -2.34090119E-01 -3.25799871E-01 -2.34084858E-01 -3.25795493E-01
  5.00024025E-08  1.48465248E-08 -8.98325269E-08  2.13754783E-05 -9.82584963E-04
  1.29710126E-06  2.99838074E-07 -4.03891130E-04  1.85634404E-02 -3.99922085E-06
 -2.33188927E-06 -1.97617183E-03  9.08266220E-02  1.05133454E-06 -2.96267768E-01
  2.96266876E-01 -7.57362838E-03  3.48077578E-01 -1.88390959E-01 -5.99232659E-09
 -2.40950822E-06  1.46840551E-06 -1.82305238E-02  8.37882032E-01  4.76388527E-06
 -4.30672170E-06  2.91275439E-02 -1.33870880E+00 -6.50854782E-07  6.76850097E-02
 -6.76853124E-02  3.78191503E-03 -1.73817937E-01  4.30397882E-02 -6.05413938E-01
  1.37328958E+00  3.83711119E-01 -8.70390702E-01  2.21701321E-01 -5.02896060E-01
  2.71019117E-08 -1.55075036E-08 -9.65574378E-08  9.82306208E-04  2.13760898E-05
  6.67611708E-07  3.01686154E-07 -1.85622382E-02 -4.03885867E-04 -2.07221742E-06
 -1.44358232E-06 -9.08289740E-02 -1.97628040E-03  4.71544950E-08 -1.63157187E-01
  1.63157114E-01 -3.48086471E-01 -7.57346816E-03  3.42111972E-01  2.61450201E-08
 -2.70750801E-06  2.11699115E-07 -8.37878006E-01 -1.82305645E-02  5.72283422E-06
 -1.86520509E-06  1.33871408E+00  2.91276661E-02 -6.99187930E-07  3.72714999E-02
 -3.72715963E-02  1.73819749E-01  3.78196532E-03 -7.81519731E-02 -9.35342730E-02
  2.12170638E-01 -4.77527001E-01  1.08320851E+00  5.71062489E-01 -1.29538130E+00
 -1.19686196E-04 -1.03780326E-02 -2.58215031E-02  1.52486841E-07 -2.05149754E-07
 -1.93481704E-02  9.29894883E-02 -5.52946101E-07  6.93450077E-07  2.30165591E-01
  6.75207543E-03  2.04519537E-06 -3.30079959E-06 -3.29147469E-01  1.41370797E-01
  1.41416453E-01  8.58695965E-06 -1.39109280E-05 -4.13722934E-06  3.57677134E-02
 -8.76502927E-01 -6.55520960E-01  3.42452835E-06 -7.32497636E-06  1.92360716E+00
  7.55253023E-01 -1.05866878E-05  2.04681369E-05 -2.19447574E-01  2.37187995E-02
  2.37137573E-02 -2.70336590E-06  4.50649062E-06 -2.87328961E-07  5.47982261E-01
 -8.74596792E-01  5.47981223E-01 -8.74581098E-01  5.47982044E-01 -8.74575735E-01
  1.44311709E-09 -3.17052057E-07 -8.16107781E-07 -5.97581691E-06 -4.77625369E-03