140066                                                                  
Freq      RMP2-FC                                                     6-31G(d)            
Number of atoms                            I               18
Info1-9                                    I   N=           9
          30          28        1002           0           0         100
           6           2           1
Charge                                     I                0
Multiplicity                               I                1
Number of electrons                        I               58
Number of alpha electrons                  I               29
Number of beta electrons                   I               29
Number of basis functions                  I              140
Number of independent functions            I              140
Number of point charges in /Mol/           I                0
Number of translation vectors              I                0
Atomic numbers                             I   N=          18
           6           6           6           6           6           6
           6           6           1           1           1           1
           1           1           1           1           1           1
Nuclear charges                            R   N=          18
  6.00000000E+00  6.00000000E+00  6.00000000E+00  6.00000000E+00  6.00000000E+00
  6.00000000E+00  6.00000000E+00  6.00000000E+00  1.00000000E+00  1.00000000E+00
  1.00000000E+00  1.00000000E+00  1.00000000E+00  1.00000000E+00  1.00000000E+00
  1.00000000E+00  1.00000000E+00  1.00000000E+00
Current cartesian coordinates              R   N=          54
 -6.25586226E+00  1.25583622E+00 -2.44568502E-04  6.25586530E+00 -1.25583503E+00
 -2.45205893E-04 -7.78370665E+00 -1.20602036E+00  5.69912950E-04  7.78370147E+00
  1.20602675E+00  5.69893477E-04 -3.52975887E+00  7.98431615E-01 -2.68219688E-04
  3.52976055E+00 -7.98438347E-01 -2.66241604E-04 -1.26934151E+00  2.60114830E-01
 -2.60552934E-04  1.26934340E+00 -2.60120425E-01 -2.60681909E-04 -6.75517179E+00
  2.39326308E+00 -1.65930667E+00 -6.75497857E+00  2.39423955E+00  1.65820589E+00
  6.75517727E+00 -2.39325935E+00 -1.65930830E+00  6.75498644E+00 -2.39423775E+00
  1.65820418E+00 -7.34315200E+00 -2.33219222E+00  1.67343809E+00 -7.34334322E+00
 -2.33318065E+00 -1.67168280E+00 -9.80937548E+00 -7.93697804E-01  5.63956398E-04
  7.34333259E+00  2.33318683E+00 -1.67168151E+00  7.34314442E+00  2.33219569E+00
  1.67343939E+00  9.80937172E+00  7.93711118E-01  5.61767439E-04
Force Field                                I                0
Int Atom Types                             I   N=          18
           0           0           0           0           0           0
           0           0           0           0           0           0
           0           0           0           0           0           0
MM charges                                 R   N=          18
  0.00000000E+00  0.00000000E+00  0.00000000E+00  0.00000000E+00  0.00000000E+00
  0.00000000E+00  0.00000000E+00  0.00000000E+00  0.00000000E+00  0.00000000E+00
  0.00000000E+00  0.00000000E+00  0.00000000E+00  0.00000000E+00  0.00000000E+00
  0.00000000E+00  0.00000000E+00  0.00000000E+00
Integer atomic weights                     I   N=          18
          12          12          12          12          12          12
          12          12           1           1           1           1
           1           1           1           1           1           1
Real atomic weights                        R   N=          18
  1.20000000E+01  1.20000000E+01  1.20000000E+01  1.20000000E+01  1.20000000E+01
  1.20000000E+01  1.20000000E+01  1.20000000E+01  1.00782504E+00  1.00782504E+00
  1.00782504E+00  1.00782504E+00  1.00782504E+00  1.00782504E+00  1.00782504E+00
  1.00782504E+00  1.00782504E+00  1.00782504E+00
Atom fragment info                         I   N=          18
           0           0           0           0           0           0
           0           0           0           0           0           0
           0           0           0           0           0           0
Atom residue num                           I   N=          18
           0           0           0           0           0           0
           0           0           0           0           0           0
           0           0           0           0           0           0
Nuclear spins                              I   N=          18
           0           0           0           0           0           0
           0           0           1           1           1           1
           1           1           1           1           1           1
Nuclear ZEff                               R   N=          18
 -3.60000000E+00 -3.60000000E+00 -3.60000000E+00 -3.60000000E+00 -3.60000000E+00
 -3.60000000E+00 -3.60000000E+00 -3.60000000E+00 -1.00000000E+00 -1.00000000E+00
 -1.00000000E+00 -1.00000000E+00 -1.00000000E+00 -1.00000000E+00 -1.00000000E+00
 -1.00000000E+00 -1.00000000E+00 -1.00000000E+00
Nuclear QMom                               R   N=          18
  0.00000000E+00  0.00000000E+00  0.00000000E+00  0.00000000E+00  0.00000000E+00
  0.00000000E+00  0.00000000E+00  0.00000000E+00  0.00000000E+00  0.00000000E+00
  0.00000000E+00  0.00000000E+00  0.00000000E+00  0.00000000E+00  0.00000000E+00
  0.00000000E+00  0.00000000E+00  0.00000000E+00
Nuclear GFac                               R   N=          18
  0.00000000E+00  0.00000000E+00  0.00000000E+00  0.00000000E+00  0.00000000E+00
  0.00000000E+00  0.00000000E+00  0.00000000E+00  2.79284600E+00  2.79284600E+00
  2.79284600E+00  2.79284600E+00  2.79284600E+00  2.79284600E+00  2.79284600E+00
  2.79284600E+00  2.79284600E+00  2.79284600E+00
MicOpt                                     I   N=          18
          -1          -1          -1          -1          -1          -1
          -1          -1          -1          -1          -1          -1
          -1          -1          -1          -1          -1          -1
Number of contracted shells                I               52
Number of primitive shells                 I              128
Pure/Cartesian d shells                    I                1
Pure/Cartesian f shells                    I                0
Highest angular momentum                   I                2
Largest degree of contraction              I                6
Shell types                                I   N=          52
           0          -1          -1           2           0          -1
          -1           2           0          -1          -1           2
           0          -1          -1           2           0          -1
          -1           2           0          -1          -1           2
           0          -1          -1           2           0          -1
          -1           2           0           0           0           0
           0           0           0           0           0           0
           0           0           0           0           0           0
           0           0           0           0
Number of primitives per shell             I   N=          52
           6           3           1           1           6           3
           1           1           6           3           1           1
           6           3           1           1           6           3
           1           1           6           3           1           1
           6           3           1           1           6           3
           1           1           3           1           3           1
           3           1           3           1           3           1
           3           1           3           1           3           1
           3           1           3           1
Shell to atom map                          I   N=          52
           1           1           1           1           2           2
           2           2           3           3           3           3
           4           4           4           4           5           5
           5           5           6           6           6           6
           7           7           7           7           8           8
           8           8           9           9          10          10
          11          11          12          12          13          13
          14          14          15          15          16          16
          17          17          18          18
Primitive exponents                        R   N=         128
  3.04752488E+03  4.57369518E+02  1.03948685E+02  2.92101553E+01  9.28666296E+00
  3.16392696E+00  7.86827235E+00  1.88128854E+00  5.44249258E-01  1.68714478E-01
  8.00000000E-01  3.04752488E+03  4.57369518E+02  1.03948685E+02  2.92101553E+01
  9.28666296E+00  3.16392696E+00  7.86827235E+00  1.88128854E+00  5.44249258E-01
  1.68714478E-01  8.00000000E-01  3.04752488E+03  4.57369518E+02  1.03948685E+02
  2.92101553E+01  9.28666296E+00  3.16392696E+00  7.86827235E+00  1.88128854E+00
  5.44249258E-01  1.68714478E-01  8.00000000E-01  3.04752488E+03  4.57369518E+02
  1.03948685E+02  2.92101553E+01  9.28666296E+00  3.16392696E+00  7.86827235E+00
  1.88128854E+00  5.44249258E-01  1.68714478E-01  8.00000000E-01  3.04752488E+03
  4.57369518E+02  1.03948685E+02  2.92101553E+01  9.28666296E+00  3.16392696E+00
  7.86827235E+00  1.88128854E+00  5.44249258E-01  1.68714478E-01  8.00000000E-01
  3.04752488E+03  4.57369518E+02  1.03948685E+02  2.92101553E+01  9.28666296E+00
  3.16392696E+00  7.86827235E+00  1.88128854E+00  5.44249258E-01  1.68714478E-01
  8.00000000E-01  3.04752488E+03  4.57369518E+02  1.03948685E+02  2.92101553E+01
  9.28666296E+00  3.16392696E+00  7.86827235E+00  1.88128854E+00  5.44249258E-01
  1.68714478E-01  8.00000000E-01  3.04752488E+03  4.57369518E+02  1.03948685E+02
  2.92101553E+01  9.28666296E+00  3.16392696E+00  7.86827235E+00  1.88128854E+00
  5.44249258E-01  1.68714478E-01  8.00000000E-01  1.87311370E+01  2.82539436E+00
  6.40121692E-01  1.61277759E-01  1.87311370E+01  2.82539436E+00  6.40121692E-01
  1.61277759E-01  1.87311370E+01  2.82539436E+00  6.40121692E-01  1.61277759E-01
  1.87311370E+01  2.82539436E+00  6.40121692E-01  1.61277759E-01  1.87311370E+01
  2.82539436E+00  6.40121692E-01  1.61277759E-01  1.87311370E+01  2.82539436E+00
  6.40121692E-01  1.61277759E-01  1.87311370E+01  2.82539436E+00  6.40121692E-01
  1.61277759E-01  1.87311370E+01  2.82539436E+00  6.40121692E-01  1.61277759E-01
  1.87311370E+01  2.82539436E+00  6.40121692E-01  1.61277759E-01  1.87311370E+01
  2.82539436E+00  6.40121692E-01  1.61277759E-01
Contraction coefficients                   R   N=         128
  1.83473713E-03  1.40373228E-02  6.88426223E-02  2.32184443E-01  4.67941348E-01
  3.62311985E-01 -1.19332420E-01 -1.60854152E-01  1.14345644E+00  1.00000000E+00
  1.00000000E+00  1.83473713E-03  1.40373228E-02  6.88426223E-02  2.32184443E-01
  4.67941348E-01  3.62311985E-01 -1.19332420E-01 -1.60854152E-01  1.14345644E+00
  1.00000000E+00  1.00000000E+00  1.83473713E-03  1.40373228E-02  6.88426223E-02
  2.32184443E-01  4.67941348E-01  3.62311985E-01 -1.19332420E-01 -1.60854152E-01
  1.14345644E+00  1.00000000E+00  1.00000000E+00  1.83473713E-03  1.40373228E-02
  6.88426223E-02  2.32184443E-01  4.67941348E-01  3.62311985E-01 -1.19332420E-01
 -1.60854152E-01  1.14345644E+00  1.00000000E+00  1.00000000E+00  1.83473713E-03
  1.40373228E-02  6.88426223E-02  2.32184443E-01  4.67941348E-01  3.62311985E-01
 -1.19332420E-01 -1.60854152E-01  1.14345644E+00  1.00000000E+00  1.00000000E+00
  1.83473713E-03  1.40373228E-02  6.88426223E-02  2.32184443E-01  4.67941348E-01
  3.62311985E-01 -1.19332420E-01 -1.60854152E-01  1.14345644E+00  1.00000000E+00
  1.00000000E+00  1.83473713E-03  1.40373228E-02  6.88426223E-02  2.32184443E-01
  4.67941348E-01  3.62311985E-01 -1.19332420E-01 -1.60854152E-01  1.14345644E+00
  1.00000000E+00  1.00000000E+00  1.83473713E-03  1.40373228E-02  6.88426223E-02
  2.32184443E-01  4.67941348E-01  3.62311985E-01 -1.19332420E-01 -1.60854152E-01
  1.14345644E+00  1.00000000E+00  1.00000000E+00  3.34946043E-02  2.34726953E-01
  8.13757326E-01  1.00000000E+00  3.34946043E-02  2.34726953E-01  8.13757326E-01
  1.00000000E+00  3.34946043E-02  2.34726953E-01  8.13757326E-01  1.00000000E+00
  3.34946043E-02  2.34726953E-01  8.13757326E-01  1.00000000E+00  3.34946043E-02
  2.34726953E-01  8.13757326E-01  1.00000000E+00  3.34946043E-02  2.34726953E-01
  8.13757326E-01  1.00000000E+00  3.34946043E-02  2.34726953E-01  8.13757326E-01
  1.00000000E+00  3.34946043E-02  2.34726953E-01  8.13757326E-01  1.00000000E+00
  3.34946043E-02  2.34726953E-01  8.13757326E-01  1.00000000E+00  3.34946043E-02
  2.34726953E-01  8.13757326E-01  1.00000000E+00
P(S=P) Contraction coefficients            R   N=         128
  0.00000000E+00  0.00000000E+00  0.00000000E+00  0.00000000E+00  0.00000000E+00
  0.00000000E+00  6.89990666E-02  3.16423961E-01  7.44308291E-01  1.00000000E+00
  0.00000000E+00  0.00000000E+00  0.00000000E+00  0.00000000E+00  0.00000000E+00
  0.00000000E+00  0.00000000E+00  6.89990666E-02  3.16423961E-01  7.44308291E-01
  1.00000000E+00  0.00000000E+00  0.00000000E+00  0.00000000E+00  0.00000000E+00
  0.00000000E+00  0.00000000E+00  0.00000000E+00  6.89990666E-02  3.16423961E-01
  7.44308291E-01  1.00000000E+00  0.00000000E+00  0.00000000E+00  0.00000000E+00
  0.00000000E+00  0.00000000E+00  0.00000000E+00  0.00000000E+00  6.89990666E-02
  3.16423961E-01  7.44308291E-01  1.00000000E+00  0.00000000E+00  0.00000000E+00
  0.00000000E+00  0.00000000E+00  0.00000000E+00  0.00000000E+00  0.00000000E+00
  6.89990666E-02  3.16423961E-01  7.44308291E-01  1.00000000E+00  0.00000000E+00
  0.00000000E+00  0.00000000E+00  0.00000000E+00  0.00000000E+00  0.00000000E+00
  0.00000000E+00  6.89990666E-02  3.16423961E-01  7.44308291E-01  1.00000000E+00
  0.00000000E+00  0.00000000E+00  0.00000000E+00  0.00000000E+00  0.00000000E+00
  0.00000000E+00  0.00000000E+00  6.89990666E-02  3.16423961E-01  7.44308291E-01
  1.00000000E+00  0.00000000E+00  0.00000000E+00  0.00000000E+00  0.00000000E+00
  0.00000000E+00  0.00000000E+00  0.00000000E+00  6.89990666E-02  3.16423961E-01
  7.44308291E-01  1.00000000E+00  0.00000000E+00  0.00000000E+00  0.00000000E+00
  0.00000000E+00  0.00000000E+00  0.00000000E+00  0.00000000E+00  0.00000000E+00
  0.00000000E+00  0.00000000E+00  0.00000000E+00  0.00000000E+00  0.00000000E+00
  0.00000000E+00  0.00000000E+00  0.00000000E+00  0.00000000E+00  0.00000000E+00
  0.00000000E+00  0.00000000E+00  0.00000000E+00  0.00000000E+00  0.00000000E+00
  0.00000000E+00  0.00000000E+00  0.00000000E+00  0.00000000E+00  0.00000000E+00
  0.00000000E+00  0.00000000E+00  0.00000000E+00  0.00000000E+00  0.00000000E+00
  0.00000000E+00  0.00000000E+00  0.00000000E+00  0.00000000E+00  0.00000000E+00
  0.00000000E+00  0.00000000E+00  0.00000000E+00
Coordinates of each shell                  R   N=         156
 -6.25586226E+00  1.25583622E+00 -2.44568502E-04 -6.25586226E+00  1.25583622E+00
 -2.44568502E-04 -6.25586226E+00  1.25583622E+00 -2.44568502E-04 -6.25586226E+00
  1.25583622E+00 -2.44568502E-04  6.25586530E+00 -1.25583503E+00 -2.45205893E-04
  6.25586530E+00 -1.25583503E+00 -2.45205893E-04  6.25586530E+00 -1.25583503E+00
 -2.45205893E-04  6.25586530E+00 -1.25583503E+00 -2.45205893E-04 -7.78370665E+00
 -1.20602036E+00  5.69912950E-04 -7.78370665E+00 -1.20602036E+00  5.69912950E-04
 -7.78370665E+00 -1.20602036E+00  5.69912950E-04 -7.78370665E+00 -1.20602036E+00
  5.69912950E-04  7.78370147E+00  1.20602675E+00  5.69893477E-04  7.78370147E+00
  1.20602675E+00  5.69893477E-04  7.78370147E+00  1.20602675E+00  5.69893477E-04
  7.78370147E+00  1.20602675E+00  5.69893477E-04 -3.52975887E+00  7.98431615E-01
 -2.68219688E-04 -3.52975887E+00  7.98431615E-01 -2.68219688E-04 -3.52975887E+00
  7.98431615E-01 -2.68219688E-04 -3.52975887E+00  7.98431615E-01 -2.68219688E-04
  3.52976055E+00 -7.98438347E-01 -2.66241604E-04  3.52976055E+00 -7.98438347E-01
 -2.66241604E-04  3.52976055E+00 -7.98438347E-01 -2.66241604E-04  3.52976055E+00
 -7.98438347E-01 -2.66241604E-04 -1.26934151E+00  2.60114830E-01 -2.60552934E-04
 -1.26934151E+00  2.60114830E-01 -2.60552934E-04 -1.26934151E+00  2.60114830E-01
 -2.60552934E-04 -1.26934151E+00  2.60114830E-01 -2.60552934E-04  1.26934340E+00
 -2.60120425E-01 -2.60681909E-04  1.26934340E+00 -2.60120425E-01 -2.60681909E-04
  1.26934340E+00 -2.60120425E-01 -2.60681909E-04  1.26934340E+00 -2.60120425E-01
 -2.60681909E-04 -6.75517179E+00  2.39326308E+00 -1.65930667E+00 -6.75517179E+00
  2.39326308E+00 -1.65930667E+00 -6.75497857E+00  2.39423955E+00  1.65820589E+00
 -6.75497857E+00  2.39423955E+00  1.65820589E+00  6.75517727E+00 -2.39325935E+00
 -1.65930830E+00  6.75517727E+00 -2.39325935E+00 -1.65930830E+00  6.75498644E+00
 -2.39423775E+00  1.65820418E+00  6.75498644E+00 -2.39423775E+00  1.65820418E+00
 -7.34315200E+00 -2.33219222E+00  1.67343809E+00 -7.34315200E+00 -2.33219222E+00
  1.67343809E+00 -7.34334322E+00 -2.33318065E+00 -1.67168280E+00 -7.34334322E+00
 -2.33318065E+00 -1.67168280E+00 -9.80937548E+00 -7.93697804E-01  5.63956398E-04
 -9.80937548E+00 -7.93697804E-01  5.63956398E-04  7.34333259E+00  2.33318683E+00
 -1.67168151E+00  7.34333259E+00  2.33318683E+00 -1.67168151E+00  7.34314442E+00
  2.33219569E+00  1.67343939E+00  7.34314442E+00  2.33219569E+00  1.67343939E+00
  9.80937172E+00  7.93711118E-01  5.61767439E-04  9.80937172E+00  7.93711118E-01
  5.61767439E-04
Constraint Structure                       R   N=          54
 -6.25586226E+00  1.25583622E+00 -2.44568502E-04  6.25586530E+00 -1.25583503E+00
 -2.45205893E-04 -7.78370665E+00 -1.20602036E+00  5.69912950E-04  7.78370147E+00
  1.20602675E+00  5.69893477E-04 -3.52975887E+00  7.98431615E-01 -2.68219688E-04
  3.52976055E+00 -7.98438347E-01 -2.66241604E-04 -1.26934151E+00  2.60114830E-01
 -2.60552934E-04  1.26934340E+00 -2.60120425E-01 -2.60681909E-04 -6.75517179E+00
  2.39326308E+00 -1.65930667E+00 -6.75497857E+00  2.39423955E+00  1.65820589E+00
  6.75517727E+00 -2.39325935E+00 -1.65930830E+00  6.75498644E+00 -2.39423775E+00
  1.65820418E+00 -7.34315200E+00 -2.33219222E+00  1.67343809E+00 -7.34334322E+00
 -2.33318065E+00 -1.67168280E+00 -9.80937548E+00 -7.93697804E-01  5.63956398E-04
  7.34333259E+00  2.33318683E+00 -1.67168151E+00  7.34314442E+00  2.33219569E+00
  1.67343939E+00  9.80937172E+00  7.93711118E-01  5.61767439E-04
Num ILSW                                   I              100
ILSW                                       I   N=         100
           0           1           0           0           2           0
           0           0           0           0           0          -1
           0           0           0           0           0           0
           0           0           0           0           1           0
           1           0           0           0           0           0
           0           0      100000           0          -1           0
           0           0           0           0           0           0
           0           0           0           1           1           0
           0           0           1           0           0           0
           0           0           4          40           0           0
           0           0           0           0           0           0
           0           0           0           0           0           0
           0           0           0           0           0           0
           0           0           0           0           0           0
           0           0           0           0           0           0
           0           0           0           0           0           0
           0           0           0           0
Num RLSW                                   I               40
RLSW                                       R   N=          40
  1.00000000E+00  1.00000000E+00  1.00000000E+00  1.00000000E+00  1.00000000E+00
  0.00000000E+00  0.00000000E+00  1.00000000E+00  0.00000000E+00  0.00000000E+00
  0.00000000E+00  0.00000000E+00  1.00000000E+00  0.00000000E+00  0.00000000E+00
  0.00000000E+00  0.00000000E+00  1.00000000E+00  0.00000000E+00  0.00000000E+00
  0.00000000E+00  0.00000000E+00  1.00000000E+00  0.00000000E+00  0.00000000E+00
  0.00000000E+00  0.00000000E+00  1.00000000E+00  0.00000000E+00  0.00000000E+00
  0.00000000E+00  0.00000000E+00  0.00000000E+00  0.00000000E+00  0.00000000E+00
  0.00000000E+00  0.00000000E+00  0.00000000E+00  1.00000000E+00  1.00000000E+00
MxBond                                     I                4
NBond                                      I   N=          18
           4           4           4           4           2           2
           2           2           1           1           1           1
           1           1           1           1           1           1
IBond                                      I   N=          72
           3           5           9          10           4           6
          11          12           1          13          14          15
           2          16          17          18           1           7
           0           0           2           8           0           0
           5           8           0           0           6           7
           0           0           1           0           0           0
           1           0           0           0           2           0
           0           0           2           0           0           0
           3           0           0           0           3           0
           0           0           3           0           0           0
           4           0           0           0           4           0
           0           0           4           0           0           0
RBond                                      R   N=          72
  1.00000000E+00  1.00000000E+00  1.00000000E+00  1.00000000E+00  1.00000000E+00
  1.00000000E+00  1.00000000E+00  1.00000000E+00  1.00000000E+00  1.00000000E+00
  1.00000000E+00  1.00000000E+00  1.00000000E+00  1.00000000E+00  1.00000000E+00
  1.00000000E+00  1.00000000E+00  3.00000000E+00  0.00000000E+00  0.00000000E+00
  1.00000000E+00  3.00000000E+00  0.00000000E+00  0.00000000E+00  3.00000000E+00
  1.50000000E+00  0.00000000E+00  0.00000000E+00  3.00000000E+00  1.50000000E+00
  0.00000000E+00  0.00000000E+00  1.00000000E+00  0.00000000E+00  0.00000000E+00
  0.00000000E+00  1.00000000E+00  0.00000000E+00  0.00000000E+00  0.00000000E+00
  1.00000000E+00  0.00000000E+00  0.00000000E+00  0.00000000E+00  1.00000000E+00
  0.00000000E+00  0.00000000E+00  0.00000000E+00  1.00000000E+00  0.00000000E+00
  0.00000000E+00  0.00000000E+00  1.00000000E+00  0.00000000E+00  0.00000000E+00
  0.00000000E+00  1.00000000E+00  0.00000000E+00  0.00000000E+00  0.00000000E+00
  1.00000000E+00  0.00000000E+00  0.00000000E+00  0.00000000E+00  1.00000000E+00
  0.00000000E+00  0.00000000E+00  0.00000000E+00  1.00000000E+00  0.00000000E+00
  0.00000000E+00  0.00000000E+00
Virial Ratio                               R      2.002145833778839E+00
SCF Energy                                 R     -3.086541369591500E+02
MP2 Energy                                 R     -3.096774146746728E+02
Total Energy                               R     -3.096774146746728E+02
Post-SCF wavefunction norm                 R      1.663138021408043E+00
RMS Force                                  R      3.110521573024131E-08
RMS Density                                R      2.328441017758546E-09
External E-field                           R   N=          35
  0.00000000E+00  0.00000000E+00  0.00000000E+00  0.00000000E+00  0.00000000E+00
  0.00000000E+00  0.00000000E+00  0.00000000E+00  0.00000000E+00  0.00000000E+00
  0.00000000E+00  0.00000000E+00  0.00000000E+00  0.00000000E+00  0.00000000E+00
  0.00000000E+00  0.00000000E+00  0.00000000E+00  0.00000000E+00  0.00000000E+00
  0.00000000E+00  0.00000000E+00  0.00000000E+00  0.00000000E+00  0.00000000E+00
  0.00000000E+00  0.00000000E+00  0.00000000E+00  0.00000000E+00  0.00000000E+00
  0.00000000E+00  0.00000000E+00  0.00000000E+00  0.00000000E+00  0.00000000E+00
IOpCl                                      I                0
IROHF                                      I                0
Alpha Orbital Energies                     R   N=         140
 -1.12564256E+01 -1.12564251E+01 -1.12451866E+01 -1.12450034E+01 -1.12414601E+01
 -1.12405184E+01 -1.12272747E+01 -1.12272747E+01 -1.08950432E+00 -1.07614298E+00
 -1.02752933E+00 -9.67964197E-01 -8.87320431E-01 -8.65375480E-01 -7.78887196E-01
 -6.53126311E-01 -6.41229162E-01 -6.28409526E-01 -6.27245008E-01 -5.54555794E-01
 -5.49778667E-01 -5.24990479E-01 -5.23264912E-01 -5.16275484E-01 -5.12576653E-01
 -4.44432958E-01 -4.44043557E-01 -3.22213271E-01 -3.21493883E-01  1.41027665E-01
  1.45281677E-01  2.36431933E-01  2.46042379E-01  2.86890526E-01  2.94438838E-01
  2.95120238E-01  3.02422054E-01  3.10608133E-01  3.18961527E-01  3.20644183E-01
  3.47566896E-01  3.52416260E-01  3.89173863E-01  4.18399472E-01  4.21155577E-01
  4.32534721E-01  4.66073844E-01  5.05013319E-01  6.16840413E-01  6.17957876E-01
  6.33446707E-01  7.27079345E-01  7.27212947E-01  7.45756909E-01  7.46632452E-01
  7.48377690E-01  7.67637733E-01  7.83101398E-01  8.27659671E-01  8.42742377E-01
  8.86230398E-01  9.19024686E-01  9.19586868E-01  9.69320632E-01  9.93368256E-01
  9.96928954E-01  1.04292109E+00  1.07801043E+00  1.08407670E+00  1.10864721E+00
  1.12302868E+00  1.12681338E+00  1.14675879E+00  1.15465450E+00  1.15856954E+00
  1.16784994E+00  1.18297062E+00  1.20668279E+00  1.21812668E+00  1.23335080E+00
  1.24802743E+00  1.25451700E+00  1.29121809E+00  1.34273358E+00  1.37227289E+00
  1.48529265E+00  1.52743827E+00  1.58002791E+00  1.62968152E+00  1.74963798E+00
  1.75087010E+00  1.77067691E+00  1.77831619E+00  1.79371334E+00  1.84379862E+00
  1.86695336E+00  1.87696921E+00  1.89921096E+00  1.96536098E+00  1.97275620E+00
  2.01212538E+00  2.07243853E+00  2.14495374E+00  2.17237711E+00  2.17510373E+00
  2.18402983E+00  2.21913651E+00  2.26403085E+00  2.27868339E+00  2.29170151E+00
  2.31874208E+00  2.36453424E+00  2.37615210E+00  2.38847868E+00  2.45493665E+00
  2.51480456E+00  2.56759438E+00  2.63394301E+00  2.63965426E+00  2.66299723E+00
  2.66540101E+00  2.71935345E+00  2.81027538E+00  2.83065999E+00  2.92605777E+00
  2.93660150E+00  3.05598779E+00  3.20115383E+00  3.48259386E+00  3.50928923E+00
  3.68385194E+00  4.04942473E+00  4.49412643E+00  4.56626539E+00  4.60211567E+00
  4.71090178E+00  4.75072869E+00  5.00959533E+00  5.11457932E+00  5.92675697E+00
Alpha MO coefficients                      R   N=       19600
  7.15332147E-01  2.05840261E-02  4.31455809E-04 -1.20857856E-04  1.01621201E-08
 -1.24286541E-02 -4.81198097E-04  8.38012649E-04 -1.98237788E-07 -1.02975648E-03
 -1.15557344E-03 -1.07494701E-03 -1.47159618E-05  3.17755925E-09  2.86388234E-08
 -6.92125714E-01 -1.99161299E-02  4.19031748E-04 -1.17292487E-04 -1.01640717E-08
  1.19855283E-02 -4.48685622E-04  8.11530993E-04  1.89240035E-07  9.95194069E-04
  1.11793728E-03  1.03962108E-03  1.40568758E-05  3.49839814E-09  2.79228347E-08
  6.98770131E-03  2.21698735E-04  9.42526762E-05  4.97965654E-05 -1.94711311E-08
  3.02927125E-03  6.83114514E-04  1.23854802E-03 -4.13335113E-07 -1.44761050E-04
 -2.84881655E-04 -6.59111491E-05 -1.02409022E-04  3.50112397E-08  8.00456423E-08
 -6.76102912E-03 -2.14408188E-04  9.14205244E-05  4.80111248E-05  1.86161255E-08
 -2.93210826E-03  6.60391379E-04  1.19979267E-03  4.02582639E-07  1.39863849E-04
  2.75655658E-04  6.38598938E-05  9.91768597E-05  3.37819343E-08  7.74294781E-08
  2.20452718E-02  6.06119797E-04 -1.64187153E-05  5.31636044E-06  1.60675632E-09
  1.19810975E-02  2.20127585E-03 -9.00164572E-04  8.15786271E-08 -7.49790759E-04
 -1.93587862E-04 -1.41885075E-04  1.35666384E-04  1.63122924E-09  9.94737521E-09
 -2.13306478E-02 -5.83437545E-04 -1.80768299E-05  5.80056560E-06 -2.00180950E-09
 -1.18401064E-02  2.27214437E-03 -9.06265155E-04 -6.99362691E-08  7.28702513E-04
  1.87168320E-04  1.37043443E-04 -1.32086346E-04  1.05819458E-09  9.83016871E-09
  1.82493211E-03  1.03810717E-04 -2.10750209E-04  5.69054913E-05 -1.38285431E-10
  2.99700571E-03  1.17261741E-02 -2.43024778E-03 -1.68287116E-08  4.62680815E-04
  3.00299025E-05  2.55409530E-06 -1.19480334E-04  2.42381989E-09 -1.54335329E-09
 -1.76597930E-03 -9.64285877E-05 -2.02951072E-04  5.51583374E-05 -3.84014163E-10
 -3.00902719E-03  1.17030296E-02 -2.43009956E-03  1.71138681E-08 -4.59621950E-04
 -2.97326370E-05 -2.77673568E-06  1.18030797E-04  2.16307749E-09 -1.38299752E-09
  2.05795463E-04  1.88762785E-03  2.05791495E-04  1.88761845E-03 -1.98732131E-04
 -1.82623427E-03 -1.98727447E-04 -1.82622314E-03 -1.15747694E-04  6.21968186E-05
 -1.15748790E-04  6.21893476E-05 -1.02625871E-04 -1.65276808E-04  1.11889050E-04
 -6.04644358E-05  1.11887731E-04 -6.04732923E-05  9.95238237E-05  1.59712625E-04
  6.92123155E-01  1.99198330E-02  3.69735426E-04 -1.06115391E-04  9.46459168E-09
 -1.32367018E-02 -9.78401169E-04  7.89581829E-04 -1.66078948E-07 -1.03139717E-03
 -1.12256913E-03 -1.05380569E-03 -1.97293681E-05  4.82496877E-09  2.47894232E-08
  7.15329671E-01  2.05876098E-02 -3.83758644E-04  1.10040845E-04  1.03199675E-08
 -1.36392521E-02  9.93736860E-04 -8.16777916E-04 -1.74073092E-07 -1.06478512E-03
 -1.16005551E-03 -1.08867119E-03 -2.02035979E-05 -5.01841631E-09 -2.57361189E-08
  6.76038096E-03  2.17493117E-04  8.43582498E-05  5.33522227E-05 -2.02098268E-08
  2.89736477E-03  6.77831747E-04  1.15527033E-03 -3.84794032E-07 -1.46146903E-04
 -2.75162040E-04 -6.11311730E-05 -9.63346426E-05  3.37944870E-08  7.82245510E-08
  6.98707268E-03  2.24683821E-04 -8.74195645E-05 -5.49652631E-05 -2.07838690E-08
  2.99565762E-03 -6.99979346E-04 -1.19547704E-03 -3.98687704E-07 -1.50839361E-04
 -2.84404760E-04 -6.32708535E-05 -9.96579254E-05 -3.49230037E-08 -8.09335347E-08