opt=Tight                                                               
Freq      RMP2-FC                                                     6-31G(d)            
Number of atoms                            I               12
Info1-9                                    I   N=           9
          21          21        1002           0           0         100
           6           2           1
Charge                                     I               -2
Multiplicity                               I                1
Number of electrons                        I               62
Number of alpha electrons                  I               31
Number of beta electrons                   I               31
Number of basis functions                  I              128
Number of independent functions            I              128
Number of point charges in /Mol/           I                0
Number of translation vectors              I                0
Atomic numbers                             I   N=          12
           8           8           8           8           6           6
           6           6           1           1           1           1
Nuclear charges                            R   N=          12
  8.00000000E+00  8.00000000E+00  8.00000000E+00  8.00000000E+00  6.00000000E+00
  6.00000000E+00  6.00000000E+00  6.00000000E+00  1.00000000E+00  1.00000000E+00
  1.00000000E+00  1.00000000E+00
Current cartesian coordinates              R   N=          36
  5.34757702E+00  1.07808856E+00 -1.44410452E+00 -4.15404841E+00  1.70238887E+00
  1.59436681E+00  4.15404129E+00 -1.70235965E+00  1.59441406E+00 -5.34756867E+00
 -1.07810842E+00 -1.44411304E+00  1.00015439E+00  1.03717286E+00 -1.45535017E-01
 -1.00015568E+00 -1.03718224E+00 -1.45507997E-01  3.73472149E+00  4.31809998E-02
  1.27630850E-04 -3.73472129E+00 -4.31809303E-02  1.13937919E-04  6.47729510E-01
  2.25032929E+00  1.49732551E+00  8.07430338E-01  2.23297017E+00 -1.82723866E+00
 -6.47738290E-01 -2.25028906E+00  1.49739068E+00 -8.07424824E-01 -2.23302947E+00
 -1.82717528E+00
Force Field                                I                0
Int Atom Types                             I   N=          12
           0           0           0           0           0           0
           0           0           0           0           0           0
MM charges                                 R   N=          12
  0.00000000E+00  0.00000000E+00  0.00000000E+00  0.00000000E+00  0.00000000E+00
  0.00000000E+00  0.00000000E+00  0.00000000E+00  0.00000000E+00  0.00000000E+00
  0.00000000E+00  0.00000000E+00
Integer atomic weights                     I   N=          12
          16          16          16          16          12          12
          12          12           1           1           1           1
Real atomic weights                        R   N=          12
  1.59949146E+01  1.59949146E+01  1.59949146E+01  1.59949146E+01  1.20000000E+01
  1.20000000E+01  1.20000000E+01  1.20000000E+01  1.00782504E+00  1.00782504E+00
  1.00782504E+00  1.00782504E+00
Atom fragment info                         I   N=          12
           0           0           0           0           0           0
           0           0           0           0           0           0
Atom residue num                           I   N=          12
           0           0           0           0           0           0
           0           0           0           0           0           0
Nuclear spins                              I   N=          12
           0           0           0           0           0           0
           0           0           1           1           1           1
Nuclear ZEff                               R   N=          12
 -5.60000000E+00 -5.60000000E+00 -5.60000000E+00 -5.60000000E+00 -3.60000000E+00
 -3.60000000E+00 -3.60000000E+00 -3.60000000E+00 -1.00000000E+00 -1.00000000E+00
 -1.00000000E+00 -1.00000000E+00
Nuclear QMom                               R   N=          12
  0.00000000E+00  0.00000000E+00  0.00000000E+00  0.00000000E+00  0.00000000E+00
  0.00000000E+00  0.00000000E+00  0.00000000E+00  0.00000000E+00  0.00000000E+00
  0.00000000E+00  0.00000000E+00
Nuclear GFac                               R   N=          12
  0.00000000E+00  0.00000000E+00  0.00000000E+00  0.00000000E+00  0.00000000E+00
  0.00000000E+00  0.00000000E+00  0.00000000E+00  2.79284600E+00  2.79284600E+00
  2.79284600E+00  2.79284600E+00
MicOpt                                     I   N=          12
          -1          -1          -1          -1          -1          -1
          -1          -1          -1          -1          -1          -1
Number of contracted shells                I               40
Number of primitive shells                 I              104
Pure/Cartesian d shells                    I                1
Pure/Cartesian f shells                    I                0
Highest angular momentum                   I                2
Largest degree of contraction              I                6
Shell types                                I   N=          40
           0          -1          -1           2           0          -1
          -1           2           0          -1          -1           2
           0          -1          -1           2           0          -1
          -1           2           0          -1          -1           2
           0          -1          -1           2           0          -1
          -1           2           0           0           0           0
           0           0           0           0
Number of primitives per shell             I   N=          40
           6           3           1           1           6           3
           1           1           6           3           1           1
           6           3           1           1           6           3
           1           1           6           3           1           1
           6           3           1           1           6           3
           1           1           3           1           3           1
           3           1           3           1
Shell to atom map                          I   N=          40
           1           1           1           1           2           2
           2           2           3           3           3           3
           4           4           4           4           5           5
           5           5           6           6           6           6
           7           7           7           7           8           8
           8           8           9           9          10          10
          11          11          12          12
Primitive exponents                        R   N=         104
  5.48467166E+03  8.25234946E+02  1.88046958E+02  5.29645000E+01  1.68975704E+01
  5.79963534E+00  1.55396162E+01  3.59993359E+00  1.01376175E+00  2.70005823E-01
  8.00000000E-01  5.48467166E+03  8.25234946E+02  1.88046958E+02  5.29645000E+01
  1.68975704E+01  5.79963534E+00  1.55396162E+01  3.59993359E+00  1.01376175E+00
  2.70005823E-01  8.00000000E-01  5.48467166E+03  8.25234946E+02  1.88046958E+02
  5.29645000E+01  1.68975704E+01  5.79963534E+00  1.55396162E+01  3.59993359E+00
  1.01376175E+00  2.70005823E-01  8.00000000E-01  5.48467166E+03  8.25234946E+02
  1.88046958E+02  5.29645000E+01  1.68975704E+01  5.79963534E+00  1.55396162E+01
  3.59993359E+00  1.01376175E+00  2.70005823E-01  8.00000000E-01  3.04752488E+03
  4.57369518E+02  1.03948685E+02  2.92101553E+01  9.28666296E+00  3.16392696E+00
  7.86827235E+00  1.88128854E+00  5.44249258E-01  1.68714478E-01  8.00000000E-01
  3.04752488E+03  4.57369518E+02  1.03948685E+02  2.92101553E+01  9.28666296E+00
  3.16392696E+00  7.86827235E+00  1.88128854E+00  5.44249258E-01  1.68714478E-01
  8.00000000E-01  3.04752488E+03  4.57369518E+02  1.03948685E+02  2.92101553E+01
  9.28666296E+00  3.16392696E+00  7.86827235E+00  1.88128854E+00  5.44249258E-01
  1.68714478E-01  8.00000000E-01  3.04752488E+03  4.57369518E+02  1.03948685E+02
  2.92101553E+01  9.28666296E+00  3.16392696E+00  7.86827235E+00  1.88128854E+00
  5.44249258E-01  1.68714478E-01  8.00000000E-01  1.87311370E+01  2.82539436E+00
  6.40121692E-01  1.61277759E-01  1.87311370E+01  2.82539436E+00  6.40121692E-01
  1.61277759E-01  1.87311370E+01  2.82539436E+00  6.40121692E-01  1.61277759E-01
  1.87311370E+01  2.82539436E+00  6.40121692E-01  1.61277759E-01
Contraction coefficients                   R   N=         104
  1.83107443E-03  1.39501722E-02  6.84450781E-02  2.32714336E-01  4.70192898E-01
  3.58520853E-01 -1.10777550E-01 -1.48026263E-01  1.13076702E+00  1.00000000E+00
  1.00000000E+00  1.83107443E-03  1.39501722E-02  6.84450781E-02  2.32714336E-01
  4.70192898E-01  3.58520853E-01 -1.10777550E-01 -1.48026263E-01  1.13076702E+00
  1.00000000E+00  1.00000000E+00  1.83107443E-03  1.39501722E-02  6.84450781E-02
  2.32714336E-01  4.70192898E-01  3.58520853E-01 -1.10777550E-01 -1.48026263E-01
  1.13076702E+00  1.00000000E+00  1.00000000E+00  1.83107443E-03  1.39501722E-02
  6.84450781E-02  2.32714336E-01  4.70192898E-01  3.58520853E-01 -1.10777550E-01
 -1.48026263E-01  1.13076702E+00  1.00000000E+00  1.00000000E+00  1.83473713E-03
  1.40373228E-02  6.88426223E-02  2.32184443E-01  4.67941348E-01  3.62311985E-01
 -1.19332420E-01 -1.60854152E-01  1.14345644E+00  1.00000000E+00  1.00000000E+00
  1.83473713E-03  1.40373228E-02  6.88426223E-02  2.32184443E-01  4.67941348E-01
  3.62311985E-01 -1.19332420E-01 -1.60854152E-01  1.14345644E+00  1.00000000E+00
  1.00000000E+00  1.83473713E-03  1.40373228E-02  6.88426223E-02  2.32184443E-01
  4.67941348E-01  3.62311985E-01 -1.19332420E-01 -1.60854152E-01  1.14345644E+00
  1.00000000E+00  1.00000000E+00  1.83473713E-03  1.40373228E-02  6.88426223E-02
  2.32184443E-01  4.67941348E-01  3.62311985E-01 -1.19332420E-01 -1.60854152E-01
  1.14345644E+00  1.00000000E+00  1.00000000E+00  3.34946043E-02  2.34726953E-01
  8.13757326E-01  1.00000000E+00  3.34946043E-02  2.34726953E-01  8.13757326E-01
  1.00000000E+00  3.34946043E-02  2.34726953E-01  8.13757326E-01  1.00000000E+00
  3.34946043E-02  2.34726953E-01  8.13757326E-01  1.00000000E+00
P(S=P) Contraction coefficients            R   N=         104
  0.00000000E+00  0.00000000E+00  0.00000000E+00  0.00000000E+00  0.00000000E+00
  0.00000000E+00  7.08742682E-02  3.39752839E-01  7.27158577E-01  1.00000000E+00
  0.00000000E+00  0.00000000E+00  0.00000000E+00  0.00000000E+00  0.00000000E+00
  0.00000000E+00  0.00000000E+00  7.08742682E-02  3.39752839E-01  7.27158577E-01
  1.00000000E+00  0.00000000E+00  0.00000000E+00  0.00000000E+00  0.00000000E+00
  0.00000000E+00  0.00000000E+00  0.00000000E+00  7.08742682E-02  3.39752839E-01
  7.27158577E-01  1.00000000E+00  0.00000000E+00  0.00000000E+00  0.00000000E+00
  0.00000000E+00  0.00000000E+00  0.00000000E+00  0.00000000E+00  7.08742682E-02
  3.39752839E-01  7.27158577E-01  1.00000000E+00  0.00000000E+00  0.00000000E+00
  0.00000000E+00  0.00000000E+00  0.00000000E+00  0.00000000E+00  0.00000000E+00
  6.89990666E-02  3.16423961E-01  7.44308291E-01  1.00000000E+00  0.00000000E+00
  0.00000000E+00  0.00000000E+00  0.00000000E+00  0.00000000E+00  0.00000000E+00
  0.00000000E+00  6.89990666E-02  3.16423961E-01  7.44308291E-01  1.00000000E+00
  0.00000000E+00  0.00000000E+00  0.00000000E+00  0.00000000E+00  0.00000000E+00
  0.00000000E+00  0.00000000E+00  6.89990666E-02  3.16423961E-01  7.44308291E-01
  1.00000000E+00  0.00000000E+00  0.00000000E+00  0.00000000E+00  0.00000000E+00
  0.00000000E+00  0.00000000E+00  0.00000000E+00  6.89990666E-02  3.16423961E-01
  7.44308291E-01  1.00000000E+00  0.00000000E+00  0.00000000E+00  0.00000000E+00
  0.00000000E+00  0.00000000E+00  0.00000000E+00  0.00000000E+00  0.00000000E+00
  0.00000000E+00  0.00000000E+00  0.00000000E+00  0.00000000E+00  0.00000000E+00
  0.00000000E+00  0.00000000E+00  0.00000000E+00  0.00000000E+00
Coordinates of each shell                  R   N=         120
  5.34757702E+00  1.07808856E+00 -1.44410452E+00  5.34757702E+00  1.07808856E+00
 -1.44410452E+00  5.34757702E+00  1.07808856E+00 -1.44410452E+00  5.34757702E+00
  1.07808856E+00 -1.44410452E+00 -4.15404841E+00  1.70238887E+00  1.59436681E+00
 -4.15404841E+00  1.70238887E+00  1.59436681E+00 -4.15404841E+00  1.70238887E+00
  1.59436681E+00 -4.15404841E+00  1.70238887E+00  1.59436681E+00  4.15404129E+00
 -1.70235965E+00  1.59441406E+00  4.15404129E+00 -1.70235965E+00  1.59441406E+00
  4.15404129E+00 -1.70235965E+00  1.59441406E+00  4.15404129E+00 -1.70235965E+00
  1.59441406E+00 -5.34756867E+00 -1.07810842E+00 -1.44411304E+00 -5.34756867E+00
 -1.07810842E+00 -1.44411304E+00 -5.34756867E+00 -1.07810842E+00 -1.44411304E+00
 -5.34756867E+00 -1.07810842E+00 -1.44411304E+00  1.00015439E+00  1.03717286E+00
 -1.45535017E-01  1.00015439E+00  1.03717286E+00 -1.45535017E-01  1.00015439E+00
  1.03717286E+00 -1.45535017E-01  1.00015439E+00  1.03717286E+00 -1.45535017E-01
 -1.00015568E+00 -1.03718224E+00 -1.45507997E-01 -1.00015568E+00 -1.03718224E+00
 -1.45507997E-01 -1.00015568E+00 -1.03718224E+00 -1.45507997E-01 -1.00015568E+00
 -1.03718224E+00 -1.45507997E-01  3.73472149E+00  4.31809998E-02  1.27630850E-04
  3.73472149E+00  4.31809998E-02  1.27630850E-04  3.73472149E+00  4.31809998E-02
  1.27630850E-04  3.73472149E+00  4.31809998E-02  1.27630850E-04 -3.73472129E+00
 -4.31809303E-02  1.13937919E-04 -3.73472129E+00 -4.31809303E-02  1.13937919E-04
 -3.73472129E+00 -4.31809303E-02  1.13937919E-04 -3.73472129E+00 -4.31809303E-02
  1.13937919E-04  6.47729510E-01  2.25032929E+00  1.49732551E+00  6.47729510E-01
  2.25032929E+00  1.49732551E+00  8.07430338E-01  2.23297017E+00 -1.82723866E+00
  8.07430338E-01  2.23297017E+00 -1.82723866E+00 -6.47738290E-01 -2.25028906E+00
  1.49739068E+00 -6.47738290E-01 -2.25028906E+00  1.49739068E+00 -8.07424824E-01
 -2.23302947E+00 -1.82717528E+00 -8.07424824E-01 -2.23302947E+00 -1.82717528E+00
Constraint Structure                       R   N=          36
  5.34757702E+00  1.07808856E+00 -1.44410452E+00 -4.15404841E+00  1.70238887E+00
  1.59436681E+00  4.15404129E+00 -1.70235965E+00  1.59441406E+00 -5.34756867E+00
 -1.07810842E+00 -1.44411304E+00  1.00015439E+00  1.03717286E+00 -1.45535017E-01
 -1.00015568E+00 -1.03718224E+00 -1.45507997E-01  3.73472149E+00  4.31809998E-02
  1.27630850E-04 -3.73472129E+00 -4.31809303E-02  1.13937919E-04  6.47729510E-01
  2.25032929E+00  1.49732551E+00  8.07430338E-01  2.23297017E+00 -1.82723866E+00
 -6.47738290E-01 -2.25028906E+00  1.49739068E+00 -8.07424824E-01 -2.23302947E+00
 -1.82717528E+00
Num ILSW                                   I              100
ILSW                                       I   N=         100
           0           1           0           0           2           0
           0           0           0           0           0          -1
           0           0           0           0           0           0
           0           0           0           0           1           0
           1           0           0           0           0           0
           0           0      100000           0          -1           0
           0           0           0           0           0           0
           0           0           0           1           1           0
           0           0           1           0           0           0
           0           0           4          40           0           0
           0           0           0           0           0           0
           0           0           0           0           0           0
           0           0           0           0           0           0
           0           0           0           0           0           0
           0           0           0           0           0           0
           0           0           0           0           0           0
           0           0           0           0
Num RLSW                                   I               40
RLSW                                       R   N=          40
  1.00000000E+00  1.00000000E+00  1.00000000E+00  1.00000000E+00  1.00000000E+00
  0.00000000E+00  0.00000000E+00  1.00000000E+00  0.00000000E+00  0.00000000E+00
  0.00000000E+00  0.00000000E+00  1.00000000E+00  0.00000000E+00  0.00000000E+00
  0.00000000E+00  0.00000000E+00  1.00000000E+00  0.00000000E+00  0.00000000E+00
  0.00000000E+00  0.00000000E+00  1.00000000E+00  0.00000000E+00  0.00000000E+00
  0.00000000E+00  0.00000000E+00  1.00000000E+00  0.00000000E+00  0.00000000E+00
  0.00000000E+00  0.00000000E+00  0.00000000E+00  0.00000000E+00  0.00000000E+00
  0.00000000E+00  0.00000000E+00  0.00000000E+00  1.00000000E+00  1.00000000E+00
MxBond                                     I                4
NBond                                      I   N=          12
           1           1           1           1           4           4
           3           3           1           1           1           1
IBond                                      I   N=          48
           7           0           0           0           8           0
           0           0           7           0           0           0
           8           0           0           0           6           7
           9          10           5           8          11          12
           1           3           5           0           2           4
           6           0           5           0           0           0
           5           0           0           0           6           0
           0           0           6           0           0           0
RBond                                      R   N=          48
  2.00000000E+00  0.00000000E+00  0.00000000E+00  0.00000000E+00  2.00000000E+00
  0.00000000E+00  0.00000000E+00  0.00000000E+00  2.00000000E+00  0.00000000E+00
  0.00000000E+00  0.00000000E+00  2.00000000E+00  0.00000000E+00  0.00000000E+00
  0.00000000E+00  1.00000000E+00  1.00000000E+00  1.00000000E+00  1.00000000E+00
  1.00000000E+00  1.00000000E+00  1.00000000E+00  1.00000000E+00  2.00000000E+00
  2.00000000E+00  1.00000000E+00  0.00000000E+00  2.00000000E+00  2.00000000E+00
  1.00000000E+00  0.00000000E+00  1.00000000E+00  0.00000000E+00  0.00000000E+00
  0.00000000E+00  1.00000000E+00  0.00000000E+00  0.00000000E+00  0.00000000E+00
  1.00000000E+00  0.00000000E+00  0.00000000E+00  0.00000000E+00  1.00000000E+00
  0.00000000E+00  0.00000000E+00  0.00000000E+00
Virial Ratio                               R      2.002839219157273E+00
SCF Energy                                 R     -4.534975187764303E+02
MP2 Energy                                 R     -4.547221945771494E+02
Total Energy                               R     -4.547221945771494E+02
Post-SCF wavefunction norm                 R      1.654720591691389E+00
RMS Force                                  R      6.223572756624887E-06
RMS Density                                R      9.834561633620106E-10
External E-field                           R   N=          35
  0.00000000E+00  0.00000000E+00  0.00000000E+00  0.00000000E+00  0.00000000E+00
  0.00000000E+00  0.00000000E+00  0.00000000E+00  0.00000000E+00  0.00000000E+00
  0.00000000E+00  0.00000000E+00  0.00000000E+00  0.00000000E+00  0.00000000E+00
  0.00000000E+00  0.00000000E+00  0.00000000E+00  0.00000000E+00  0.00000000E+00
  0.00000000E+00  0.00000000E+00  0.00000000E+00  0.00000000E+00  0.00000000E+00
  0.00000000E+00  0.00000000E+00  0.00000000E+00  0.00000000E+00  0.00000000E+00
  0.00000000E+00  0.00000000E+00  0.00000000E+00  0.00000000E+00  0.00000000E+00
IOpCl                                      I                0
IROHF                                      I                0
Alpha Orbital Energies                     R   N=         128
 -2.04561929E+01 -2.04561929E+01 -2.04553964E+01 -2.04553963E+01 -1.12984912E+01
 -1.12984902E+01 -1.11909535E+01 -1.11903476E+01 -1.32049333E+00 -1.31874871E+00
 -1.21773785E+00 -1.21749253E+00 -1.00983861E+00 -8.55750561E-01 -6.73989156E-01
 -6.67850041E-01 -6.02045848E-01 -5.95688927E-01 -5.67426541E-01 -5.56531081E-01
 -5.43757557E-01 -5.14303806E-01 -5.06477017E-01 -4.56934828E-01 -4.49128126E-01
 -3.76157576E-01 -3.64833710E-01 -3.63375487E-01 -3.55187503E-01 -3.53818306E-01
 -3.42350466E-01  2.49389992E-01  2.67796585E-01  3.04617025E-01  3.22384894E-01
  3.31361413E-01  3.85863584E-01  4.53238278E-01  4.65909825E-01  4.86221016E-01
  5.39000746E-01  5.61684267E-01  6.22051537E-01  6.60765087E-01  7.87325237E-01
  8.26344948E-01  8.38475543E-01  8.83726737E-01  8.85071632E-01  9.06478517E-01
  9.23250338E-01  9.63578708E-01  9.69733093E-01  9.98801459E-01  1.01136686E+00
  1.07305312E+00  1.11504918E+00  1.13495934E+00  1.15668211E+00  1.16602704E+00
  1.18857784E+00  1.20329993E+00  1.22469421E+00  1.23279723E+00  1.24979764E+00
  1.32937648E+00  1.33538182E+00  1.36636718E+00  1.39262511E+00  1.40657593E+00
  1.41285532E+00  1.44212580E+00  1.45271785E+00  1.46008690E+00  1.47792928E+00
  1.65162158E+00  1.71457146E+00  1.78381435E+00  1.80039943E+00  1.81354364E+00
  1.85279560E+00  1.93639149E+00  2.01240613E+00  2.05268769E+00  2.07554755E+00
  2.12061503E+00  2.14922919E+00  2.16697663E+00  2.17933455E+00  2.18924157E+00
  2.20448979E+00  2.21897541E+00  2.22738275E+00  2.23067141E+00  2.26885271E+00
  2.30438653E+00  2.32160374E+00  2.33927594E+00  2.34738078E+00  2.42420575E+00
  2.43718951E+00  2.49353382E+00  2.54798576E+00  2.63259006E+00  2.76523607E+00
  2.77794765E+00  2.81431504E+00  2.87162768E+00  2.95645445E+00  2.96763618E+00
  3.08564925E+00  3.09609104E+00  3.20674758E+00  3.23419319E+00  3.29568482E+00
  3.31301814E+00  3.36036790E+00  3.39432592E+00  3.51436704E+00  3.54737910E+00
  4.27621358E+00  4.34745964E+00  4.55903370E+00  4.67978236E+00  4.69893476E+00
  4.75434814E+00  4.90617969E+00  5.03533370E+00
Alpha MO coefficients                      R   N=       16384
  3.21578858E-01  6.78387119E-03 -2.68782471E-04 -1.74871413E-04  2.45065037E-04
  1.39191246E-03  2.43454163E-05  1.64088606E-05 -2.71853041E-05 -1.24361326E-03
 -1.27665907E-03 -1.27192938E-03  3.62443566E-06 -2.13893649E-05 -3.33705542E-05
 -1.94901362E-02 -4.38970053E-04  2.36024327E-05  2.16791536E-05  2.95576701E-05
  5.94703399E-05  2.87354461E-05 -6.44362197E-05 -6.12115159E-05  7.41486970E-05
  6.11213723E-05  2.85742823E-05 -7.59779522E-05 -6.08613349E-05  1.81023651E-05
 -6.69797409E-03 -1.42846870E-04 -8.29765614E-06 -7.20671030E-06  8.94973091E-06
 -2.20736961E-05 -1.10761803E-05  1.49479543E-05 -1.12343921E-05  3.11506627E-05
  2.65207326E-05  1.55148632E-05 -2.67906094E-05  2.06313679E-05 -4.09880981E-06
  9.41044083E-01  1.98545316E-02  7.87447907E-04  5.12647869E-04  7.14872105E-04
  4.03538825E-03 -9.97224635E-05 -4.59953459E-05 -7.35605667E-05 -3.64134652E-03
 -3.73409987E-03 -3.72079480E-03  7.91543341E-06  6.18030538E-05  1.01663842E-04
  9.50457992E-07  1.23312073E-05 -1.82426894E-05 -2.23564670E-06  7.71898335E-06
 -2.82266767E-05  5.26442835E-05  1.33195965E-05 -2.04973731E-05 -1.89171260E-05
  7.83573234E-06 -2.66125805E-06 -2.96991923E-06  1.08727307E-05 -7.00867866E-06
 -1.06161834E-06  2.28047570E-05  2.83684979E-05  4.63247977E-06  1.62162582E-05
 -3.55592221E-05  9.27592291E-05 -2.69369491E-05 -4.02418414E-05 -6.21531512E-05
  4.47708630E-06 -1.49926549E-05 -8.83030970E-06 -2.68301695E-05  1.19713128E-05
  4.91544652E-07  1.68858376E-04  3.10955575E-05  2.36090789E-05 -3.21411184E-05
 -1.60730681E-04 -6.99926140E-05 -5.39541258E-05  8.06535551E-05 -8.18833985E-05
 -4.77029717E-05 -7.66582319E-05 -5.81487815E-05  7.57629088E-05  5.48882720E-05
 -5.37321836E-06  4.64354474E-04 -9.14657181E-05 -7.33363624E-05 -9.43002171E-05
 -2.83428659E-04  3.27207814E-04  6.56610953E-05  1.60422261E-04 -2.38572705E-04
 -1.50953587E-04 -2.37113144E-04 -1.67730992E-04 -2.19639266E-04 -1.58398742E-04
  1.49237562E-05 -1.42245056E-05  3.96297914E-06 -1.90902554E-05  1.26325110E-05
 -2.08961147E-05  9.55646914E-06 -7.91002509E-05  9.41044740E-01  1.98552661E-02
 -7.87692335E-04 -5.12878259E-04  7.14276615E-04  4.02539374E-03  1.07254537E-04
  4.54594376E-05 -7.19766490E-05 -3.64191164E-03 -3.73362499E-03 -3.72045492E-03
  7.20416037E-06 -6.15929472E-05 -1.02724368E-04  6.61399440E-03  1.59090252E-04
 -7.77192769E-06 -7.66432610E-06 -1.15570726E-05 -7.39237637E-05 -8.23090793E-06
  3.09608554E-05  3.31618875E-05 -1.79947046E-05 -1.37680580E-05 -2.49965689E-06
  2.49175468E-05  2.10093614E-05 -8.82550432E-06 -1.94648820E-02 -4.44593873E-04
 -2.34222080E-05 -2.18381874E-05  3.04517758E-05  9.22628626E-05 -2.77633310E-05
  6.99076933E-05 -6.87070949E-05  6.96657322E-05  5.67756805E-05  2.41416045E-05
 -7.53364239E-05  6.09925944E-05 -1.97183825E-05 -3.21580990E-01 -6.78602379E-03
 -2.69484902E-04 -1.75578158E-04 -2.43313126E-04 -1.36267081E-03  4.63842270E-05
  1.48437065E-05  2.25488910E-05  1.24526985E-03  1.27526114E-03  1.27094370E-03
 -1.54231113E-06 -2.07783321E-05 -3.64743009E-05 -2.07790449E-06  1.92926963E-05
 -2.17536906E-05 -4.12697055E-06  1.45311988E-05 -2.31170764E-05 -1.58024846E-04
  2.37495107E-05 -3.50229775E-05 -6.39507138E-05 -4.03082862E-07 -1.68970751E-05
 -8.86672683E-06  2.55112266E-05 -9.71424276E-06  2.02336428E-06 -2.05435879E-06
  1.11445526E-06 -7.57597902E-07 -2.78817267E-06 -8.17781678E-06 -1.38343819E-04
  4.00105448E-06  5.22202679E-06  2.41758825E-05  6.44395212E-06  8.23614912E-06
  3.07757813E-06  7.01377848E-06 -4.02035953E-07 -7.17440539E-06  4.56478113E-04
  9.15906161E-05  7.44586232E-05 -9.43662182E-05 -2.34000946E-04 -3.59570364E-04
 -4.12705215E-05  1.40430023E-04 -2.38298993E-04 -1.53951262E-04 -2.40495544E-04
 -1.67085671E-04  2.19095906E-04  1.57807181E-04  4.77939821E-06 -1.45814675E-04
  3.14597494E-05  2.68963334E-05  3.23312084E-05  1.60884349E-05 -1.64697452E-04
  1.74131265E-05 -2.21571167E-05  8.10764085E-05  5.64910983E-05  8.65533808E-05
  5.62669521E-05  7.41645642E-05  5.31677063E-05  4.42472020E-06 -1.54144361E-05
  9.01690094E-06 -8.52441965E-05  9.09484716E-06 -1.81541665E-06 -2.38394652E-06
  3.70705628E-05  1.96146328E-02  3.53367502E-04 -3.30219922E-05  1.03537418E-05
 -3.07285542E-06  4.40247207E-04 -1.12858696E-04 -4.87307432E-05  8.27016451E-05
 -2.26601493E-05 -1.73424318E-04 -1.59553829E-04  7.17837173E-06 -4.93545121E-05
  2.08251096E-05 -2.96833189E-01 -6.25381513E-03 -6.36512516E-05  2.72222209E-04
  2.45436823E-04 -1.30815854E-03  2.04725810E-05 -3.03216751E-05 -1.32529807E-05
  1.16961802E-03  1.17641368E-03  1.18012016E-03  1.08146636E-05 -2.34467916E-06
 -4.22328691E-05  9.49143107E-01  2.00453619E-02 -2.03038793E-04  8.73099655E-04
 -7.92443426E-04  3.92154338E-03  5.52876761E-05 -1.40607659E-04  1.05541576E-04
 -3.70692114E-03 -3.72869111E-03 -3.74120843E-03 -3.52008034E-05 -5.88650326E-06
 -1.24637467E-04 -6.09353619E-03 -1.10696162E-04 -1.06463278E-05  3.33903800E-06
  2.41219862E-06 -1.16953285E-04 -1.79421891E-05 -1.94575273E-05 -2.83678571E-05
  9.23046298E-06  5.33831478E-05  5.02994211E-05 -9.03718447E-08 -1.49500346E-05
  4.13719377E-06 -1.94693293E-06  1.87763700E-05 -1.76339815E-05  1.74641348E-05
 -4.35256936E-06 -4.32652885E-05 -1.58959790E-04  1.54901190E-05 -1.16502011E-04
 -2.49898889E-05 -2.96366097E-05 -2.15229112E-05  4.39375728E-05 -3.07585833E-05
  1.03886783E-05  3.16268928E-07 -9.44855452E-06  1.30070510E-05  2.92588911E-06
 -5.80306964E-06  1.17651254E-04 -2.15967558E-04 -1.60289731E-05  9.87700176E-05
  1.23706717E-05  1.40713445E-06  6.19806544E-06 -2.33048086E-05 -1.09056887E-05
  4.66816763E-06 -8.55007311E-06  4.76618274E-04  1.88033728E-05 -1.05199552E-04
  1.04399226E-04 -2.40000428E-04 -3.12389258E-04  1.25802984E-04 -2.98482080E-05
 -6.55396434E-05 -3.14974469E-04 -2.90080150E-04  3.29984030E-05 -3.44239039E-05
  2.78884920E-04  5.63818123E-06 -1.31565429E-04  2.11124259E-06 -2.83536043E-05
 -3.37068221E-05 -4.96349509E-05 -1.79554889E-04  1.12118719E-04  4.85578570E-05
  1.60143463E-05  1.01211517E-04  9.55132547E-05 -7.77169665E-06 -1.52373272E-05
  8.61563664E-05  8.57393075E-06  3.56760448E-05 -4.14992726E-06 -8.04341644E-05
  2.08779530E-05 -1.32347261E-04  6.29727274E-06  4.65053091E-05  6.18271768E-03
  1.10264311E-04 -9.93825821E-06  3.11589183E-06  8.04067308E-07  1.62901689E-04
 -5.64106356E-05 -1.01087392E-05  2.28173832E-05 -4.47387075E-06 -5.52709719E-05
 -4.94065325E-05  4.86681771E-06 -1.60257851E-05  9.40375583E-06  9.49145130E-01
  2.00558965E-02  2.02937297E-04 -8.73693714E-04 -7.94081763E-04  3.86487671E-03
 -5.30830185E-05  1.50075945E-04  1.19234341E-04 -3.69977244E-03 -3.72154606E-03
 -3.73421696E-03 -3.53361286E-05  5.53926866E-06  1.22380615E-04  2.96839433E-01
  6.28749385E-03 -6.33141323E-05  2.74071719E-04 -2.50734708E-04  1.12697406E-03
  1.34194420E-05 -6.05868035E-05  5.70439914E-05 -1.14675891E-03 -1.15358104E-03
 -1.15775214E-03 -1.12451178E-05 -1.22867518E-06 -3.50198259E-05  1.96391091E-02
  3.53160503E-04  3.27976921E-05 -1.02859691E-05 -2.06915608E-06  4.54602256E-04
  1.24888804E-04  4.58080822E-05  8.09661553E-05 -2.11601186E-05 -1.74001845E-04
 -1.59259528E-04  8.67257262E-06  4.96917792E-05 -2.24723828E-05 -9.64930881E-07
  1.52020559E-06 -2.80527280E-05  8.54691734E-06 -1.00789763E-05  1.13164234E-04
  1.52585660E-04  3.02487762E-05  3.94165505E-05 -2.27239793E-06 -1.88347608E-05
 -7.37916952E-06  2.10420471E-06 -8.05371687E-06  1.52220017E-06 -2.14976134E-06
  1.62971140E-05  3.04751999E-05 -1.92220909E-05 -9.31905053E-06  2.89188913E-05
  4.36985813E-05 -2.99675480E-05 -7.32850272E-05 -2.18320550E-05 -3.50874893E-05
 -2.18914742E-05  3.73079424E-05  2.98658485E-05 -9.40441867E-06  9.32904301E-07
  1.70342599E-04  1.04674409E-05 -3.84335734E-05  3.13633968E-05 -2.26782169E-04
  1.90828413E-06 -4.92083193E-05  3.83966596E-05 -2.59512940E-05 -9.52156881E-05
 -8.48837004E-05  1.34217738E-05 -5.32541125E-06  8.85109327E-05 -6.49503935E-06
  4.88743578E-04 -2.14170488E-05  1.08354481E-04  1.03664684E-04 -3.26443413E-04
  2.55638000E-04 -7.53498073E-05 -2.64954795E-06 -6.86466271E-05 -3.13108023E-04