5364929                                                                 
Freq      RMP2-FC                                                     6-31G(d)            
Number of atoms                            I               19
Info1-9                                    I   N=           9
          31          29        1002           0           0         100
           6           2           1
Charge                                     I                0
Multiplicity                               I                1
Number of electrons                        I               56
Number of alpha electrons                  I               28
Number of beta electrons                   I               28
Number of basis functions                  I              129
Number of independent functions            I              129
Number of point charges in /Mol/           I                0
Number of translation vectors              I                0
Atomic numbers                             I   N=          19
           8           6           6           6           6           6
           6           1           1           1           1           1
           1           1           1           1           1           1
           1
Nuclear charges                            R   N=          19
  8.00000000E+00  6.00000000E+00  6.00000000E+00  6.00000000E+00  6.00000000E+00
  6.00000000E+00  6.00000000E+00  1.00000000E+00  1.00000000E+00  1.00000000E+00
  1.00000000E+00  1.00000000E+00  1.00000000E+00  1.00000000E+00  1.00000000E+00
  1.00000000E+00  1.00000000E+00  1.00000000E+00  1.00000000E+00
Current cartesian coordinates              R   N=          57
  1.71199304E+00  2.44741137E-01 -5.79990223E-01 -3.73278473E+00 -6.30412475E-01
 -1.04639149E+00  4.00434999E+00  3.57667078E-01  8.54208932E-01 -2.49147732E+00
  1.78200873E+00 -2.35479943E-01 -5.65195890E+00 -1.56725375E+00  9.04782104E-01
  5.24592575E-03  2.10334899E+00  3.24151773E-02  5.77818250E+00 -1.60813838E+00
 -2.22483308E-01 -4.69122413E+00 -3.47721569E-01 -2.86450010E+00 -2.27625921E+00
 -2.06331406E+00 -1.35769228E+00  4.82369329E+00  2.26119072E+00  7.08467811E-01
  3.59943175E+00 -1.18629501E-02  2.85552640E+00 -3.68939505E+00  3.40078197E+00
  1.81197100E-01 -6.57389836E+00 -3.30618880E+00  2.70118194E-01 -4.72188507E+00
 -1.94967866E+00  2.70999255E+00 -7.12335711E+00 -1.51952248E-01  1.23632742E+00
  8.30725412E-01  3.88723426E+00  6.56857028E-01  7.56814036E+00 -1.60574288E+00
  8.10661491E-01  4.93245236E+00 -3.48478687E+00 -7.80031652E-02  6.15628659E+00
 -1.20920918E+00 -2.21133950E+00
Force Field                                I                0
Int Atom Types                             I   N=          19
           0           0           0           0           0           0
           0           0           0           0           0           0
           0           0           0           0           0           0
           0
MM charges                                 R   N=          19
  0.00000000E+00  0.00000000E+00  0.00000000E+00  0.00000000E+00  0.00000000E+00
  0.00000000E+00  0.00000000E+00  0.00000000E+00  0.00000000E+00  0.00000000E+00
  0.00000000E+00  0.00000000E+00  0.00000000E+00  0.00000000E+00  0.00000000E+00
  0.00000000E+00  0.00000000E+00  0.00000000E+00  0.00000000E+00
Integer atomic weights                     I   N=          19
          16          12          12          12          12          12
          12           1           1           1           1           1
           1           1           1           1           1           1
           1
Real atomic weights                        R   N=          19
  1.59949146E+01  1.20000000E+01  1.20000000E+01  1.20000000E+01  1.20000000E+01
  1.20000000E+01  1.20000000E+01  1.00782504E+00  1.00782504E+00  1.00782504E+00
  1.00782504E+00  1.00782504E+00  1.00782504E+00  1.00782504E+00  1.00782504E+00
  1.00782504E+00  1.00782504E+00  1.00782504E+00  1.00782504E+00
Atom fragment info                         I   N=          19
           0           0           0           0           0           0
           0           0           0           0           0           0
           0           0           0           0           0           0
           0
Atom residue num                           I   N=          19
           0           0           0           0           0           0
           0           0           0           0           0           0
           0           0           0           0           0           0
           0
Nuclear spins                              I   N=          19
           0           0           0           0           0           0
           0           1           1           1           1           1
           1           1           1           1           1           1
           1
Nuclear ZEff                               R   N=          19
 -5.60000000E+00 -3.60000000E+00 -3.60000000E+00 -3.60000000E+00 -3.60000000E+00
 -3.60000000E+00 -3.60000000E+00 -1.00000000E+00 -1.00000000E+00 -1.00000000E+00
 -1.00000000E+00 -1.00000000E+00 -1.00000000E+00 -1.00000000E+00 -1.00000000E+00
 -1.00000000E+00 -1.00000000E+00 -1.00000000E+00 -1.00000000E+00
Nuclear QMom                               R   N=          19
  0.00000000E+00  0.00000000E+00  0.00000000E+00  0.00000000E+00  0.00000000E+00
  0.00000000E+00  0.00000000E+00  0.00000000E+00  0.00000000E+00  0.00000000E+00
  0.00000000E+00  0.00000000E+00  0.00000000E+00  0.00000000E+00  0.00000000E+00
  0.00000000E+00  0.00000000E+00  0.00000000E+00  0.00000000E+00
Nuclear GFac                               R   N=          19
  0.00000000E+00  0.00000000E+00  0.00000000E+00  0.00000000E+00  0.00000000E+00
  0.00000000E+00  0.00000000E+00  2.79284600E+00  2.79284600E+00  2.79284600E+00
  2.79284600E+00  2.79284600E+00  2.79284600E+00  2.79284600E+00  2.79284600E+00
  2.79284600E+00  2.79284600E+00  2.79284600E+00  2.79284600E+00
MicOpt                                     I   N=          19
          -1          -1          -1          -1          -1          -1
          -1          -1          -1          -1          -1          -1
          -1          -1          -1          -1          -1          -1
          -1
Number of contracted shells                I               52
Number of primitive shells                 I              125
Pure/Cartesian d shells                    I                1
Pure/Cartesian f shells                    I                0
Highest angular momentum                   I                2
Largest degree of contraction              I                6
Shell types                                I   N=          52
           0          -1          -1           2           0          -1
          -1           2           0          -1          -1           2
           0          -1          -1           2           0          -1
          -1           2           0          -1          -1           2
           0          -1          -1           2           0           0
           0           0           0           0           0           0
           0           0           0           0           0           0
           0           0           0           0           0           0
           0           0           0           0
Number of primitives per shell             I   N=          52
           6           3           1           1           6           3
           1           1           6           3           1           1
           6           3           1           1           6           3
           1           1           6           3           1           1
           6           3           1           1           3           1
           3           1           3           1           3           1
           3           1           3           1           3           1
           3           1           3           1           3           1
           3           1           3           1
Shell to atom map                          I   N=          52
           1           1           1           1           2           2
           2           2           3           3           3           3
           4           4           4           4           5           5
           5           5           6           6           6           6
           7           7           7           7           8           8
           9           9          10          10          11          11
          12          12          13          13          14          14
          15          15          16          16          17          17
          18          18          19          19
Primitive exponents                        R   N=         125
  5.48467166E+03  8.25234946E+02  1.88046958E+02  5.29645000E+01  1.68975704E+01
  5.79963534E+00  1.55396162E+01  3.59993359E+00  1.01376175E+00  2.70005823E-01
  8.00000000E-01  3.04752488E+03  4.57369518E+02  1.03948685E+02  2.92101553E+01
  9.28666296E+00  3.16392696E+00  7.86827235E+00  1.88128854E+00  5.44249258E-01
  1.68714478E-01  8.00000000E-01  3.04752488E+03  4.57369518E+02  1.03948685E+02
  2.92101553E+01  9.28666296E+00  3.16392696E+00  7.86827235E+00  1.88128854E+00
  5.44249258E-01  1.68714478E-01  8.00000000E-01  3.04752488E+03  4.57369518E+02
  1.03948685E+02  2.92101553E+01  9.28666296E+00  3.16392696E+00  7.86827235E+00
  1.88128854E+00  5.44249258E-01  1.68714478E-01  8.00000000E-01  3.04752488E+03
  4.57369518E+02  1.03948685E+02  2.92101553E+01  9.28666296E+00  3.16392696E+00
  7.86827235E+00  1.88128854E+00  5.44249258E-01  1.68714478E-01  8.00000000E-01
  3.04752488E+03  4.57369518E+02  1.03948685E+02  2.92101553E+01  9.28666296E+00
  3.16392696E+00  7.86827235E+00  1.88128854E+00  5.44249258E-01  1.68714478E-01
  8.00000000E-01  3.04752488E+03  4.57369518E+02  1.03948685E+02  2.92101553E+01
  9.28666296E+00  3.16392696E+00  7.86827235E+00  1.88128854E+00  5.44249258E-01
  1.68714478E-01  8.00000000E-01  1.87311370E+01  2.82539436E+00  6.40121692E-01
  1.61277759E-01  1.87311370E+01  2.82539436E+00  6.40121692E-01  1.61277759E-01
  1.87311370E+01  2.82539436E+00  6.40121692E-01  1.61277759E-01  1.87311370E+01
  2.82539436E+00  6.40121692E-01  1.61277759E-01  1.87311370E+01  2.82539436E+00
  6.40121692E-01  1.61277759E-01  1.87311370E+01  2.82539436E+00  6.40121692E-01
  1.61277759E-01  1.87311370E+01  2.82539436E+00  6.40121692E-01  1.61277759E-01
  1.87311370E+01  2.82539436E+00  6.40121692E-01  1.61277759E-01  1.87311370E+01
  2.82539436E+00  6.40121692E-01  1.61277759E-01  1.87311370E+01  2.82539436E+00
  6.40121692E-01  1.61277759E-01  1.87311370E+01  2.82539436E+00  6.40121692E-01
  1.61277759E-01  1.87311370E+01  2.82539436E+00  6.40121692E-01  1.61277759E-01
Contraction coefficients                   R   N=         125
  1.83107443E-03  1.39501722E-02  6.84450781E-02  2.32714336E-01  4.70192898E-01
  3.58520853E-01 -1.10777550E-01 -1.48026263E-01  1.13076702E+00  1.00000000E+00
  1.00000000E+00  1.83473713E-03  1.40373228E-02  6.88426223E-02  2.32184443E-01
  4.67941348E-01  3.62311985E-01 -1.19332420E-01 -1.60854152E-01  1.14345644E+00
  1.00000000E+00  1.00000000E+00  1.83473713E-03  1.40373228E-02  6.88426223E-02
  2.32184443E-01  4.67941348E-01  3.62311985E-01 -1.19332420E-01 -1.60854152E-01
  1.14345644E+00  1.00000000E+00  1.00000000E+00  1.83473713E-03  1.40373228E-02
  6.88426223E-02  2.32184443E-01  4.67941348E-01  3.62311985E-01 -1.19332420E-01
 -1.60854152E-01  1.14345644E+00  1.00000000E+00  1.00000000E+00  1.83473713E-03
  1.40373228E-02  6.88426223E-02  2.32184443E-01  4.67941348E-01  3.62311985E-01
 -1.19332420E-01 -1.60854152E-01  1.14345644E+00  1.00000000E+00  1.00000000E+00
  1.83473713E-03  1.40373228E-02  6.88426223E-02  2.32184443E-01  4.67941348E-01
  3.62311985E-01 -1.19332420E-01 -1.60854152E-01  1.14345644E+00  1.00000000E+00
  1.00000000E+00  1.83473713E-03  1.40373228E-02  6.88426223E-02  2.32184443E-01
  4.67941348E-01  3.62311985E-01 -1.19332420E-01 -1.60854152E-01  1.14345644E+00
  1.00000000E+00  1.00000000E+00  3.34946043E-02  2.34726953E-01  8.13757326E-01
  1.00000000E+00  3.34946043E-02  2.34726953E-01  8.13757326E-01  1.00000000E+00
  3.34946043E-02  2.34726953E-01  8.13757326E-01  1.00000000E+00  3.34946043E-02
  2.34726953E-01  8.13757326E-01  1.00000000E+00  3.34946043E-02  2.34726953E-01
  8.13757326E-01  1.00000000E+00  3.34946043E-02  2.34726953E-01  8.13757326E-01
  1.00000000E+00  3.34946043E-02  2.34726953E-01  8.13757326E-01  1.00000000E+00
  3.34946043E-02  2.34726953E-01  8.13757326E-01  1.00000000E+00  3.34946043E-02
  2.34726953E-01  8.13757326E-01  1.00000000E+00  3.34946043E-02  2.34726953E-01
  8.13757326E-01  1.00000000E+00  3.34946043E-02  2.34726953E-01  8.13757326E-01
  1.00000000E+00  3.34946043E-02  2.34726953E-01  8.13757326E-01  1.00000000E+00
P(S=P) Contraction coefficients            R   N=         125
  0.00000000E+00  0.00000000E+00  0.00000000E+00  0.00000000E+00  0.00000000E+00
  0.00000000E+00  7.08742682E-02  3.39752839E-01  7.27158577E-01  1.00000000E+00
  0.00000000E+00  0.00000000E+00  0.00000000E+00  0.00000000E+00  0.00000000E+00
  0.00000000E+00  0.00000000E+00  6.89990666E-02  3.16423961E-01  7.44308291E-01
  1.00000000E+00  0.00000000E+00  0.00000000E+00  0.00000000E+00  0.00000000E+00
  0.00000000E+00  0.00000000E+00  0.00000000E+00  6.89990666E-02  3.16423961E-01
  7.44308291E-01  1.00000000E+00  0.00000000E+00  0.00000000E+00  0.00000000E+00
  0.00000000E+00  0.00000000E+00  0.00000000E+00  0.00000000E+00  6.89990666E-02
  3.16423961E-01  7.44308291E-01  1.00000000E+00  0.00000000E+00  0.00000000E+00
  0.00000000E+00  0.00000000E+00  0.00000000E+00  0.00000000E+00  0.00000000E+00
  6.89990666E-02  3.16423961E-01  7.44308291E-01  1.00000000E+00  0.00000000E+00
  0.00000000E+00  0.00000000E+00  0.00000000E+00  0.00000000E+00  0.00000000E+00
  0.00000000E+00  6.89990666E-02  3.16423961E-01  7.44308291E-01  1.00000000E+00
  0.00000000E+00  0.00000000E+00  0.00000000E+00  0.00000000E+00  0.00000000E+00
  0.00000000E+00  0.00000000E+00  6.89990666E-02  3.16423961E-01  7.44308291E-01
  1.00000000E+00  0.00000000E+00  0.00000000E+00  0.00000000E+00  0.00000000E+00
  0.00000000E+00  0.00000000E+00  0.00000000E+00  0.00000000E+00  0.00000000E+00
  0.00000000E+00  0.00000000E+00  0.00000000E+00  0.00000000E+00  0.00000000E+00
  0.00000000E+00  0.00000000E+00  0.00000000E+00  0.00000000E+00  0.00000000E+00
  0.00000000E+00  0.00000000E+00  0.00000000E+00  0.00000000E+00  0.00000000E+00
  0.00000000E+00  0.00000000E+00  0.00000000E+00  0.00000000E+00  0.00000000E+00
  0.00000000E+00  0.00000000E+00  0.00000000E+00  0.00000000E+00  0.00000000E+00
  0.00000000E+00  0.00000000E+00  0.00000000E+00  0.00000000E+00  0.00000000E+00
  0.00000000E+00  0.00000000E+00  0.00000000E+00  0.00000000E+00  0.00000000E+00
  0.00000000E+00  0.00000000E+00  0.00000000E+00  0.00000000E+00  0.00000000E+00
Coordinates of each shell                  R   N=         156
  1.71199304E+00  2.44741137E-01 -5.79990223E-01  1.71199304E+00  2.44741137E-01
 -5.79990223E-01  1.71199304E+00  2.44741137E-01 -5.79990223E-01  1.71199304E+00
  2.44741137E-01 -5.79990223E-01 -3.73278473E+00 -6.30412475E-01 -1.04639149E+00
 -3.73278473E+00 -6.30412475E-01 -1.04639149E+00 -3.73278473E+00 -6.30412475E-01
 -1.04639149E+00 -3.73278473E+00 -6.30412475E-01 -1.04639149E+00  4.00434999E+00
  3.57667078E-01  8.54208932E-01  4.00434999E+00  3.57667078E-01  8.54208932E-01
  4.00434999E+00  3.57667078E-01  8.54208932E-01  4.00434999E+00  3.57667078E-01
  8.54208932E-01 -2.49147732E+00  1.78200873E+00 -2.35479943E-01 -2.49147732E+00
  1.78200873E+00 -2.35479943E-01 -2.49147732E+00  1.78200873E+00 -2.35479943E-01
 -2.49147732E+00  1.78200873E+00 -2.35479943E-01 -5.65195890E+00 -1.56725375E+00
  9.04782104E-01 -5.65195890E+00 -1.56725375E+00  9.04782104E-01 -5.65195890E+00
 -1.56725375E+00  9.04782104E-01 -5.65195890E+00 -1.56725375E+00  9.04782104E-01
  5.24592575E-03  2.10334899E+00  3.24151773E-02  5.24592575E-03  2.10334899E+00
  3.24151773E-02  5.24592575E-03  2.10334899E+00  3.24151773E-02  5.24592575E-03
  2.10334899E+00  3.24151773E-02  5.77818250E+00 -1.60813838E+00 -2.22483308E-01
  5.77818250E+00 -1.60813838E+00 -2.22483308E-01  5.77818250E+00 -1.60813838E+00
 -2.22483308E-01  5.77818250E+00 -1.60813838E+00 -2.22483308E-01 -4.69122413E+00
 -3.47721569E-01 -2.86450010E+00 -4.69122413E+00 -3.47721569E-01 -2.86450010E+00
 -2.27625921E+00 -2.06331406E+00 -1.35769228E+00 -2.27625921E+00 -2.06331406E+00
 -1.35769228E+00  4.82369329E+00  2.26119072E+00  7.08467811E-01  4.82369329E+00
  2.26119072E+00  7.08467811E-01  3.59943175E+00 -1.18629501E-02  2.85552640E+00
  3.59943175E+00 -1.18629501E-02  2.85552640E+00 -3.68939505E+00  3.40078197E+00
  1.81197100E-01 -3.68939505E+00  3.40078197E+00  1.81197100E-01 -6.57389836E+00
 -3.30618880E+00  2.70118194E-01 -6.57389836E+00 -3.30618880E+00  2.70118194E-01
 -4.72188507E+00 -1.94967866E+00  2.70999255E+00 -4.72188507E+00 -1.94967866E+00
  2.70999255E+00 -7.12335711E+00 -1.51952248E-01  1.23632742E+00 -7.12335711E+00
 -1.51952248E-01  1.23632742E+00  8.30725412E-01  3.88723426E+00  6.56857028E-01
  8.30725412E-01  3.88723426E+00  6.56857028E-01  7.56814036E+00 -1.60574288E+00
  8.10661491E-01  7.56814036E+00 -1.60574288E+00  8.10661491E-01  4.93245236E+00
 -3.48478687E+00 -7.80031652E-02  4.93245236E+00 -3.48478687E+00 -7.80031652E-02
  6.15628659E+00 -1.20920918E+00 -2.21133950E+00  6.15628659E+00 -1.20920918E+00
 -2.21133950E+00
Constraint Structure                       R   N=          57
  1.71199304E+00  2.44741137E-01 -5.79990223E-01 -3.73278473E+00 -6.30412475E-01
 -1.04639149E+00  4.00434999E+00  3.57667078E-01  8.54208932E-01 -2.49147732E+00
  1.78200873E+00 -2.35479943E-01 -5.65195890E+00 -1.56725375E+00  9.04782104E-01
  5.24592575E-03  2.10334899E+00  3.24151773E-02  5.77818250E+00 -1.60813838E+00
 -2.22483308E-01 -4.69122413E+00 -3.47721569E-01 -2.86450010E+00 -2.27625921E+00
 -2.06331406E+00 -1.35769228E+00  4.82369329E+00  2.26119072E+00  7.08467811E-01
  3.59943175E+00 -1.18629501E-02  2.85552640E+00 -3.68939505E+00  3.40078197E+00
  1.81197100E-01 -6.57389836E+00 -3.30618880E+00  2.70118194E-01 -4.72188507E+00
 -1.94967866E+00  2.70999255E+00 -7.12335711E+00 -1.51952248E-01  1.23632742E+00
  8.30725412E-01  3.88723426E+00  6.56857028E-01  7.56814036E+00 -1.60574288E+00
  8.10661491E-01  4.93245236E+00 -3.48478687E+00 -7.80031652E-02  6.15628659E+00
 -1.20920918E+00 -2.21133950E+00
Num ILSW                                   I              100
ILSW                                       I   N=         100
           0           1           0           0           2           0
           0           0           0           0           0          -1
           0           0           0           0           0           0
           0           0           0           0           1           0
           1           0           0           0           0           0
           0           0      100000           0          -1           0
           0           0           0           0           0           0
           0           0           0           1           1           0
           0           0           1           0           0           0
           0           0           4          40           0           0
           0           0           0           0           0           0
           0           0           0           0           0           0
           0           0           0           0           0           0
           0           0           0           0           0           0
           0           0           0           0           0           0
           0           0           0           0           0           0
           0           0           0           0
Num RLSW                                   I               40
RLSW                                       R   N=          40
  1.00000000E+00  1.00000000E+00  1.00000000E+00  1.00000000E+00  1.00000000E+00
  0.00000000E+00  0.00000000E+00  1.00000000E+00  0.00000000E+00  0.00000000E+00
  0.00000000E+00  0.00000000E+00  1.00000000E+00  0.00000000E+00  0.00000000E+00
  0.00000000E+00  0.00000000E+00  1.00000000E+00  0.00000000E+00  0.00000000E+00
  0.00000000E+00  0.00000000E+00  1.00000000E+00  0.00000000E+00  0.00000000E+00
  0.00000000E+00  0.00000000E+00  1.00000000E+00  0.00000000E+00  0.00000000E+00
  0.00000000E+00  0.00000000E+00  0.00000000E+00  0.00000000E+00  0.00000000E+00
  0.00000000E+00  0.00000000E+00  0.00000000E+00  1.00000000E+00  1.00000000E+00
MxBond                                     I                4
NBond                                      I   N=          19
           2           4           4           3           4           3
           4           1           1           1           1           1
           1           1           1           1           1           1
           1
IBond                                      I   N=          76
           3           6           0           0           4           5
           8           9           1           7          10          11
           2           6          12           0           2          13
          14          15           1           4          16           0
           3          17          18          19           2           0
           0           0           2           0           0           0
           3           0           0           0           3           0
           0           0           4           0           0           0
           5           0           0           0           5           0
           0           0           5           0           0           0
           6           0           0           0           7           0
           0           0           7           0           0           0
           7           0           0           0
RBond                                      R   N=          76
  1.00000000E+00  1.50000000E+00  0.00000000E+00  0.00000000E+00  1.00000000E+00
  1.00000000E+00  1.00000000E+00  1.00000000E+00  1.00000000E+00  1.00000000E+00
  1.00000000E+00  1.00000000E+00  1.00000000E+00  2.00000000E+00  1.00000000E+00
  0.00000000E+00  1.00000000E+00  1.00000000E+00  1.00000000E+00  1.00000000E+00
  1.50000000E+00  2.00000000E+00  1.00000000E+00  0.00000000E+00  1.00000000E+00
  1.00000000E+00  1.00000000E+00  1.00000000E+00  1.00000000E+00  0.00000000E+00
  0.00000000E+00  0.00000000E+00  1.00000000E+00  0.00000000E+00  0.00000000E+00
  0.00000000E+00  1.00000000E+00  0.00000000E+00  0.00000000E+00  0.00000000E+00
  1.00000000E+00  0.00000000E+00  0.00000000E+00  0.00000000E+00  1.00000000E+00
  0.00000000E+00  0.00000000E+00  0.00000000E+00  1.00000000E+00  0.00000000E+00
  0.00000000E+00  0.00000000E+00  1.00000000E+00  0.00000000E+00  0.00000000E+00
  0.00000000E+00  1.00000000E+00  0.00000000E+00  0.00000000E+00  0.00000000E+00
  1.00000000E+00  0.00000000E+00  0.00000000E+00  0.00000000E+00  1.00000000E+00
  0.00000000E+00  0.00000000E+00  0.00000000E+00  1.00000000E+00  0.00000000E+00
  0.00000000E+00  0.00000000E+00  1.00000000E+00  0.00000000E+00  0.00000000E+00
  0.00000000E+00
Virial Ratio                               R      2.001890746075647E+00
SCF Energy                                 R     -3.090234370916477E+02
MP2 Energy                                 R     -3.099787487788963E+02
Total Energy                               R     -3.099787487788963E+02
Post-SCF wavefunction norm                 R      1.620616237037710E+00
RMS Force                                  R      1.395447901839741E-07
RMS Density                                R      1.977774131140706E-09
External E-field                           R   N=          35
  0.00000000E+00  0.00000000E+00  0.00000000E+00  0.00000000E+00  0.00000000E+00
  0.00000000E+00  0.00000000E+00  0.00000000E+00  0.00000000E+00  0.00000000E+00
  0.00000000E+00  0.00000000E+00  0.00000000E+00  0.00000000E+00  0.00000000E+00
  0.00000000E+00  0.00000000E+00  0.00000000E+00  0.00000000E+00  0.00000000E+00
  0.00000000E+00  0.00000000E+00  0.00000000E+00  0.00000000E+00  0.00000000E+00
  0.00000000E+00  0.00000000E+00  0.00000000E+00  0.00000000E+00  0.00000000E+00
  0.00000000E+00  0.00000000E+00  0.00000000E+00  0.00000000E+00  0.00000000E+00
IOpCl                                      I                0
IROHF                                      I                0
Alpha Orbital Energies                     R   N=         129
 -2.05748744E+01 -1.12843922E+01 -1.12778308E+01 -1.12197704E+01 -1.12142937E+01
 -1.12131832E+01 -1.12079519E+01 -1.38760486E+00 -1.07088512E+00 -1.02485315E+00
 -9.64755424E-01 -8.49489860E-01 -8.39428886E-01 -7.51803526E-01 -6.82053522E-01
 -6.50516428E-01 -6.36893449E-01 -5.96552308E-01 -5.60694492E-01 -5.57657915E-01
 -5.38841633E-01 -5.24321420E-01 -5.05682901E-01 -4.99849838E-01 -4.76745613E-01
 -4.71589873E-01 -4.57462401E-01 -3.21667660E-01  1.97511133E-01  2.39466128E-01
  2.57873156E-01  2.64890813E-01  2.96483808E-01  3.05806799E-01  3.09966905E-01
  3.14214922E-01  3.21773406E-01  3.36396078E-01  3.41508180E-01  3.42595246E-01
  3.61225787E-01  3.72538502E-01  4.11265256E-01  4.15674841E-01  4.37424347E-01
  5.38523190E-01  5.93561789E-01  7.10729803E-01  7.26664061E-01  7.38359075E-01
  7.49668534E-01  7.63782411E-01  7.78082537E-01  7.96030819E-01  8.03045319E-01
  8.44071859E-01  8.48461148E-01  8.95409197E-01  9.23267880E-01  9.41568128E-01
  9.62283279E-01  9.94895002E-01  1.04085925E+00  1.07782559E+00  1.10111721E+00
  1.12281804E+00  1.14006510E+00  1.15031345E+00  1.15818920E+00  1.16654225E+00
  1.17795019E+00  1.18605108E+00  1.19498768E+00  1.20371561E+00  1.22910336E+00
  1.24657273E+00  1.25511486E+00  1.29380270E+00  1.34732442E+00  1.36143131E+00
  1.41825949E+00  1.47734567E+00  1.53493190E+00  1.60804889E+00  1.63982675E+00
  1.66452496E+00  1.71096577E+00  1.77181574E+00  1.79406256E+00  1.84817621E+00
  1.92281259E+00  1.96240161E+00  2.02983526E+00  2.10759484E+00  2.12050104E+00
  2.20445594E+00  2.21267015E+00  2.26762249E+00  2.27627630E+00  2.28668383E+00
  2.30138868E+00  2.36890534E+00  2.42637900E+00  2.44256175E+00  2.49990552E+00
  2.52012819E+00  2.55867330E+00  2.57813557E+00  2.64561283E+00  2.64807661E+00
  2.68588162E+00  2.71009320E+00  2.74710941E+00  2.79022967E+00  2.87543143E+00
  2.91637498E+00  2.98503069E+00  3.00329681E+00  3.11648725E+00  3.14774423E+00
  3.32369113E+00  3.50013529E+00  4.40280957E+00  4.57450641E+00  4.61118815E+00
  4.64616112E+00  4.79562835E+00  4.84948753E+00  4.92568766E+00
Alpha MO coefficients                      R   N=       16641
  9.94647679E-01  2.12291394E-02  1.41019197E-04  9.29687805E-04  8.78459763E-04
  3.81302999E-03 -1.98956482E-04 -5.65370058E-04 -5.33807094E-04 -4.17401840E-03
 -4.01733187E-03 -4.01071210E-03  1.06291508E-04 -1.22050498E-04 -8.56594388E-05
 -4.68402692E-06 -2.34075672E-05  1.72704230E-05  2.37379689E-05 -1.69838468E-06
  2.42166545E-04 -1.55540794E-05 -2.34582370E-04  2.08373583E-06  2.19604270E-06
 -2.60821350E-05  4.36713921E-06 -4.13905253E-06 -8.69027070E-06 -1.36065798E-05
 -2.17163265E-05  1.66201147E-04 -3.28294740E-04 -2.26490350E-05 -2.05424583E-04
  3.94416845E-04  5.19981445E-05  4.05308385E-05 -3.24114811E-05  8.75200714E-05
 -3.57424612E-05 -3.16473869E-06 -1.80907924E-05  8.21480705E-05  7.45381252E-06
  3.54143223E-06  4.22486352E-05 -2.76370137E-06 -4.40953288E-06 -2.10875098E-06
  1.67854704E-04 -1.18577461E-04  4.17527180E-05 -4.16592095E-05 -5.05154727E-05
  7.17435426E-06  9.15805747E-07  4.08932420E-05  6.87532786E-06  6.11514234E-06
  1.27585412E-06  1.41103934E-05 -1.68842059E-05  3.57398244E-06  3.62425487E-06
 -1.30997610E-04  5.51365192E-06 -7.38501253E-06  6.55481060E-05 -2.44325366E-06
 -1.18068301E-07 -6.74828138E-06  2.63281891E-07  9.66089976E-06 -4.95841671E-06
 -2.69871430E-06  3.64074849E-04  2.35002327E-04 -2.79795733E-04 -9.42567950E-05
 -2.54294461E-05  9.14277275E-05  1.82473233E-04  1.62899840E-04 -9.23767797E-06
 -1.68608210E-05 -5.37497244E-05 -3.57191317E-06  3.65864560E-06  2.28470187E-06
  1.23742476E-05  1.05560760E-04 -1.84296302E-05 -7.97761697E-06 -2.08122426E-05
 -2.47638866E-04  3.21091500E-04 -1.05226359E-04  1.13100424E-04 -4.05099276E-05
 -1.31705487E-05  1.20231344E-05  3.56601798E-05  8.12811214E-06  8.65909144E-06
 -1.65109202E-05  4.05137995E-06  5.37679950E-05 -3.57244757E-04 -4.99174255E-05
 -1.04555876E-04 -3.12389779E-05 -6.59980105E-05 -5.69952303E-06 -8.01231268E-05
  8.12996809E-06  1.26873673E-05 -5.63573402E-06 -7.76075383E-06  5.72669535E-06
  2.87539581E-05 -5.53340920E-05 -1.30654167E-04 -1.04486775E-05 -1.55758136E-04
  5.12804257E-05 -7.88232076E-06  5.38996297E-05  1.22624231E-05 -1.42093523E-04
  1.85211251E-04  1.76239121E-04  5.86541207E-05  1.11725556E-04  1.26070406E-03
 -1.08536703E-04 -4.70109239E-04 -2.65029311E-04 -5.50676659E-04 -4.74533994E-05
 -2.02855168E-04  2.18669814E-05 -4.36357599E-04 -1.27069070E-04 -9.02210129E-06
 -6.04301264E-05  2.87654739E-05  1.96439099E-05 -1.42626936E-06  5.41602628E-04
 -5.57527633E-05  4.97986747E-05  9.72980461E-05 -3.68408280E-06 -1.04277340E-05
 -4.90079412E-06  4.64543171E-06 -4.84037340E-06  5.33277168E-06  9.95899482E-01
  2.75342065E-02 -7.99999523E-04  4.25013062E-05 -4.69764613E-04 -1.42220103E-02
 -3.74718344E-05  2.02855769E-05  8.78556942E-05 -1.38643192E-03 -1.47691156E-03
 -1.43424358E-03 -2.14334946E-05  5.06570609E-05  3.95589582E-06  8.06795408E-06
 -1.46725190E-05  3.32565035E-05 -5.55336503E-05  6.79633372E-06  1.42692956E-03
  7.86835314E-04  5.25536454E-04  3.49973795E-05  1.48523085E-05 -3.57739946E-07
  1.04512503E-05 -1.91940499E-05 -1.35397062E-05  5.72639925E-07 -3.80010131E-06
  1.40807069E-06 -2.19707248E-05 -1.29357849E-05  3.21436394E-06 -1.34704161E-04