72898                                                                   
Freq      RMP2-FC                                                     6-31G(d)            
Number of atoms                            I               20
Info1-9                                    I   N=           9
          32          30        1002           0           0         100
           6           2           1
Charge                                     I                0
Multiplicity                               I                1
Number of electrons                        I               76
Number of alpha electrons                  I               38
Number of beta electrons                   I               38
Number of basis functions                  I              183
Number of independent functions            I              183
Number of point charges in /Mol/           I                0
Number of translation vectors              I                0
Atomic numbers                             I   N=          20
           7           6           6           6           6           6
           6           6           6           6           6           1
           1           1           1           1           1           1
           1           1
Nuclear charges                            R   N=          20
  7.00000000E+00  6.00000000E+00  6.00000000E+00  6.00000000E+00  6.00000000E+00
  6.00000000E+00  6.00000000E+00  6.00000000E+00  6.00000000E+00  6.00000000E+00
  6.00000000E+00  1.00000000E+00  1.00000000E+00  1.00000000E+00  1.00000000E+00
  1.00000000E+00  1.00000000E+00  1.00000000E+00  1.00000000E+00  1.00000000E+00
Current cartesian coordinates              R   N=          60
  3.35860953E+00 -1.83417234E+00 -7.30042384E-01  1.90485608E+00  1.81848901E-01
  5.13531725E-02 -8.51856322E-01  8.17484217E-02  3.47018373E-02  3.57894268E+00
  2.06079839E+00  8.18220750E-01 -2.26043356E+00  2.26524039E+00 -5.10277951E-01
 -2.14733966E+00 -2.17769168E+00  5.55955457E-01  5.88043014E+00 -1.27245987E+00
 -5.23799564E-01  6.06477956E+00  1.14738637E+00  4.55641983E-01 -4.89346715E+00
  2.19375047E+00 -5.08308047E-01 -4.78173182E+00 -2.25306146E+00  5.09508714E-01
 -6.16545211E+00 -6.83453531E-02 -1.79570206E-02  2.64456193E+00 -3.39659568E+00
 -1.57184293E+00  3.03793164E+00  3.85922909E+00  1.63081141E+00 -1.26856053E+00
  4.00931446E+00 -9.58138339E-01 -1.08588854E+00 -3.86342357E+00  1.07118105E+00
  7.31630052E+00 -2.61097899E+00 -1.09153308E+00  7.80752969E+00  2.12638379E+00
  8.88086286E-01 -5.95796440E+00  3.90055625E+00 -9.30803257E-01 -5.75738678E+00
 -4.01512698E+00  9.19964707E-01 -8.21915731E+00 -1.25439476E-01 -3.76651473E-02
Force Field                                I                0
Int Atom Types                             I   N=          20
           0           0           0           0           0           0
           0           0           0           0           0           0
           0           0           0           0           0           0
           0           0
MM charges                                 R   N=          20
  0.00000000E+00  0.00000000E+00  0.00000000E+00  0.00000000E+00  0.00000000E+00
  0.00000000E+00  0.00000000E+00  0.00000000E+00  0.00000000E+00  0.00000000E+00
  0.00000000E+00  0.00000000E+00  0.00000000E+00  0.00000000E+00  0.00000000E+00
  0.00000000E+00  0.00000000E+00  0.00000000E+00  0.00000000E+00  0.00000000E+00
Integer atomic weights                     I   N=          20
          14          12          12          12          12          12
          12          12          12          12          12           1
           1           1           1           1           1           1
           1           1
Real atomic weights                        R   N=          20
  1.40030740E+01  1.20000000E+01  1.20000000E+01  1.20000000E+01  1.20000000E+01
  1.20000000E+01  1.20000000E+01  1.20000000E+01  1.20000000E+01  1.20000000E+01
  1.20000000E+01  1.00782504E+00  1.00782504E+00  1.00782504E+00  1.00782504E+00
  1.00782504E+00  1.00782504E+00  1.00782504E+00  1.00782504E+00  1.00782504E+00
Atom fragment info                         I   N=          20
           0           0           0           0           0           0
           0           0           0           0           0           0
           0           0           0           0           0           0
           0           0
Atom residue num                           I   N=          20
           0           0           0           0           0           0
           0           0           0           0           0           0
           0           0           0           0           0           0
           0           0
Nuclear spins                              I   N=          20
           2           0           0           0           0           0
           0           0           0           0           0           1
           1           1           1           1           1           1
           1           1
Nuclear ZEff                               R   N=          20
 -4.55000000E+00 -3.60000000E+00 -3.60000000E+00 -3.60000000E+00 -3.60000000E+00
 -3.60000000E+00 -3.60000000E+00 -3.60000000E+00 -3.60000000E+00 -3.60000000E+00
 -3.60000000E+00 -1.00000000E+00 -1.00000000E+00 -1.00000000E+00 -1.00000000E+00
 -1.00000000E+00 -1.00000000E+00 -1.00000000E+00 -1.00000000E+00 -1.00000000E+00
Nuclear QMom                               R   N=          20
  2.04400000E+00  0.00000000E+00  0.00000000E+00  0.00000000E+00  0.00000000E+00
  0.00000000E+00  0.00000000E+00  0.00000000E+00  0.00000000E+00  0.00000000E+00
  0.00000000E+00  0.00000000E+00  0.00000000E+00  0.00000000E+00  0.00000000E+00
  0.00000000E+00  0.00000000E+00  0.00000000E+00  0.00000000E+00  0.00000000E+00
Nuclear GFac                               R   N=          20
  4.03761000E-01  0.00000000E+00  0.00000000E+00  0.00000000E+00  0.00000000E+00
  0.00000000E+00  0.00000000E+00  0.00000000E+00  0.00000000E+00  0.00000000E+00
  0.00000000E+00  2.79284600E+00  2.79284600E+00  2.79284600E+00  2.79284600E+00
  2.79284600E+00  2.79284600E+00  2.79284600E+00  2.79284600E+00  2.79284600E+00
MicOpt                                     I   N=          20
          -1          -1          -1          -1          -1          -1
          -1          -1          -1          -1          -1          -1
          -1          -1          -1          -1          -1          -1
          -1          -1
Number of contracted shells                I               62
Number of primitive shells                 I              157
Pure/Cartesian d shells                    I                1
Pure/Cartesian f shells                    I                0
Highest angular momentum                   I                2
Largest degree of contraction              I                6
Shell types                                I   N=          62
           0          -1          -1           2           0          -1
          -1           2           0          -1          -1           2
           0          -1          -1           2           0          -1
          -1           2           0          -1          -1           2
           0          -1          -1           2           0          -1
          -1           2           0          -1          -1           2
           0          -1          -1           2           0          -1
          -1           2           0           0           0           0
           0           0           0           0           0           0
           0           0           0           0           0           0
           0           0
Number of primitives per shell             I   N=          62
           6           3           1           1           6           3
           1           1           6           3           1           1
           6           3           1           1           6           3
           1           1           6           3           1           1
           6           3           1           1           6           3
           1           1           6           3           1           1
           6           3           1           1           6           3
           1           1           3           1           3           1
           3           1           3           1           3           1
           3           1           3           1           3           1
           3           1
Shell to atom map                          I   N=          62
           1           1           1           1           2           2
           2           2           3           3           3           3
           4           4           4           4           5           5
           5           5           6           6           6           6
           7           7           7           7           8           8
           8           8           9           9           9           9
          10          10          10          10          11          11
          11          11          12          12          13          13
          14          14          15          15          16          16
          17          17          18          18          19          19
          20          20
Primitive exponents                        R   N=         157
  4.17351146E+03  6.27457911E+02  1.42902093E+02  4.02343293E+01  1.28202129E+01
  4.39043701E+00  1.16263619E+01  2.71627981E+00  7.72218397E-01  2.12031498E-01
  8.00000000E-01  3.04752488E+03  4.57369518E+02  1.03948685E+02  2.92101553E+01
  9.28666296E+00  3.16392696E+00  7.86827235E+00  1.88128854E+00  5.44249258E-01
  1.68714478E-01  8.00000000E-01  3.04752488E+03  4.57369518E+02  1.03948685E+02
  2.92101553E+01  9.28666296E+00  3.16392696E+00  7.86827235E+00  1.88128854E+00
  5.44249258E-01  1.68714478E-01  8.00000000E-01  3.04752488E+03  4.57369518E+02
  1.03948685E+02  2.92101553E+01  9.28666296E+00  3.16392696E+00  7.86827235E+00
  1.88128854E+00  5.44249258E-01  1.68714478E-01  8.00000000E-01  3.04752488E+03
  4.57369518E+02  1.03948685E+02  2.92101553E+01  9.28666296E+00  3.16392696E+00
  7.86827235E+00  1.88128854E+00  5.44249258E-01  1.68714478E-01  8.00000000E-01
  3.04752488E+03  4.57369518E+02  1.03948685E+02  2.92101553E+01  9.28666296E+00
  3.16392696E+00  7.86827235E+00  1.88128854E+00  5.44249258E-01  1.68714478E-01
  8.00000000E-01  3.04752488E+03  4.57369518E+02  1.03948685E+02  2.92101553E+01
  9.28666296E+00  3.16392696E+00  7.86827235E+00  1.88128854E+00  5.44249258E-01
  1.68714478E-01  8.00000000E-01  3.04752488E+03  4.57369518E+02  1.03948685E+02
  2.92101553E+01  9.28666296E+00  3.16392696E+00  7.86827235E+00  1.88128854E+00
  5.44249258E-01  1.68714478E-01  8.00000000E-01  3.04752488E+03  4.57369518E+02
  1.03948685E+02  2.92101553E+01  9.28666296E+00  3.16392696E+00  7.86827235E+00
  1.88128854E+00  5.44249258E-01  1.68714478E-01  8.00000000E-01  3.04752488E+03
  4.57369518E+02  1.03948685E+02  2.92101553E+01  9.28666296E+00  3.16392696E+00
  7.86827235E+00  1.88128854E+00  5.44249258E-01  1.68714478E-01  8.00000000E-01
  3.04752488E+03  4.57369518E+02  1.03948685E+02  2.92101553E+01  9.28666296E+00
  3.16392696E+00  7.86827235E+00  1.88128854E+00  5.44249258E-01  1.68714478E-01
  8.00000000E-01  1.87311370E+01  2.82539436E+00  6.40121692E-01  1.61277759E-01
  1.87311370E+01  2.82539436E+00  6.40121692E-01  1.61277759E-01  1.87311370E+01
  2.82539436E+00  6.40121692E-01  1.61277759E-01  1.87311370E+01  2.82539436E+00
  6.40121692E-01  1.61277759E-01  1.87311370E+01  2.82539436E+00  6.40121692E-01
  1.61277759E-01  1.87311370E+01  2.82539436E+00  6.40121692E-01  1.61277759E-01
  1.87311370E+01  2.82539436E+00  6.40121692E-01  1.61277759E-01  1.87311370E+01
  2.82539436E+00  6.40121692E-01  1.61277759E-01  1.87311370E+01  2.82539436E+00
  6.40121692E-01  1.61277759E-01
Contraction coefficients                   R   N=         157
  1.83477216E-03  1.39946270E-02  6.85865518E-02  2.32240873E-01  4.69069948E-01
  3.60455199E-01 -1.14961182E-01 -1.69117479E-01  1.14585195E+00  1.00000000E+00
  1.00000000E+00  1.83473713E-03  1.40373228E-02  6.88426223E-02  2.32184443E-01
  4.67941348E-01  3.62311985E-01 -1.19332420E-01 -1.60854152E-01  1.14345644E+00
  1.00000000E+00  1.00000000E+00  1.83473713E-03  1.40373228E-02  6.88426223E-02
  2.32184443E-01  4.67941348E-01  3.62311985E-01 -1.19332420E-01 -1.60854152E-01
  1.14345644E+00  1.00000000E+00  1.00000000E+00  1.83473713E-03  1.40373228E-02
  6.88426223E-02  2.32184443E-01  4.67941348E-01  3.62311985E-01 -1.19332420E-01
 -1.60854152E-01  1.14345644E+00  1.00000000E+00  1.00000000E+00  1.83473713E-03
  1.40373228E-02  6.88426223E-02  2.32184443E-01  4.67941348E-01  3.62311985E-01
 -1.19332420E-01 -1.60854152E-01  1.14345644E+00  1.00000000E+00  1.00000000E+00
  1.83473713E-03  1.40373228E-02  6.88426223E-02  2.32184443E-01  4.67941348E-01
  3.62311985E-01 -1.19332420E-01 -1.60854152E-01  1.14345644E+00  1.00000000E+00
  1.00000000E+00  1.83473713E-03  1.40373228E-02  6.88426223E-02  2.32184443E-01
  4.67941348E-01  3.62311985E-01 -1.19332420E-01 -1.60854152E-01  1.14345644E+00
  1.00000000E+00  1.00000000E+00  1.83473713E-03  1.40373228E-02  6.88426223E-02
  2.32184443E-01  4.67941348E-01  3.62311985E-01 -1.19332420E-01 -1.60854152E-01
  1.14345644E+00  1.00000000E+00  1.00000000E+00  1.83473713E-03  1.40373228E-02
  6.88426223E-02  2.32184443E-01  4.67941348E-01  3.62311985E-01 -1.19332420E-01
 -1.60854152E-01  1.14345644E+00  1.00000000E+00  1.00000000E+00  1.83473713E-03
  1.40373228E-02  6.88426223E-02  2.32184443E-01  4.67941348E-01  3.62311985E-01
 -1.19332420E-01 -1.60854152E-01  1.14345644E+00  1.00000000E+00  1.00000000E+00
  1.83473713E-03  1.40373228E-02  6.88426223E-02  2.32184443E-01  4.67941348E-01
  3.62311985E-01 -1.19332420E-01 -1.60854152E-01  1.14345644E+00  1.00000000E+00
  1.00000000E+00  3.34946043E-02  2.34726953E-01  8.13757326E-01  1.00000000E+00
  3.34946043E-02  2.34726953E-01  8.13757326E-01  1.00000000E+00  3.34946043E-02
  2.34726953E-01  8.13757326E-01  1.00000000E+00  3.34946043E-02  2.34726953E-01
  8.13757326E-01  1.00000000E+00  3.34946043E-02  2.34726953E-01  8.13757326E-01
  1.00000000E+00  3.34946043E-02  2.34726953E-01  8.13757326E-01  1.00000000E+00
  3.34946043E-02  2.34726953E-01  8.13757326E-01  1.00000000E+00  3.34946043E-02
  2.34726953E-01  8.13757326E-01  1.00000000E+00  3.34946043E-02  2.34726953E-01
  8.13757326E-01  1.00000000E+00
P(S=P) Contraction coefficients            R   N=         157
  0.00000000E+00  0.00000000E+00  0.00000000E+00  0.00000000E+00  0.00000000E+00
  0.00000000E+00  6.75797439E-02  3.23907296E-01  7.40895140E-01  1.00000000E+00
  0.00000000E+00  0.00000000E+00  0.00000000E+00  0.00000000E+00  0.00000000E+00
  0.00000000E+00  0.00000000E+00  6.89990666E-02  3.16423961E-01  7.44308291E-01
  1.00000000E+00  0.00000000E+00  0.00000000E+00  0.00000000E+00  0.00000000E+00
  0.00000000E+00  0.00000000E+00  0.00000000E+00  6.89990666E-02  3.16423961E-01
  7.44308291E-01  1.00000000E+00  0.00000000E+00  0.00000000E+00  0.00000000E+00
  0.00000000E+00  0.00000000E+00  0.00000000E+00  0.00000000E+00  6.89990666E-02
  3.16423961E-01  7.44308291E-01  1.00000000E+00  0.00000000E+00  0.00000000E+00
  0.00000000E+00  0.00000000E+00  0.00000000E+00  0.00000000E+00  0.00000000E+00
  6.89990666E-02  3.16423961E-01  7.44308291E-01  1.00000000E+00  0.00000000E+00
  0.00000000E+00  0.00000000E+00  0.00000000E+00  0.00000000E+00  0.00000000E+00
  0.00000000E+00  6.89990666E-02  3.16423961E-01  7.44308291E-01  1.00000000E+00
  0.00000000E+00  0.00000000E+00  0.00000000E+00  0.00000000E+00  0.00000000E+00
  0.00000000E+00  0.00000000E+00  6.89990666E-02  3.16423961E-01  7.44308291E-01
  1.00000000E+00  0.00000000E+00  0.00000000E+00  0.00000000E+00  0.00000000E+00
  0.00000000E+00  0.00000000E+00  0.00000000E+00  6.89990666E-02  3.16423961E-01
  7.44308291E-01  1.00000000E+00  0.00000000E+00  0.00000000E+00  0.00000000E+00
  0.00000000E+00  0.00000000E+00  0.00000000E+00  0.00000000E+00  6.89990666E-02
  3.16423961E-01  7.44308291E-01  1.00000000E+00  0.00000000E+00  0.00000000E+00
  0.00000000E+00  0.00000000E+00  0.00000000E+00  0.00000000E+00  0.00000000E+00
  6.89990666E-02  3.16423961E-01  7.44308291E-01  1.00000000E+00  0.00000000E+00
  0.00000000E+00  0.00000000E+00  0.00000000E+00  0.00000000E+00  0.00000000E+00
  0.00000000E+00  6.89990666E-02  3.16423961E-01  7.44308291E-01  1.00000000E+00
  0.00000000E+00  0.00000000E+00  0.00000000E+00  0.00000000E+00  0.00000000E+00
  0.00000000E+00  0.00000000E+00  0.00000000E+00  0.00000000E+00  0.00000000E+00
  0.00000000E+00  0.00000000E+00  0.00000000E+00  0.00000000E+00  0.00000000E+00
  0.00000000E+00  0.00000000E+00  0.00000000E+00  0.00000000E+00  0.00000000E+00
  0.00000000E+00  0.00000000E+00  0.00000000E+00  0.00000000E+00  0.00000000E+00
  0.00000000E+00  0.00000000E+00  0.00000000E+00  0.00000000E+00  0.00000000E+00
  0.00000000E+00  0.00000000E+00  0.00000000E+00  0.00000000E+00  0.00000000E+00
  0.00000000E+00  0.00000000E+00
Coordinates of each shell                  R   N=         186
  3.35860953E+00 -1.83417234E+00 -7.30042384E-01  3.35860953E+00 -1.83417234E+00
 -7.30042384E-01  3.35860953E+00 -1.83417234E+00 -7.30042384E-01  3.35860953E+00
 -1.83417234E+00 -7.30042384E-01  1.90485608E+00  1.81848901E-01  5.13531725E-02
  1.90485608E+00  1.81848901E-01  5.13531725E-02  1.90485608E+00  1.81848901E-01
  5.13531725E-02  1.90485608E+00  1.81848901E-01  5.13531725E-02 -8.51856322E-01
  8.17484217E-02  3.47018373E-02 -8.51856322E-01  8.17484217E-02  3.47018373E-02
 -8.51856322E-01  8.17484217E-02  3.47018373E-02 -8.51856322E-01  8.17484217E-02
  3.47018373E-02  3.57894268E+00  2.06079839E+00  8.18220750E-01  3.57894268E+00
  2.06079839E+00  8.18220750E-01  3.57894268E+00  2.06079839E+00  8.18220750E-01
  3.57894268E+00  2.06079839E+00  8.18220750E-01 -2.26043356E+00  2.26524039E+00
 -5.10277951E-01 -2.26043356E+00  2.26524039E+00 -5.10277951E-01 -2.26043356E+00
  2.26524039E+00 -5.10277951E-01 -2.26043356E+00  2.26524039E+00 -5.10277951E-01
 -2.14733966E+00 -2.17769168E+00  5.55955457E-01 -2.14733966E+00 -2.17769168E+00
  5.55955457E-01 -2.14733966E+00 -2.17769168E+00  5.55955457E-01 -2.14733966E+00
 -2.17769168E+00  5.55955457E-01  5.88043014E+00 -1.27245987E+00 -5.23799564E-01
  5.88043014E+00 -1.27245987E+00 -5.23799564E-01  5.88043014E+00 -1.27245987E+00
 -5.23799564E-01  5.88043014E+00 -1.27245987E+00 -5.23799564E-01  6.06477956E+00
  1.14738637E+00  4.55641983E-01  6.06477956E+00  1.14738637E+00  4.55641983E-01
  6.06477956E+00  1.14738637E+00  4.55641983E-01  6.06477956E+00  1.14738637E+00
  4.55641983E-01 -4.89346715E+00  2.19375047E+00 -5.08308047E-01 -4.89346715E+00
  2.19375047E+00 -5.08308047E-01 -4.89346715E+00  2.19375047E+00 -5.08308047E-01
 -4.89346715E+00  2.19375047E+00 -5.08308047E-01 -4.78173182E+00 -2.25306146E+00
  5.09508714E-01 -4.78173182E+00 -2.25306146E+00  5.09508714E-01 -4.78173182E+00
 -2.25306146E+00  5.09508714E-01 -4.78173182E+00 -2.25306146E+00  5.09508714E-01
 -6.16545211E+00 -6.83453531E-02 -1.79570206E-02 -6.16545211E+00 -6.83453531E-02
 -1.79570206E-02 -6.16545211E+00 -6.83453531E-02 -1.79570206E-02 -6.16545211E+00
 -6.83453531E-02 -1.79570206E-02  2.64456193E+00 -3.39659568E+00 -1.57184293E+00
  2.64456193E+00 -3.39659568E+00 -1.57184293E+00  3.03793164E+00  3.85922909E+00
  1.63081141E+00  3.03793164E+00  3.85922909E+00  1.63081141E+00 -1.26856053E+00
  4.00931446E+00 -9.58138339E-01 -1.26856053E+00  4.00931446E+00 -9.58138339E-01
 -1.08588854E+00 -3.86342357E+00  1.07118105E+00 -1.08588854E+00 -3.86342357E+00
  1.07118105E+00  7.31630052E+00 -2.61097899E+00 -1.09153308E+00  7.31630052E+00
 -2.61097899E+00 -1.09153308E+00  7.80752969E+00  2.12638379E+00  8.88086286E-01
  7.80752969E+00  2.12638379E+00  8.88086286E-01 -5.95796440E+00  3.90055625E+00
 -9.30803257E-01 -5.95796440E+00  3.90055625E+00 -9.30803257E-01 -5.75738678E+00
 -4.01512698E+00  9.19964707E-01 -5.75738678E+00 -4.01512698E+00  9.19964707E-01
 -8.21915731E+00 -1.25439476E-01 -3.76651473E-02 -8.21915731E+00 -1.25439476E-01
 -3.76651473E-02
Constraint Structure                       R   N=          60
  3.35860953E+00 -1.83417234E+00 -7.30042384E-01  1.90485608E+00  1.81848901E-01
  5.13531725E-02 -8.51856322E-01  8.17484217E-02  3.47018373E-02  3.57894268E+00
  2.06079839E+00  8.18220750E-01 -2.26043356E+00  2.26524039E+00 -5.10277951E-01
 -2.14733966E+00 -2.17769168E+00  5.55955457E-01  5.88043014E+00 -1.27245987E+00
 -5.23799564E-01  6.06477956E+00  1.14738637E+00  4.55641983E-01 -4.89346715E+00
  2.19375047E+00 -5.08308047E-01 -4.78173182E+00 -2.25306146E+00  5.09508714E-01
 -6.16545211E+00 -6.83453531E-02 -1.79570206E-02  2.64456193E+00 -3.39659568E+00
 -1.57184293E+00  3.03793164E+00  3.85922909E+00  1.63081141E+00 -1.26856053E+00
  4.00931446E+00 -9.58138339E-01 -1.08588854E+00 -3.86342357E+00  1.07118105E+00
  7.31630052E+00 -2.61097899E+00 -1.09153308E+00  7.80752969E+00  2.12638379E+00
  8.88086286E-01 -5.95796440E+00  3.90055625E+00 -9.30803257E-01 -5.75738678E+00
 -4.01512698E+00  9.19964707E-01 -8.21915731E+00 -1.25439476E-01 -3.76651473E-02
Num ILSW                                   I              100
ILSW                                       I   N=         100
           0           1           0           0           2           0
           0           0           0           0           0          -1
           0           0           0           0           0           0
           0           0           0           0           1           0
           1           0           0           0           0           0
           0           0      100000           0          -1           0
           0           0           0           0           0           0
           0           0           0           1           1           0
           0           0           1           0           0           0
           0           0           4          40           0           0
           0           0           0           0           0           0
           0           0           0           0           0           0
           0           0           0           0           0           0
           0           0           0           0           0           0
           0           0           0           0           0           0
           0           0           0           0           0           0
           0           0           0           0
Num RLSW                                   I               40
RLSW                                       R   N=          40
  1.00000000E+00  1.00000000E+00  1.00000000E+00  1.00000000E+00  1.00000000E+00
  0.00000000E+00  0.00000000E+00  1.00000000E+00  0.00000000E+00  0.00000000E+00
  0.00000000E+00  0.00000000E+00  1.00000000E+00  0.00000000E+00  0.00000000E+00
  0.00000000E+00  0.00000000E+00  1.00000000E+00  0.00000000E+00  0.00000000E+00
  0.00000000E+00  0.00000000E+00  1.00000000E+00  0.00000000E+00  0.00000000E+00
  0.00000000E+00  0.00000000E+00  1.00000000E+00  0.00000000E+00  0.00000000E+00
  0.00000000E+00  0.00000000E+00  0.00000000E+00  0.00000000E+00  0.00000000E+00
  0.00000000E+00  0.00000000E+00  0.00000000E+00  1.00000000E+00  1.00000000E+00
MxBond                                     I                3
NBond                                      I   N=          20
           3           3           3           3           3           3
           3           3           3           3           3           1
           1           1           1           1           1           1
           1           1
IBond                                      I   N=          60
           2           7          12           1           3           4
           2           5           6           2           8          13
           3           9          14           3          10          15
           1           8          16           4           7          17
           5          11          18           6          11          19
           9          10          20           1           0           0
           4           0           0           5           0           0
           6           0           0           7           0           0
           8           0           0           9           0           0
          10           0           0          11           0           0
RBond                                      R   N=          60
  1.00000000E+00  1.00000000E+00  1.00000000E+00  1.00000000E+00  1.00000000E+00
  1.50000000E+00  1.00000000E+00  1.50000000E+00  1.50000000E+00  1.50000000E+00
  1.50000000E+00  1.00000000E+00  1.50000000E+00  1.50000000E+00  1.00000000E+00
  1.50000000E+00  1.50000000E+00  1.00000000E+00  1.00000000E+00  1.50000000E+00
  1.00000000E+00  1.50000000E+00  1.50000000E+00  1.00000000E+00  1.50000000E+00
  1.50000000E+00  1.00000000E+00  1.50000000E+00  1.50000000E+00  1.00000000E+00
  1.50000000E+00  1.50000000E+00  1.00000000E+00  1.00000000E+00  0.00000000E+00
  0.00000000E+00  1.00000000E+00  0.00000000E+00  0.00000000E+00  1.00000000E+00
  0.00000000E+00  0.00000000E+00  1.00000000E+00  0.00000000E+00  0.00000000E+00
  1.00000000E+00  0.00000000E+00  0.00000000E+00  1.00000000E+00  0.00000000E+00
  0.00000000E+00  1.00000000E+00  0.00000000E+00  0.00000000E+00  1.00000000E+00
  0.00000000E+00  0.00000000E+00  1.00000000E+00  0.00000000E+00  0.00000000E+00
Virial Ratio                               R      2.002193788796900E+00
SCF Energy                                 R     -4.383590741348430E+02
MP2 Energy                                 R     -4.397939967232566E+02
Total Energy                               R     -4.397939967232566E+02
Post-SCF wavefunction norm                 R      1.744224341985578E+00
RMS Force                                  R      4.764548256341321E-07
RMS Density                                R      3.316882085158128E-09
External E-field                           R   N=          35
  0.00000000E+00  0.00000000E+00  0.00000000E+00  0.00000000E+00  0.00000000E+00
  0.00000000E+00  0.00000000E+00  0.00000000E+00  0.00000000E+00  0.00000000E+00
  0.00000000E+00  0.00000000E+00  0.00000000E+00  0.00000000E+00  0.00000000E+00
  0.00000000E+00  0.00000000E+00  0.00000000E+00  0.00000000E+00  0.00000000E+00
  0.00000000E+00  0.00000000E+00  0.00000000E+00  0.00000000E+00  0.00000000E+00
  0.00000000E+00  0.00000000E+00  0.00000000E+00  0.00000000E+00  0.00000000E+00
  0.00000000E+00  0.00000000E+00  0.00000000E+00  0.00000000E+00  0.00000000E+00
IOpCl                                      I                0
IROHF                                      I                0
Alpha Orbital Energies                     R   N=         183
 -1.56081580E+01 -1.12559042E+01 -1.12523740E+01 -1.12483487E+01 -1.12384672E+01
 -1.12371268E+01 -1.12368878E+01 -1.12345778E+01 -1.12340647E+01 -1.12087694E+01
 -1.12077109E+01 -1.28748063E+00 -1.14929606E+00 -1.04210383E+00 -1.03574668E+00
 -1.01049801E+00 -9.52667108E-01 -8.31293096E-01 -8.25888154E-01 -7.82788838E-01
 -7.58339523E-01 -7.28818794E-01 -6.74180474E-01 -6.27633192E-01 -6.22210264E-01
 -5.87644479E-01 -5.82665649E-01 -5.76561727E-01 -5.61121583E-01 -5.42796062E-01
 -5.29720638E-01 -4.97408253E-01 -4.93743528E-01 -4.88227263E-01 -3.55633571E-01
 -3.41098521E-01 -3.34027459E-01 -2.65005601E-01  1.20947452E-01  1.40541730E-01
  2.14906761E-01  2.25490487E-01  2.44315751E-01  2.61906890E-01  2.80178550E-01
  2.97788352E-01  3.05946797E-01  3.15193388E-01  3.23483997E-01  3.36885869E-01
  3.55076062E-01  3.70445943E-01  4.06820761E-01  4.34638275E-01  4.55212001E-01
  4.72369899E-01  4.75464134E-01  5.10073797E-01  5.24874794E-01  5.77435181E-01
  6.02052549E-01  6.59672531E-01  7.04033524E-01  7.27708600E-01  7.43299777E-01
  7.57689874E-01  7.74295266E-01  7.83768121E-01  7.94027819E-01  8.06690397E-01
  8.20549510E-01  8.22112906E-01  8.30171810E-01  8.39612483E-01  8.41158773E-01
  8.43297997E-01  8.58990555E-01  8.64243547E-01  8.72759483E-01  8.98023910E-01
  9.03732887E-01  9.20662908E-01  9.46729339E-01  9.86562231E-01  1.02043950E+00
  1.04192467E+00  1.06744024E+00  1.07122643E+00  1.10439531E+00  1.10949928E+00
  1.11122607E+00  1.11623696E+00  1.12461197E+00  1.14831219E+00  1.17402799E+00
  1.17820758E+00  1.19295440E+00  1.19687155E+00  1.21448668E+00  1.22911850E+00
  1.24091052E+00  1.26986783E+00  1.29794081E+00  1.32168393E+00  1.35863960E+00
  1.39164315E+00  1.41486231E+00  1.45237237E+00  1.45688846E+00  1.49983331E+00
  1.51566160E+00  1.57816664E+00  1.62814472E+00  1.65107573E+00  1.66344657E+00
  1.69272480E+00  1.70608060E+00  1.72453235E+00  1.73425278E+00  1.76980209E+00
  1.77554956E+00  1.78165526E+00  1.78908255E+00  1.80142604E+00  1.84568371E+00
  1.93428822E+00  2.06555693E+00  2.09698366E+00  2.10744350E+00  2.12012223E+00
  2.15918589E+00  2.19549816E+00  2.24604383E+00  2.28610395E+00  2.28933168E+00
  2.30806735E+00  2.35405278E+00  2.38026960E+00  2.41012511E+00  2.44239399E+00
  2.45690036E+00  2.46599803E+00  2.47624896E+00  2.50436464E+00  2.52865949E+00
  2.55377371E+00  2.56444413E+00  2.60191722E+00  2.62092776E+00  2.63804016E+00
  2.63968817E+00  2.65939866E+00  2.67533555E+00  2.81531785E+00  2.85879482E+00
  2.90193935E+00  2.91787318E+00  2.97349119E+00  3.00104710E+00  3.01867865E+00
  3.04042743E+00  3.06100126E+00  3.07623881E+00  3.10927200E+00  3.11802700E+00
  3.14939011E+00  3.19408813E+00  3.33142750E+00  3.39018140E+00  3.49687678E+00
  3.59783225E+00  3.80654844E+00  4.40473949E+00  4.51302499E+00  4.53562848E+00
  4.54146047E+00  4.57266914E+00  4.62912366E+00  4.73482616E+00  4.75313836E+00
  4.85227875E+00  4.95395722E+00  5.16825397E+00
Alpha MO coefficients                      R   N=       33489
  9.95002287E-01  2.53034078E-02  3.65510011E-05  1.28571994E-04 -8.38349959E-05