
    -----------------------------------------------------------------------
          Psi4: An Open-Source Ab Initio Electronic Structure Package
                               Psi4 1.4a3.dev225 

                         Git: Rev {master} 7105e37 


    D. G. A. Smith, L. A. Burns, A. C. Simmonett, R. M. Parrish,
    M. C. Schieber, R. Galvelis, P. Kraus, H. Kruse, R. Di Remigio,
    A. Alenaizan, A. M. James, S. Lehtola, J. P. Misiewicz, M. Scheurer,
    R. A. Shaw, J. B. Schriber, Y. Xie, Z. L. Glick, D. A. Sirianni,
    J. S. O'Brien, J. M. Waldrop, A. Kumar, E. G. Hohenstein,
    B. P. Pritchard, B. R. Brooks, H. F. Schaefer III, A. Yu. Sokolov,
    K. Patkowski, A. E. DePrince III, U. Bozkaya, R. A. King,
    F. A. Evangelista, J. M. Turney, T. D. Crawford, C. D. Sherrill,
    J. Chem. Phys. 152(18) 184108 (2020). https://doi.org/10.1063/5.0006002

                            Additional Code Authors
    E. T. Seidl, C. L. Janssen, E. F. Valeev, M. L. Leininger,
    J. F. Gonthier, R. M. Richard, H. R. McAlexander, M. Saitow, X. Wang,
    P. Verma, and M. H. Lechner

             Previous Authors, Complete List of Code Contributors,
                       and Citations for Specific Modules
    https://github.com/psi4/psi4/blob/master/codemeta.json
    https://github.com/psi4/psi4/graphs/contributors
    http://psicode.org/psi4manual/master/introduction.html#citing-psifour

    -----------------------------------------------------------------------


    Psi4 started on: Sunday, 28 February 2021 02:37PM

    Process ID: 123365
    Host:       c403-114.stampede2.tacc.utexas.edu
    PSIDATADIR: /home1/07844/xy3866/miniconda3/envs/p4env/share/psi4
    Memory:     500.0 MiB
    Threads:    32
    
  ==> Input File <==

--------------------------------------------------------------------------
#psi4
#
memory 32 gb

molecule  {
0 1
  F        2.1226300     0.9082170     0.7600610
  F       -2.1226300     0.9082210    -0.7600560
  O        2.8120520    -0.8324970    -0.4615260
  O       -2.8120520    -0.8324980     0.4615220
  C        0.4856120    -0.1117560    -0.5938050
  C       -0.4178953     0.0268754     0.6383261
  C        1.9157900    -0.1063220    -0.1389790
  C       -1.9157900    -0.1063230     0.1389780
  H        0.3463190    -0.9890650    -1.2292190
  H        0.3197670     0.7835690    -1.2005600
  H       -0.3197660     0.7835590     1.2005670
  H       -0.3463190    -0.9890750     1.2292110
units angstrom
no_reorient  #important for SAPT in psi4, default
symmetry c1  #important for SAPT in psi4, default
}

set PROPERTIES_ORIGIN ["COM"]
properties('MP2/aug-cc-pvtz', properties = ['dipole'])
--------------------------------------------------------------------------

  Memory set to  29.802 GiB by Python driver.
    SCF Algorithm Type (re)set to DF.

*** tstart() called on c403-114.stampede2.tacc.utexas.edu
*** at Sun Feb 28 14:37:19 2021

   => Loading Basis Set <=

    Name: AUG-CC-PVTZ
    Role: ORBITAL
    Keyword: BASIS
    atoms 1-2  entry F          line   377 file /home1/07844/xy3866/miniconda3/envs/p4env/share/psi4/basis/aug-cc-pvtz.gbs 
    atoms 3-4  entry O          line   331 file /home1/07844/xy3866/miniconda3/envs/p4env/share/psi4/basis/aug-cc-pvtz.gbs 
    atoms 5-8  entry C          line   239 file /home1/07844/xy3866/miniconda3/envs/p4env/share/psi4/basis/aug-cc-pvtz.gbs 
    atoms 9-12 entry H          line    40 file /home1/07844/xy3866/miniconda3/envs/p4env/share/psi4/basis/aug-cc-pvtz.gbs 


         ---------------------------------------------------------
                                   SCF
               by Justin Turney, Rob Parrish, Andy Simmonett
                          and Daniel G. A. Smith
                              RHF Reference
                       32 Threads,  30517 MiB Core
         ---------------------------------------------------------

  ==> Geometry <==

    Molecular point group: c1
    Full point group: C1

    Geometry (in Angstrom), charge = 0, multiplicity = 1:

       Center              X                  Y                   Z               Mass       
    ------------   -----------------  -----------------  -----------------  -----------------
         F            2.115970311789     0.876308304177     0.755682371551    18.998403162730
         F           -2.129289688211     0.876312304177    -0.764434628449    18.998403162730
         O            2.805392311789    -0.864405695823    -0.465904628449    15.994914619570
         O           -2.818711688211    -0.864406695823     0.457143371551    15.994914619570
         C            0.478952311789    -0.143664695823    -0.598183628449    12.000000000000
         C           -0.424554988211    -0.005033295823     0.633947471551    12.000000000000
         C            1.909130311789    -0.138230695823    -0.143357628449    12.000000000000
         C           -1.922449688211    -0.138231695823     0.134599371551    12.000000000000
         H            0.339659311789    -1.020973695823    -1.233597628449     1.007825032230
         H            0.313107311789     0.751660304177    -1.204938628449     1.007825032230
         H           -0.326425688211     0.751650304177     1.196188371551     1.007825032230
         H           -0.352978688211    -1.020983695823     1.224832371551     1.007825032230

  Running in c1 symmetry.

  Rotational constants: A =      0.16646  B =      0.03000  C =      0.02933 [cm^-1]
  Rotational constants: A =   4990.48058  B =    899.51270  C =    879.26543 [MHz]
  Nuclear repulsion =  362.987255301202026

  Charge       = 0
  Multiplicity = 1
  Electrons    = 62
  Nalpha       = 31
  Nbeta        = 31

  ==> Algorithm <==

  SCF Algorithm Type is DF.
  DIIS enabled.
  MOM disabled.
  Fractional occupation disabled.
  Guess Type is SAD.
  Energy threshold   = 1.00e-10
  Density threshold  = 1.00e-10
  Integral threshold = 1.00e-12

  ==> Primary Basis <==

  Basis Set: AUG-CC-PVTZ
    Blend: AUG-CC-PVTZ
    Number of shells: 148
    Number of basis functions: 460
    Number of Cartesian functions: 540
    Spherical Harmonics?: true
    Max angular momentum: 3

   => Loading Basis Set <=

    Name: (AUG-CC-PVTZ AUX)
    Role: JKFIT
    Keyword: DF_BASIS_SCF
    atoms 1-2  entry F          line   348 file /home1/07844/xy3866/miniconda3/envs/p4env/share/psi4/basis/aug-cc-pvtz-jkfit.gbs 
    atoms 3-4  entry O          line   286 file /home1/07844/xy3866/miniconda3/envs/p4env/share/psi4/basis/aug-cc-pvtz-jkfit.gbs 
    atoms 5-8  entry C          line   162 file /home1/07844/xy3866/miniconda3/envs/p4env/share/psi4/basis/aug-cc-pvtz-jkfit.gbs 
    atoms 9-12 entry H          line    70 file /home1/07844/xy3866/miniconda3/envs/p4env/share/psi4/basis/aug-cc-pvtz-jkfit.gbs 

  ==> Integral Setup <==

  DFHelper Memory: AOs need 1.578 GiB; user supplied 22.352 GiB. Using in-core AOs.

  ==> MemDFJK: Density-Fitted J/K Matrices <==

    J tasked:                   Yes
    K tasked:                   Yes
    wK tasked:                   No
    OpenMP threads:              32
    Memory [MiB]:             22888
    Algorithm:                 Core
    Schwarz Cutoff:           1E-12
    Mask sparsity (%):       7.7854
    Fitting Condition:        1E-10

   => Auxiliary Basis Set <=

  Basis Set: (AUG-CC-PVTZ AUX)
    Blend: AUG-CC-PVTZ-JKFIT
    Number of shells: 296
    Number of basis functions: 1016
    Number of Cartesian functions: 1268
    Spherical Harmonics?: true
    Max angular momentum: 4

  Minimum eigenvalue in the overlap matrix is 1.1037416759E-05.
  Reciprocal condition number of the overlap matrix is 6.8751615076E-07.
    Using symmetric orthogonalization.

  ==> Pre-Iterations <==

  SCF Guess: Superposition of Atomic Densities via on-the-fly atomic UHF (no occupation information).

   -------------------------
    Irrep   Nso     Nmo    
   -------------------------
     A        460     460 
   -------------------------
    Total     460     460
   -------------------------

  ==> Iterations <==

                           Total Energy        Delta E     RMS |[F,P]|

   @DF-RHF iter SAD:  -501.30113872543313   -5.01301e+02   0.00000e+00 
   @DF-RHF iter   1:  -502.33302243923845   -1.03188e+00   1.66755e-03 DIIS
   @DF-RHF iter   2:  -502.48727186671357   -1.54249e-01   1.18284e-03 DIIS
   @DF-RHF iter   3:  -502.58242342456759   -9.51516e-02   1.72084e-04 DIIS
   @DF-RHF iter   4:  -502.58659888719075   -4.17546e-03   7.84133e-05 DIIS
   @DF-RHF iter   5:  -502.58749612583784   -8.97239e-04   1.93891e-05 DIIS
   @DF-RHF iter   6:  -502.58759122600071   -9.51002e-05   9.45494e-06 DIIS
   @DF-RHF iter   7:  -502.58761072325046   -1.94972e-05   3.79306e-06 DIIS
   @DF-RHF iter   8:  -502.58761477697431   -4.05372e-06   1.25859e-06 DIIS
   @DF-RHF iter   9:  -502.58761525857352   -4.81599e-07   2.80239e-07 DIIS
   @DF-RHF iter  10:  -502.58761527495346   -1.63799e-08   1.20785e-07 DIIS
   @DF-RHF iter  11:  -502.58761527652388   -1.57041e-09   3.56524e-08 DIIS
   @DF-RHF iter  12:  -502.58761527671561   -1.91733e-10   9.13955e-09 DIIS
   @DF-RHF iter  13:  -502.58761527673528   -1.96678e-11   2.98296e-09 DIIS
   @DF-RHF iter  14:  -502.58761527673823   -2.95586e-12   1.47666e-09 DIIS
   @DF-RHF iter  15:  -502.58761527673965   -1.42109e-12   6.30331e-10 DIIS
   @DF-RHF iter  16:  -502.58761527673948    1.70530e-13   2.81082e-10 DIIS
   @DF-RHF iter  17:  -502.58761527673965   -1.70530e-13   1.15618e-10 DIIS
   @DF-RHF iter  18:  -502.58761527673948    1.70530e-13   3.52326e-11 DIIS
  Energy and wave function converged.


  ==> Post-Iterations <==

    Orbital Energies [Eh]
    ---------------------

    Doubly Occupied:                                                      

       1A    -26.348318     2A    -26.345094     3A    -20.609340  
       4A    -20.603906     5A    -11.452649     6A    -11.448526  
       7A    -11.304106     8A    -11.302904     9A     -1.666850  
      10A     -1.664283    11A     -1.443563    12A     -1.441865  
      13A     -1.140024    14A     -0.998608    15A     -0.864843  
      16A     -0.859913    17A     -0.777288    18A     -0.749618  
      19A     -0.739830    20A     -0.734160    21A     -0.731015  
      22A     -0.718642    23A     -0.683755    24A     -0.637169  
      25A     -0.624679    26A     -0.605482    27A     -0.566516  
      28A     -0.557206    29A     -0.534887    30A     -0.521191  
      31A     -0.490183  

    Virtual:                                                              

      32A      0.025769    33A      0.034490    34A      0.038052  
      35A      0.053191    36A      0.057038    37A      0.079452  
      38A      0.087779    39A      0.089185    40A      0.093059  
      41A      0.106107    42A      0.113941    43A      0.116653  
      44A      0.120623    45A      0.121709    46A      0.126299  
      47A      0.132455    48A      0.140247    49A      0.153478  
      50A      0.164272    51A      0.171901    52A      0.178790  
      53A      0.186039    54A      0.191529    55A      0.205304  
      56A      0.215871    57A      0.222517    58A      0.231993  
      59A      0.245036    60A      0.247105    61A      0.252915  
      62A      0.262411    63A      0.265404    64A      0.269642  
      65A      0.281318    66A      0.290993    67A      0.293858  
      68A      0.300235    69A      0.312149    70A      0.318055  
      71A      0.320483    72A      0.322824    73A      0.340135  
      74A      0.341426    75A      0.355226    76A      0.358605  
      77A      0.368091    78A      0.371732    79A      0.376430  
      80A      0.380305    81A      0.389669    82A      0.391035  
      83A      0.397285    84A      0.402356    85A      0.418000  
      86A      0.435512    87A      0.442931    88A      0.452261  
      89A      0.457281    90A      0.477060    91A      0.485800  
      92A      0.490455    93A      0.492964    94A      0.497445  
      95A      0.505312    96A      0.521642    97A      0.536022  
      98A      0.541826    99A      0.549555   100A      0.556649  
     101A      0.557880   102A      0.561676   103A      0.575218  
     104A      0.585271   105A      0.590139   106A      0.605340  
     107A      0.644011   108A      0.652553   109A      0.661254  
     110A      0.667628   111A      0.675123   112A      0.716747  
     113A      0.720634   114A      0.736149   115A      0.740284  
     116A      0.747103   117A      0.764422   118A      0.773621  
     119A      0.781860   120A      0.792070   121A      0.797846  
     122A      0.803635   123A      0.812816   124A      0.828340  
     125A      0.829222   126A      0.846098   127A      0.847590  
     128A      0.863265   129A      0.875293   130A      0.879782  
     131A      0.885491   132A      0.895166   133A      0.906895  
     134A      0.918233   135A      0.930045   136A      0.942597  
     137A      0.948532   138A      0.956801   139A      0.969980  
     140A      0.972947   141A      0.987522   142A      0.995933  
     143A      0.999394   144A      1.024597   145A      1.035962  
     146A      1.041924   147A      1.053666   148A      1.066584  
     149A      1.076740   150A      1.080223   151A      1.090696  
     152A      1.094236   153A      1.105723   154A      1.114950  
     155A      1.126336   156A      1.149586   157A      1.171031  
     158A      1.179118   159A      1.183452   160A      1.192168  
     161A      1.213370   162A      1.216765   163A      1.232084  
     164A      1.238518   165A      1.239884   166A      1.272400  
     167A      1.279415   168A      1.285585   169A      1.289443  
     170A      1.301334   171A      1.311408   172A      1.328960  
     173A      1.342776   174A      1.349116   175A      1.371117  
     176A      1.382773   177A      1.386746   178A      1.393510  
     179A      1.410053   180A      1.416426   181A      1.449569  
     182A      1.453762   183A      1.476755   184A      1.480679  
     185A      1.490454   186A      1.513636   187A      1.518379  
     188A      1.524956   189A      1.529725   190A      1.549942  
     191A      1.558167   192A      1.562518   193A      1.574925  
     194A      1.589684   195A      1.609481   196A      1.618593  
     197A      1.627735   198A      1.637065   199A      1.649544  
     200A      1.669445   201A      1.681266   202A      1.706471  
     203A      1.712656   204A      1.716773   205A      1.750188  
     206A      1.755411   207A      1.777788   208A      1.789418  
     209A      1.803468   210A      1.809374   211A      1.812536  
     212A      1.820483   213A      1.832740   214A      1.852974  
     215A      1.870038   216A      1.879419   217A      1.909154  
     218A      1.921596   219A      1.932174   220A      1.942723  
     221A      1.954008   222A      1.972722   223A      1.984453  
     224A      2.026886   225A      2.057097   226A      2.076272  
     227A      2.094376   228A      2.113925   229A      2.138688  
     230A      2.148834   231A      2.176626   232A      2.218485  
     233A      2.220584   234A      2.233282   235A      2.253337  
     236A      2.284832   237A      2.331515   238A      2.359981  
     239A      2.365619   240A      2.370097   241A      2.393141  
     242A      2.412083   243A      2.427060   244A      2.457092  
     245A      2.469596   246A      2.492617   247A      2.507979  
     248A      2.526674   249A      2.547625   250A      2.568636  
     251A      2.583223   252A      2.600917   253A      2.608121  
     254A      2.634064   255A      2.664191   256A      2.680666  
     257A      2.688638   258A      2.707427   259A      2.723691  
     260A      2.763040   261A      2.795048   262A      2.810109  
     263A      2.858350   264A      2.879585   265A      2.884373  
     266A      2.901550   267A      2.915023   268A      2.936435  
     269A      2.950639   270A      2.991546   271A      3.001290  
     272A      3.020724   273A      3.037603   274A      3.043362  
     275A      3.062855   276A      3.089997   277A      3.109060  
     278A      3.121971   279A      3.160334   280A      3.168112  
     281A      3.174185   282A      3.201194   283A      3.233880  
     284A      3.268097   285A      3.298969   286A      3.321681  
     287A      3.337170   288A      3.353789   289A      3.360012  
     290A      3.377510   291A      3.388658   292A      3.393308  
     293A      3.420778   294A      3.449276   295A      3.466099  
     296A      3.496934   297A      3.536035   298A      3.543857  
     299A      3.553615   300A      3.564415   301A      3.589546  
     302A      3.591247   303A      3.595862   304A      3.629351  
     305A      3.643501   306A      3.656658   307A      3.657376  
     308A      3.671682   309A      3.692187   310A      3.701074  
     311A      3.721590   312A      3.759842   313A      3.762435  
     314A      3.780046   315A      3.806663   316A      3.820956  
     317A      3.831183   318A      3.847282   319A      3.894172  
     320A      3.918840   321A      3.925995   322A      3.937101  
     323A      3.973166   324A      4.001775   325A      4.020774  
     326A      4.041208   327A      4.048556   328A      4.060460  
     329A      4.081386   330A      4.103729   331A      4.127831  
     332A      4.134920   333A      4.164764   334A      4.200170  
     335A      4.217017   336A      4.249568   337A      4.266723  
     338A      4.290147   339A      4.306704   340A      4.322224  
     341A      4.358775   342A      4.373679   343A      4.391644  
     344A      4.431058   345A      4.450928   346A      4.474195  
     347A      4.481128   348A      4.542611   349A      4.559963  
     350A      4.578297   351A      4.590674   352A      4.607264  
     353A      4.620483   354A      4.673281   355A      4.691982  
     356A      4.721852   357A      4.730808   358A      4.820235  
     359A      4.841549   360A      4.863978   361A      4.872253  
     362A      4.886072   363A      4.906992   364A      4.917806  
     365A      4.959835   366A      5.024964   367A      5.049661  
     368A      5.088565   369A      5.113989   370A      5.175013  
     371A      5.193418   372A      5.263210   373A      5.267921  
     374A      5.296391   375A      5.345801   376A      5.361322  
     377A      5.399943   378A      5.442249   379A      5.497723  
     380A      5.534542   381A      5.565229   382A      5.589097  
     383A      5.600682   384A      5.619062   385A      5.669673  
     386A      5.693255   387A      5.743951   388A      5.777487  
     389A      5.797720   390A      5.902964   391A      5.943608  
     392A      5.985847   393A      6.061197   394A      6.077881  
     395A      6.119920   396A      6.207099   397A      6.254085  
     398A      6.421099   399A      6.511944   400A      6.589761  
     401A      6.621355   402A      6.627888   403A      6.663527  
     404A      6.675257   405A      6.716491   406A      6.822573  
     407A      6.892714   408A      6.909026   409A      6.949253  
     410A      6.959784   411A      7.148451   412A      7.162128  
     413A      7.202871   414A      7.211639   415A      7.281551  
     416A      7.302037   417A      7.332545   418A      7.352124  
     419A      7.482121   420A      7.517982   421A      7.543034  
     422A      7.585069   423A      7.647828   424A      7.672155  
     425A      7.767945   426A      7.792344   427A      7.828190  
     428A      7.847009   429A      8.942814   430A      8.958713  
     431A      8.988720   432A      9.009282   433A      9.174948  
     434A      9.182536   435A      9.198878   436A      9.236285  
     437A      9.321696   438A      9.323338   439A      9.420935  
     440A      9.437163   441A      9.476247   442A      9.479063  
     443A      9.501768   444A      9.504996   445A      9.537948  
     446A      9.545240   447A      9.608185   448A      9.621642  
     449A      9.875665   450A      9.890962   451A      9.902817  
     452A      9.930037   453A     14.757664   454A     15.045603  
     455A     15.435680   456A     15.772194   457A     17.176840  
     458A     17.555580   459A     18.972763   460A     19.696377  

    Final Occupation by Irrep:
              A 
    DOCC [    31 ]

  @DF-RHF Final Energy:  -502.58761527673948

   => Energetics <=

    Nuclear Repulsion Energy =            362.9872553012020262
    One-Electron Energy =               -1412.8169174901811402
    Two-Electron Energy =                 547.2420469122395161
    Total Energy =                       -502.5876152767394842

Computation Completed

*** tstop() called on c403-114.stampede2.tacc.utexas.edu at Sun Feb 28 14:37:37 2021
Module time:
	user time   =     293.23 seconds =       4.89 minutes
	system time =      22.54 seconds =       0.38 minutes
	total time  =         18 seconds =       0.30 minutes
Total time:
	user time   =     293.23 seconds =       4.89 minutes
	system time =      22.54 seconds =       0.38 minutes
	total time  =         18 seconds =       0.30 minutes
   => Loading Basis Set <=

    Name: (AUG-CC-PVTZ AUX)
    Role: RIFIT
    Keyword: DF_BASIS_MP2
    atoms 1-2  entry F          line   322 file /home1/07844/xy3866/miniconda3/envs/p4env/share/psi4/basis/aug-cc-pvtz-ri.gbs 
    atoms 3-4  entry O          line   264 file /home1/07844/xy3866/miniconda3/envs/p4env/share/psi4/basis/aug-cc-pvtz-ri.gbs 
    atoms 5-8  entry C          line   148 file /home1/07844/xy3866/miniconda3/envs/p4env/share/psi4/basis/aug-cc-pvtz-ri.gbs 
    atoms 9-12 entry H          line    30 file /home1/07844/xy3866/miniconda3/envs/p4env/share/psi4/basis/aug-cc-pvtz-ri.gbs 


*** tstart() called on c403-114.stampede2.tacc.utexas.edu
*** at Sun Feb 28 14:37:38 2021


  //>>>>>>>>>>>>>>>>>>>>>>>>>>>>>>>>>>>//
  //               DFMP2               //
  //<<<<<<<<<<<<<<<<<<<<<<<<<<<<<<<<<<<//

	 --------------------------------------------------------
	                          DF-MP2                         
	      2nd-Order Density-Fitted Moller-Plesset Theory     
	              RMP2 Wavefunction,  32 Threads             
	                                                         
	        Rob Parrish, Justin Turney, Andy Simmonett,      
	           Ed Hohenstein, and C. David Sherrill          
	 --------------------------------------------------------

   => Auxiliary Basis Set <=

  Basis Set: (AUG-CC-PVTZ AUX)
    Blend: AUG-CC-PVTZ-RI
    Number of shells: 280
    Number of basis functions: 1032
    Number of Cartesian functions: 1308
    Spherical Harmonics?: true
    Max angular momentum: 4

	 --------------------------------------------------------
	                 NBF =   460, NAUX =  1032
	 --------------------------------------------------------
	   CLASS    FOCC     OCC    AOCC    AVIR     VIR    FVIR
	   PAIRS       0      31      31     429     429       0
	 --------------------------------------------------------

  DFHelper Memory: AOs need 1.617 GiB; user supplied 22.352 GiB. Using in-core AOs.


         ------------------------------------------------------------
                                     CPHF                           
                                  Rob Parrish                       
         ------------------------------------------------------------

  ==> Geometry <==

    Molecular point group: c1
    Full point group: C1

    Geometry (in Angstrom), charge = 0, multiplicity = 1:

       Center              X                  Y                   Z               Mass       
    ------------   -----------------  -----------------  -----------------  -----------------
         F            2.115970311789     0.876308304177     0.755682371551    18.998403162730
         F           -2.129289688211     0.876312304177    -0.764434628449    18.998403162730
         O            2.805392311789    -0.864405695823    -0.465904628449    15.994914619570
         O           -2.818711688211    -0.864406695823     0.457143371551    15.994914619570
         C            0.478952311789    -0.143664695823    -0.598183628449    12.000000000000
         C           -0.424554988211    -0.005033295823     0.633947471551    12.000000000000
         C            1.909130311789    -0.138230695823    -0.143357628449    12.000000000000
         C           -1.922449688211    -0.138231695823     0.134599371551    12.000000000000
         H            0.339659311789    -1.020973695823    -1.233597628449     1.007825032230
         H            0.313107311789     0.751660304177    -1.204938628449     1.007825032230
         H           -0.326425688211     0.751650304177     1.196188371551     1.007825032230
         H           -0.352978688211    -1.020983695823     1.224832371551     1.007825032230

  Nuclear repulsion =  362.987255301202026
  Reference energy  = -502.587615276739484

  ==> Basis Set <==

  Basis Set: AUG-CC-PVTZ
    Blend: AUG-CC-PVTZ
    Number of shells: 148
    Number of basis functions: 460
    Number of Cartesian functions: 540
    Spherical Harmonics?: true
    Max angular momentum: 3

  ==> CGRSolver (by Rob Parrish) <==

   Number of roots    =         1
   Preconditioning    =    JACOBI
   Convergence cutoff =     1E-06
   Maximum iterations =       100

  ==> CPHFRHamiltonian (by Rob Parrish) <== 

  ==> MemDFJK: Density-Fitted J/K Matrices <==

    J tasked:                   Yes
    K tasked:                   Yes
    wK tasked:                   No
    OpenMP threads:              32
    Memory [MiB]:             22888
    Algorithm:                 Core
    Schwarz Cutoff:           1E-12
    Mask sparsity (%):       5.3129
    Fitting Condition:        1E-10

   => Auxiliary Basis Set <=

  Basis Set: (AUG-CC-PVTZ AUX)
    Blend: AUG-CC-PVTZ-JKFIT
    Number of shells: 296
    Number of basis functions: 1016
    Number of Cartesian functions: 1268
    Spherical Harmonics?: true
    Max angular momentum: 4

  ==> CPHF Iterations <==

  => Iterations <=

             Iter  Converged  Remaining    Residual
  CGR           1          0          1   1.110E-01
  CGR           2          0          1   3.227E-02
  CGR           3          0          1   1.138E-02
  CGR           4          0          1   4.415E-03
  CGR           5          0          1   1.445E-03
  CGR           6          0          1   4.739E-04
  CGR           7          0          1   1.278E-04
  CGR           8          0          1   6.014E-05
  CGR           9          0          1   2.059E-05
  CGR          10          0          1   8.779E-06
  CGR          11          0          1   2.673E-06
  CGR          12          0          1   1.139E-06
  CGR          13          1          0   5.394E-07

    CGRSolver converged.

	-----------------------------------------------------------
	 ==================> DF-MP2 Energies <==================== 
	-----------------------------------------------------------
	 Reference Energy          =    -502.5876152767394842 [Eh]
	 Singles Energy            =      -0.0000000000000000 [Eh]
	 Same-Spin Energy          =      -0.4441920902979752 [Eh]
	 Opposite-Spin Energy      =      -1.3270315046030166 [Eh]
	 Correlation Energy        =      -1.7712235949009918 [Eh]
	 Total Energy              =    -504.3588388716405007 [Eh]
	-----------------------------------------------------------
	 ================> DF-SCS-MP2 Energies <================== 
	-----------------------------------------------------------
	 SCS Same-Spin Scale       =       0.3333333333333333 [-]
	 SCS Opposite-Spin Scale   =       1.2000000000000000 [-]
	 SCS Same-Spin Energy      =      -0.1480640300993251 [Eh]
	 SCS Opposite-Spin Energy  =      -1.5924378055236199 [Eh]
	 SCS Correlation Energy    =      -1.7405018356229449 [Eh]
	 SCS Total Energy          =    -504.3281171123624063 [Eh]
	-----------------------------------------------------------



Properties will be evaluated at   0.000000,  -0.000000,   0.000000 [a0]

Properties computed using the MP2 density matrix

  Nuclear Dipole Moment: [e a0]
     X:    -0.0125      Y:    -2.1666      Z:    -0.0082

  Electronic Dipole Moment: [e a0]
     X:    -0.0453      Y:     2.4152      Z:    -0.0106

  Dipole Moment: [e a0]
     X:    -0.0577      Y:     0.2486      Z:    -0.0188     Total:     0.2559

  Dipole Moment: [D]
     X:    -0.1468      Y:     0.6319      Z:    -0.0479     Total:     0.6505


*** tstop() called on c403-114.stampede2.tacc.utexas.edu at Sun Feb 28 14:39:21 2021
Module time:
	user time   =     708.65 seconds =      11.81 minutes
	system time =      22.85 seconds =       0.38 minutes
	total time  =        103 seconds =       1.72 minutes
Total time:
	user time   =    1002.50 seconds =      16.71 minutes
	system time =      45.40 seconds =       0.76 minutes
	total time  =        122 seconds =       2.03 minutes

    Psi4 stopped on: Sunday, 28 February 2021 02:39PM
    Psi4 wall time for execution: 0:02:02.78

*** Psi4 exiting successfully. Buy a developer a beer!
