
    -----------------------------------------------------------------------
          Psi4: An Open-Source Ab Initio Electronic Structure Package
                               Psi4 1.4a3.dev225 

                         Git: Rev {master} 7105e37 


    D. G. A. Smith, L. A. Burns, A. C. Simmonett, R. M. Parrish,
    M. C. Schieber, R. Galvelis, P. Kraus, H. Kruse, R. Di Remigio,
    A. Alenaizan, A. M. James, S. Lehtola, J. P. Misiewicz, M. Scheurer,
    R. A. Shaw, J. B. Schriber, Y. Xie, Z. L. Glick, D. A. Sirianni,
    J. S. O'Brien, J. M. Waldrop, A. Kumar, E. G. Hohenstein,
    B. P. Pritchard, B. R. Brooks, H. F. Schaefer III, A. Yu. Sokolov,
    K. Patkowski, A. E. DePrince III, U. Bozkaya, R. A. King,
    F. A. Evangelista, J. M. Turney, T. D. Crawford, C. D. Sherrill,
    J. Chem. Phys. 152(18) 184108 (2020). https://doi.org/10.1063/5.0006002

                            Additional Code Authors
    E. T. Seidl, C. L. Janssen, E. F. Valeev, M. L. Leininger,
    J. F. Gonthier, R. M. Richard, H. R. McAlexander, M. Saitow, X. Wang,
    P. Verma, and M. H. Lechner

             Previous Authors, Complete List of Code Contributors,
                       and Citations for Specific Modules
    https://github.com/psi4/psi4/blob/master/codemeta.json
    https://github.com/psi4/psi4/graphs/contributors
    http://psicode.org/psi4manual/master/introduction.html#citing-psifour

    -----------------------------------------------------------------------


    Psi4 started on: Saturday, 20 March 2021 05:53PM

    Process ID: 214036
    Host:       c445-113.stampede2.tacc.utexas.edu
    PSIDATADIR: /home1/07844/xy3866/miniconda3/envs/p4env/share/psi4
    Memory:     500.0 MiB
    Threads:    32
    
  ==> Input File <==

--------------------------------------------------------------------------
#psi4
#
memory 32 gb

molecule  {
-1 1
  O        1.0745520     1.3418620    -0.8745480
  O       -1.1230780    -1.1034960    -0.8170800
  O       -2.9206860    -0.1812610     0.2330210
  C        1.4738630    -0.3704550     0.7611780
  C        0.6286860     0.6706690     0.0605170
  C       -0.7798250     0.8397660     0.5534010
  C        2.7202340    -0.7612590    -0.0182770
  C       -1.7002430    -0.2566580    -0.0711330
  H        1.7414500     0.0432240     1.7443780
  H        0.8355880    -1.2371210     0.9565080
  H       -0.8285793     0.7602138     1.6259552
  H       -1.1523820     1.8284630     0.2671350
  H        2.4446610    -1.1885100    -0.9860420
  H        3.3521650     0.1095510    -0.2043800
  H        3.3054110    -1.5035610     0.5312540
units angstrom
no_reorient  #important for SAPT in psi4, default
symmetry c1  #important for SAPT in psi4, default
}

set PROPERTIES_ORIGIN ["COM"]
properties('MP2/aug-cc-pvtz', properties = ['dipole'])
--------------------------------------------------------------------------

  Memory set to  29.802 GiB by Python driver.
    SCF Algorithm Type (re)set to DF.

*** tstart() called on c445-113.stampede2.tacc.utexas.edu
*** at Sat Mar 20 17:53:40 2021

   => Loading Basis Set <=

    Name: AUG-CC-PVTZ
    Role: ORBITAL
    Keyword: BASIS
    atoms 1-3  entry O          line   331 file /home1/07844/xy3866/miniconda3/envs/p4env/share/psi4/basis/aug-cc-pvtz.gbs 
    atoms 4-8  entry C          line   239 file /home1/07844/xy3866/miniconda3/envs/p4env/share/psi4/basis/aug-cc-pvtz.gbs 
    atoms 9-15 entry H          line    40 file /home1/07844/xy3866/miniconda3/envs/p4env/share/psi4/basis/aug-cc-pvtz.gbs 


         ---------------------------------------------------------
                                   SCF
               by Justin Turney, Rob Parrish, Andy Simmonett
                          and Daniel G. A. Smith
                              RHF Reference
                       32 Threads,  30517 MiB Core
         ---------------------------------------------------------

  ==> Geometry <==

    Molecular point group: c1
    Full point group: C1

    Geometry (in Angstrom), charge = -1, multiplicity = 1:

       Center              X                  Y                   Z               Mass       
    ------------   -----------------  -----------------  -----------------  -----------------
         O            1.158049472752     1.331594995205    -0.840329635225    15.994914619570
         O           -1.039580527248    -1.113763004795    -0.782861635225    15.994914619570
         O           -2.837188527248    -0.191528004795     0.267239364775    15.994914619570
         C            1.557360472752    -0.380722004795     0.795396364775    12.000000000000
         C            0.712183472752     0.660401995205     0.094735364775    12.000000000000
         C           -0.696327527248     0.829498995205     0.587619364775    12.000000000000
         C            2.803731472752    -0.771526004795     0.015941364775    12.000000000000
         C           -1.616745527248    -0.266925004795    -0.036914635225    12.000000000000
         H            1.824947472752     0.032956995205     1.778596364775     1.007825032230
         H            0.919085472752    -1.247388004795     0.990726364775     1.007825032230
         H           -0.745081827248     0.749946795205     1.660173564775     1.007825032230
         H           -1.068884527248     1.818195995205     0.301353364775     1.007825032230
         H            2.528158472752    -1.198777004795    -0.951823635225     1.007825032230
         H            3.435662472752     0.099283995205    -0.170161635225     1.007825032230
         H            3.388908472752    -1.513828004795     0.565472364775     1.007825032230

  Running in c1 symmetry.

  Rotational constants: A =      0.13680  B =      0.04083  C =      0.03735 [cm^-1]
  Rotational constants: A =   4101.14600  B =   1224.11122  C =   1119.81596 [MHz]
  Nuclear repulsion =  362.676420247166732

  Charge       = -1
  Multiplicity = 1
  Electrons    = 62
  Nalpha       = 31
  Nbeta        = 31

  ==> Algorithm <==

  SCF Algorithm Type is DF.
  DIIS enabled.
  MOM disabled.
  Fractional occupation disabled.
  Guess Type is SAD.
  Energy threshold   = 1.00e-10
  Density threshold  = 1.00e-10
  Integral threshold = 1.00e-12

  ==> Primary Basis <==

  Basis Set: AUG-CC-PVTZ
    Blend: AUG-CC-PVTZ
    Number of shells: 175
    Number of basis functions: 529
    Number of Cartesian functions: 615
    Spherical Harmonics?: true
    Max angular momentum: 3

   => Loading Basis Set <=

    Name: (AUG-CC-PVTZ AUX)
    Role: JKFIT
    Keyword: DF_BASIS_SCF
    atoms 1-3  entry O          line   286 file /home1/07844/xy3866/miniconda3/envs/p4env/share/psi4/basis/aug-cc-pvtz-jkfit.gbs 
    atoms 4-8  entry C          line   162 file /home1/07844/xy3866/miniconda3/envs/p4env/share/psi4/basis/aug-cc-pvtz-jkfit.gbs 
    atoms 9-15 entry H          line    70 file /home1/07844/xy3866/miniconda3/envs/p4env/share/psi4/basis/aug-cc-pvtz-jkfit.gbs 

  ==> Integral Setup <==

  DFHelper Memory: AOs need 2.373 GiB; user supplied 22.352 GiB. Using in-core AOs.

  ==> MemDFJK: Density-Fitted J/K Matrices <==

    J tasked:                   Yes
    K tasked:                   Yes
    wK tasked:                   No
    OpenMP threads:              32
    Memory [MiB]:             22888
    Algorithm:                 Core
    Schwarz Cutoff:           1E-12
    Mask sparsity (%):       6.9046
    Fitting Condition:        1E-10

   => Auxiliary Basis Set <=

  Basis Set: (AUG-CC-PVTZ AUX)
    Blend: AUG-CC-PVTZ-JKFIT
    Number of shells: 338
    Number of basis functions: 1154
    Number of Cartesian functions: 1433
    Spherical Harmonics?: true
    Max angular momentum: 4

  Minimum eigenvalue in the overlap matrix is 8.3298346206E-06.
  Reciprocal condition number of the overlap matrix is 4.6545885310E-07.
    Using symmetric orthogonalization.

  ==> Pre-Iterations <==

  SCF Guess: Superposition of Atomic Densities via on-the-fly atomic UHF (no occupation information).

   -------------------------
    Irrep   Nso     Nmo    
   -------------------------
     A        529     529 
   -------------------------
    Total     529     529
   -------------------------

  ==> Iterations <==

                           Total Energy        Delta E     RMS |[F,P]|

   @DF-RHF iter SAD:  -416.70394219546461   -4.16704e+02   0.00000e+00 
   @DF-RHF iter   1:  -417.85911200445753   -1.15517e+00   1.62158e-03 DIIS
   @DF-RHF iter   2:  -418.10569533008049   -2.46583e-01   1.03058e-03 DIIS
   @DF-RHF iter   3:  -418.20384201995341   -9.81467e-02   1.60343e-04 DIIS
   @DF-RHF iter   4:  -418.20847338651845   -4.63137e-03   6.84135e-05 DIIS
   @DF-RHF iter   5:  -418.20941329510481   -9.39909e-04   1.47094e-05 DIIS
   @DF-RHF iter   6:  -418.20946776377190   -5.44687e-05   7.93181e-06 DIIS
   @DF-RHF iter   7:  -418.20947878730453   -1.10235e-05   1.94832e-06 DIIS
   @DF-RHF iter   8:  -418.20948041867553   -1.63137e-06   8.99227e-07 DIIS
   @DF-RHF iter   9:  -418.20948071606034   -2.97385e-07   3.43580e-07 DIIS
   @DF-RHF iter  10:  -418.20948075844223   -4.23819e-08   1.38493e-07 DIIS
   @DF-RHF iter  11:  -418.20948076300908   -4.56686e-09   4.34987e-08 DIIS
   @DF-RHF iter  12:  -418.20948076351374   -5.04656e-10   1.30282e-08 DIIS
   @DF-RHF iter  13:  -418.20948076357831   -6.45741e-11   4.22420e-09 DIIS
   @DF-RHF iter  14:  -418.20948076358883   -1.05160e-11   1.95154e-09 DIIS
   @DF-RHF iter  15:  -418.20948076359059   -1.76215e-12   8.58362e-10 DIIS
   @DF-RHF iter  16:  -418.20948076359110   -5.11591e-13   3.64751e-10 DIIS
   @DF-RHF iter  17:  -418.20948076359093    1.70530e-13   1.51789e-10 DIIS
   @DF-RHF iter  18:  -418.20948076359184   -9.09495e-13   6.28093e-11 DIIS
  Energy and wave function converged.


  ==> Post-Iterations <==

    Orbital Energies [Eh]
    ---------------------

    Doubly Occupied:                                                      

       1A    -20.400055     2A    -20.313620     3A    -20.311355  
       4A    -11.189548     5A    -11.164239     6A    -11.107915  
       7A    -11.102252     8A    -11.078119     9A     -1.230297  
      10A     -1.182997    11A     -1.084247    12A     -0.932691  
      13A     -0.864186    14A     -0.752655    15A     -0.601625  
      16A     -0.546778    17A     -0.514894    18A     -0.504532  
      19A     -0.480493    20A     -0.450565    21A     -0.441613  
      22A     -0.408537    23A     -0.398574    24A     -0.390468  
      25A     -0.378606    26A     -0.349335    27A     -0.337493  
      28A     -0.276329    29A     -0.229360    30A     -0.216418  
      31A     -0.211549  

    Virtual:                                                              

      32A      0.104064    33A      0.116797    34A      0.122852  
      35A      0.133578    36A      0.142794    37A      0.149875  
      38A      0.150628    39A      0.178641    40A      0.190268  
      41A      0.197456    42A      0.200992    43A      0.212476  
      44A      0.219871    45A      0.224926    46A      0.231499  
      47A      0.232072    48A      0.238942    49A      0.245125  
      50A      0.252342    51A      0.256746    52A      0.264360  
      53A      0.270019    54A      0.276772    55A      0.288392  
      56A      0.304869    57A      0.312154    58A      0.323382  
      59A      0.327727    60A      0.340346    61A      0.349770  
      62A      0.352022    63A      0.358073    64A      0.365711  
      65A      0.379502    66A      0.385546    67A      0.392295  
      68A      0.398955    69A      0.399650    70A      0.404515  
      71A      0.409541    72A      0.419506    73A      0.424300  
      74A      0.429067    75A      0.434784    76A      0.440994  
      77A      0.445956    78A      0.451861    79A      0.468027  
      80A      0.476276    81A      0.478638    82A      0.486621  
      83A      0.487974    84A      0.492022    85A      0.497327  
      86A      0.502492    87A      0.508062    88A      0.518364  
      89A      0.528408    90A      0.537088    91A      0.539816  
      92A      0.545973    93A      0.551308    94A      0.558580  
      95A      0.563092    96A      0.572148    97A      0.579817  
      98A      0.585100    99A      0.585393   100A      0.593840  
     101A      0.604528   102A      0.613583   103A      0.623480  
     104A      0.628976   105A      0.638383   106A      0.638734  
     107A      0.640735   108A      0.648666   109A      0.658903  
     110A      0.664824   111A      0.675605   112A      0.680754  
     113A      0.694054   114A      0.700447   115A      0.705572  
     116A      0.711047   117A      0.725066   118A      0.729451  
     119A      0.734916   120A      0.754122   121A      0.757038  
     122A      0.764198   123A      0.770059   124A      0.779745  
     125A      0.796818   126A      0.818299   127A      0.818950  
     128A      0.837114   129A      0.845088   130A      0.868485  
     131A      0.883074   132A      0.886599   133A      0.903172  
     134A      0.911803   135A      0.916522   136A      0.923538  
     137A      0.930725   138A      0.935577   139A      0.945561  
     140A      0.955092   141A      0.960761   142A      0.966475  
     143A      0.970112   144A      0.985048   145A      0.990479  
     146A      0.998340   147A      1.007468   148A      1.016151  
     149A      1.020857   150A      1.025791   151A      1.027619  
     152A      1.038008   153A      1.049125   154A      1.052590  
     155A      1.058361   156A      1.066723   157A      1.071801  
     158A      1.086733   159A      1.089743   160A      1.095260  
     161A      1.112230   162A      1.119173   163A      1.124747  
     164A      1.134347   165A      1.136890   166A      1.147075  
     167A      1.157696   168A      1.162110   169A      1.169379  
     170A      1.185773   171A      1.192091   172A      1.198319  
     173A      1.204085   174A      1.211424   175A      1.217024  
     176A      1.228238   177A      1.232253   178A      1.236897  
     179A      1.247493   180A      1.266315   181A      1.271515  
     182A      1.278409   183A      1.282879   184A      1.291052  
     185A      1.297686   186A      1.308070   187A      1.317536  
     188A      1.328658   189A      1.331509   190A      1.341223  
     191A      1.346916   192A      1.360900   193A      1.370711  
     194A      1.380788   195A      1.386848   196A      1.400400  
     197A      1.407851   198A      1.413136   199A      1.432716  
     200A      1.434400   201A      1.446185   202A      1.466316  
     203A      1.468014   204A      1.486189   205A      1.494739  
     206A      1.508308   207A      1.523347   208A      1.531449  
     209A      1.546486   210A      1.554084   211A      1.568766  
     212A      1.573264   213A      1.588275   214A      1.599565  
     215A      1.613157   216A      1.631004   217A      1.643232  
     218A      1.652961   219A      1.661591   220A      1.669335  
     221A      1.680726   222A      1.688713   223A      1.706397  
     224A      1.726024   225A      1.728390   226A      1.738206  
     227A      1.746293   228A      1.753833   229A      1.765727  
     230A      1.776742   231A      1.778241   232A      1.789534  
     233A      1.798561   234A      1.804459   235A      1.814137  
     236A      1.821954   237A      1.827569   238A      1.845332  
     239A      1.849727   240A      1.858637   241A      1.865643  
     242A      1.879533   243A      1.896351   244A      1.906172  
     245A      1.913809   246A      1.927727   247A      1.938779  
     248A      1.942073   249A      1.966732   250A      1.982012  
     251A      1.992100   252A      2.008104   253A      2.019574  
     254A      2.027525   255A      2.042094   256A      2.054186  
     257A      2.062143   258A      2.080064   259A      2.092890  
     260A      2.097978   261A      2.100047   262A      2.118645  
     263A      2.137839   264A      2.141704   265A      2.161014  
     266A      2.164649   267A      2.190015   268A      2.203862  
     269A      2.204341   270A      2.212343   271A      2.243766  
     272A      2.259991   273A      2.276392   274A      2.297203  
     275A      2.306737   276A      2.316979   277A      2.327938  
     278A      2.338193   279A      2.362473   280A      2.368420  
     281A      2.377295   282A      2.380875   283A      2.403603  
     284A      2.418382   285A      2.427854   286A      2.440208  
     287A      2.456772   288A      2.477382   289A      2.525891  
     290A      2.546296   291A      2.551870   292A      2.583527  
     293A      2.603686   294A      2.609654   295A      2.619354  
     296A      2.644042   297A      2.658371   298A      2.676506  
     299A      2.697499   300A      2.706012   301A      2.723833  
     302A      2.752130   303A      2.762178   304A      2.782333  
     305A      2.789329   306A      2.795419   307A      2.803788  
     308A      2.834750   309A      2.846611   310A      2.858660  
     311A      2.865233   312A      2.886074   313A      2.889109  
     314A      2.920499   315A      2.927018   316A      2.957186  
     317A      2.973283   318A      2.992856   319A      3.014770  
     320A      3.050535   321A      3.074692   322A      3.080031  
     323A      3.116455   324A      3.153336   325A      3.169636  
     326A      3.196188   327A      3.214501   328A      3.246213  
     329A      3.253768   330A      3.275435   331A      3.308830  
     332A      3.330189   333A      3.338379   334A      3.361720  
     335A      3.380944   336A      3.444839   337A      3.468830  
     338A      3.514213   339A      3.528055   340A      3.544224  
     341A      3.551592   342A      3.570268   343A      3.586532  
     344A      3.600274   345A      3.626284   346A      3.631879  
     347A      3.649566   348A      3.696631   349A      3.704092  
     350A      3.718856   351A      3.724656   352A      3.733743  
     353A      3.764069   354A      3.787992   355A      3.810344  
     356A      3.817559   357A      3.836691   358A      3.842263  
     359A      3.853500   360A      3.863778   361A      3.893131  
     362A      3.903419   363A      3.914423   364A      3.919092  
     365A      3.934001   366A      3.971608   367A      3.983761  
     368A      3.990167   369A      3.997064   370A      4.004113  
     371A      4.028760   372A      4.045031   373A      4.071687  
     374A      4.088125   375A      4.091484   376A      4.096460  
     377A      4.115194   378A      4.147471   379A      4.154530  
     380A      4.175663   381A      4.178469   382A      4.201498  
     383A      4.203043   384A      4.248040   385A      4.258173  
     386A      4.275810   387A      4.294699   388A      4.310562  
     389A      4.322900   390A      4.329548   391A      4.348676  
     392A      4.364950   393A      4.381104   394A      4.388650  
     395A      4.406663   396A      4.417889   397A      4.438932  
     398A      4.451141   399A      4.454479   400A      4.469878  
     401A      4.495620   402A      4.543412   403A      4.568753  
     404A      4.572577   405A      4.602172   406A      4.609050  
     407A      4.615445   408A      4.653790   409A      4.691731  
     410A      4.700703   411A      4.732180   412A      4.747948  
     413A      4.763156   414A      4.778316   415A      4.789751  
     416A      4.804427   417A      4.820980   418A      4.847390  
     419A      4.874689   420A      4.904177   421A      4.921302  
     422A      4.929431   423A      4.962059   424A      4.981059  
     425A      4.989278   426A      4.998010   427A      5.008044  
     428A      5.038562   429A      5.081502   430A      5.097867  
     431A      5.108445   432A      5.143141   433A      5.151356  
     434A      5.163863   435A      5.190723   436A      5.241610  
     437A      5.251252   438A      5.283733   439A      5.305437  
     440A      5.315836   441A      5.330631   442A      5.357137  
     443A      5.358221   444A      5.395567   445A      5.425058  
     446A      5.440684   447A      5.473964   448A      5.509082  
     449A      5.532795   450A      5.552478   451A      5.560880  
     452A      5.598798   453A      5.604942   454A      5.636999  
     455A      5.672473   456A      5.681762   457A      5.707912  
     458A      5.718932   459A      5.762975   460A      5.777334  
     461A      5.810469   462A      5.862688   463A      5.888752  
     464A      5.919644   465A      5.973077   466A      5.990152  
     467A      6.037022   468A      6.116007   469A      6.149285  
     470A      6.202337   471A      6.227556   472A      6.260678  
     473A      6.296953   474A      6.320831   475A      6.336259  
     476A      6.371174   477A      6.401138   478A      6.528881  
     479A      6.583751   480A      6.688964   481A      6.692812  
     482A      6.862634   483A      6.891088   484A      6.908753  
     485A      6.916152   486A      6.923743   487A      6.952726  
     488A      6.995085   489A      7.018873   490A      7.038339  
     491A      7.057283   492A      7.140189   493A      7.161468  
     494A      7.190623   495A      7.233015   496A      7.256478  
     497A      7.281933   498A      7.314480   499A      7.363725  
     500A      7.418606   501A      7.436477   502A      7.534556  
     503A      7.568711   504A      7.579741   505A      7.593633  
     506A      7.632638   507A      7.652739   508A      7.667945  
     509A      7.748021   510A      7.772765   511A      7.862228  
     512A      7.893860   513A      7.912513   514A      7.937149  
     515A      7.962639   516A      8.048398   517A      8.078820  
     518A      8.141314   519A      8.153645   520A      8.175341  
     521A      8.292096   522A     14.466055   523A     15.189575  
     524A     15.997278   525A     16.982359   526A     17.697488  
     527A     18.588157   528A     18.723218   529A     20.589785  

    Final Occupation by Irrep:
              A 
    DOCC [    31 ]

  @DF-RHF Final Energy:  -418.20948076359184

   => Energetics <=

    Nuclear Repulsion Energy =            362.6764202471667318
    One-Electron Energy =               -1302.8691049843309884
    Two-Electron Energy =                 521.9832039735723583
    Total Energy =                       -418.2094807635918414

Computation Completed

*** tstop() called on c445-113.stampede2.tacc.utexas.edu at Sat Mar 20 17:54:04 2021
Module time:
	user time   =     387.49 seconds =       6.46 minutes
	system time =      33.48 seconds =       0.56 minutes
	total time  =         24 seconds =       0.40 minutes
Total time:
	user time   =     387.49 seconds =       6.46 minutes
	system time =      33.48 seconds =       0.56 minutes
	total time  =         24 seconds =       0.40 minutes
   => Loading Basis Set <=

    Name: (AUG-CC-PVTZ AUX)
    Role: RIFIT
    Keyword: DF_BASIS_MP2
    atoms 1-3  entry O          line   264 file /home1/07844/xy3866/miniconda3/envs/p4env/share/psi4/basis/aug-cc-pvtz-ri.gbs 
    atoms 4-8  entry C          line   148 file /home1/07844/xy3866/miniconda3/envs/p4env/share/psi4/basis/aug-cc-pvtz-ri.gbs 
    atoms 9-15 entry H          line    30 file /home1/07844/xy3866/miniconda3/envs/p4env/share/psi4/basis/aug-cc-pvtz-ri.gbs 


*** tstart() called on c445-113.stampede2.tacc.utexas.edu
*** at Sat Mar 20 17:54:05 2021


  //>>>>>>>>>>>>>>>>>>>>>>>>>>>>>>>>>>>//
  //               DFMP2               //
  //<<<<<<<<<<<<<<<<<<<<<<<<<<<<<<<<<<<//

	 --------------------------------------------------------
	                          DF-MP2                         
	      2nd-Order Density-Fitted Moller-Plesset Theory     
	              RMP2 Wavefunction,  32 Threads             
	                                                         
	        Rob Parrish, Justin Turney, Andy Simmonett,      
	           Ed Hohenstein, and C. David Sherrill          
	 --------------------------------------------------------

   => Auxiliary Basis Set <=

  Basis Set: (AUG-CC-PVTZ AUX)
    Blend: AUG-CC-PVTZ-RI
    Number of shells: 322
    Number of basis functions: 1170
    Number of Cartesian functions: 1473
    Spherical Harmonics?: true
    Max angular momentum: 4

	 --------------------------------------------------------
	                 NBF =   529, NAUX =  1170
	 --------------------------------------------------------
	   CLASS    FOCC     OCC    AOCC    AVIR     VIR    FVIR
	   PAIRS       0      31      31     498     498       0
	 --------------------------------------------------------

  DFHelper Memory: AOs need 2.439 GiB; user supplied 22.352 GiB. Using in-core AOs.


         ------------------------------------------------------------
                                     CPHF                           
                                  Rob Parrish                       
         ------------------------------------------------------------

  ==> Geometry <==

    Molecular point group: c1
    Full point group: C1

    Geometry (in Angstrom), charge = -1, multiplicity = 1:

       Center              X                  Y                   Z               Mass       
    ------------   -----------------  -----------------  -----------------  -----------------
         O            1.158049472752     1.331594995205    -0.840329635225    15.994914619570
         O           -1.039580527248    -1.113763004795    -0.782861635225    15.994914619570
         O           -2.837188527248    -0.191528004795     0.267239364775    15.994914619570
         C            1.557360472752    -0.380722004795     0.795396364775    12.000000000000
         C            0.712183472752     0.660401995205     0.094735364775    12.000000000000
         C           -0.696327527248     0.829498995205     0.587619364775    12.000000000000
         C            2.803731472752    -0.771526004795     0.015941364775    12.000000000000
         C           -1.616745527248    -0.266925004795    -0.036914635225    12.000000000000
         H            1.824947472752     0.032956995205     1.778596364775     1.007825032230
         H            0.919085472752    -1.247388004795     0.990726364775     1.007825032230
         H           -0.745081827248     0.749946795205     1.660173564775     1.007825032230
         H           -1.068884527248     1.818195995205     0.301353364775     1.007825032230
         H            2.528158472752    -1.198777004795    -0.951823635225     1.007825032230
         H            3.435662472752     0.099283995205    -0.170161635225     1.007825032230
         H            3.388908472752    -1.513828004795     0.565472364775     1.007825032230

  Nuclear repulsion =  362.676420247166732
  Reference energy  = -418.209480763591841

  ==> Basis Set <==

  Basis Set: AUG-CC-PVTZ
    Blend: AUG-CC-PVTZ
    Number of shells: 175
    Number of basis functions: 529
    Number of Cartesian functions: 615
    Spherical Harmonics?: true
    Max angular momentum: 3

  ==> CGRSolver (by Rob Parrish) <==

   Number of roots    =         1
   Preconditioning    =    JACOBI
   Convergence cutoff =     1E-06
   Maximum iterations =       100

  ==> CPHFRHamiltonian (by Rob Parrish) <== 

  ==> MemDFJK: Density-Fitted J/K Matrices <==

    J tasked:                   Yes
    K tasked:                   Yes
    wK tasked:                   No
    OpenMP threads:              32
    Memory [MiB]:             22888
    Algorithm:                 Core
    Schwarz Cutoff:           1E-12
    Mask sparsity (%):       4.1416
    Fitting Condition:        1E-10

   => Auxiliary Basis Set <=

  Basis Set: (AUG-CC-PVTZ AUX)
    Blend: AUG-CC-PVTZ-JKFIT
    Number of shells: 338
    Number of basis functions: 1154
    Number of Cartesian functions: 1433
    Spherical Harmonics?: true
    Max angular momentum: 4

  ==> CPHF Iterations <==

  => Iterations <=

             Iter  Converged  Remaining    Residual
  CGR           1          0          1   1.221E-01
  CGR           2          0          1   3.518E-02
  CGR           3          0          1   1.357E-02
  CGR           4          0          1   4.934E-03
  CGR           5          0          1   2.171E-03
  CGR           6          0          1   7.845E-04
  CGR           7          0          1   3.028E-04
  CGR           8          0          1   1.408E-04
  CGR           9          0          1   6.897E-05
  CGR          10          0          1   2.646E-05
  CGR          11          0          1   9.278E-06
  CGR          12          0          1   3.786E-06
  CGR          13          0          1   1.215E-06
  CGR          14          1          0   2.981E-07

    CGRSolver converged.

	-----------------------------------------------------------
	 ==================> DF-MP2 Energies <==================== 
	-----------------------------------------------------------
	 Reference Energy          =    -418.2094807635918414 [Eh]
	 Singles Energy            =      -0.0000000000000000 [Eh]
	 Same-Spin Energy          =      -0.4167098468503304 [Eh]
	 Opposite-Spin Energy      =      -1.2921164167901429 [Eh]
	 Correlation Energy        =      -1.7088262636404732 [Eh]
	 Total Energy              =    -419.9183070272322880 [Eh]
	-----------------------------------------------------------
	 ================> DF-SCS-MP2 Energies <================== 
	-----------------------------------------------------------
	 SCS Same-Spin Scale       =       0.3333333333333333 [-]
	 SCS Opposite-Spin Scale   =       1.2000000000000000 [-]
	 SCS Same-Spin Energy      =      -0.1389032822834435 [Eh]
	 SCS Opposite-Spin Energy  =      -1.5505397001481713 [Eh]
	 SCS Correlation Energy    =      -1.6894429824316148 [Eh]
	 SCS Total Energy          =    -419.8989237460234563 [Eh]
	-----------------------------------------------------------



Properties will be evaluated at  -0.000000,   0.000000,   0.000000 [a0]

Properties computed using the MP2 density matrix

  Nuclear Dipole Moment: [e a0]
     X:     9.6267      Y:    -1.1807      Z:     3.9068

  Electronic Dipole Moment: [e a0]
     X:    -6.9765      Y:     1.6767      Z:    -2.6459

  Dipole Moment: [e a0]
     X:     2.6502      Y:     0.4960      Z:     1.2609     Total:     2.9765

  Dipole Moment: [D]
     X:     6.7362      Y:     1.2606      Z:     3.2048     Total:     7.5655


*** tstop() called on c445-113.stampede2.tacc.utexas.edu at Sat Mar 20 17:56:13 2021
Module time:
	user time   =    1008.93 seconds =      16.82 minutes
	system time =      44.62 seconds =       0.74 minutes
	total time  =        128 seconds =       2.13 minutes
Total time:
	user time   =    1397.18 seconds =      23.29 minutes
	system time =      78.12 seconds =       1.30 minutes
	total time  =        153 seconds =       2.55 minutes

    Psi4 stopped on: Saturday, 20 March 2021 05:56PM
    Psi4 wall time for execution: 0:02:33.56

*** Psi4 exiting successfully. Buy a developer a beer!
