
    -----------------------------------------------------------------------
          Psi4: An Open-Source Ab Initio Electronic Structure Package
                               Psi4 1.3.2 release

                         Git: Rev {HEAD} ecbda83 


    R. M. Parrish, L. A. Burns, D. G. A. Smith, A. C. Simmonett,
    A. E. DePrince III, E. G. Hohenstein, U. Bozkaya, A. Yu. Sokolov,
    R. Di Remigio, R. M. Richard, J. F. Gonthier, A. M. James,
    H. R. McAlexander, A. Kumar, M. Saitow, X. Wang, B. P. Pritchard,
    P. Verma, H. F. Schaefer III, K. Patkowski, R. A. King, E. F. Valeev,
    F. A. Evangelista, J. M. Turney, T. D. Crawford, and C. D. Sherrill,
    J. Chem. Theory Comput. 13(7) pp 3185--3197 (2017).
    (doi: 10.1021/acs.jctc.7b00174)


                         Additional Contributions by
    P. Kraus, H. Kruse, M. H. Lechner, M. C. Schieber, R. A. Shaw,
    A. Alenaizan, R. Galvelis, Z. L. Glick, S. Lehtola, and J. P. Misiewicz

    -----------------------------------------------------------------------


    Psi4 started on: Tuesday, 03 November 2020 01:58AM

    Process ID: 126154
    Host:       node94.bme.utexas.edu
    PSIDATADIR: /home/xy3866/psi4conda/share/psi4
    Memory:     500.0 MiB
    Threads:    8
    
  ==> Input File <==

--------------------------------------------------------------------------
#psi4
#
memory 32 gb

molecule  {
-1 1
  O        0.5632720    -1.1719080    -0.3765930
  O       -2.2732017    -0.5726661     1.0665679
  O       -2.5032960     0.1554020    -1.0563790
  C        1.9927080     0.6815170     0.1510220
  C        0.6435570     0.0091630    -0.0366810
  C       -0.5847485     0.8985732     0.1179866
  C        3.1729130    -0.2631210    -0.0329300
  C       -1.9010600     0.0931950     0.0560670
  H        2.0429660     1.5133360    -0.5640360
  H        2.0060190     1.1470430     1.1438410
  H       -0.4967450     1.3515110     1.1569670
  H       -0.5352790     1.6874700    -0.5756840
  H        3.1399490    -1.0742180     0.6982180
  H        3.1613950    -0.7098910    -1.0291440
  H        4.1160350     0.2752530     0.0934100
units angstrom
no_reorient  #important for SAPT in psi4, default
symmetry c1  #important for SAPT in psi4, default
}

set PROPERTIES_ORIGIN ["COM"]
properties('MP2/aug-cc-pvtz', properties = ['dipole'])
--------------------------------------------------------------------------

  Memory set to  29.802 GiB by Python driver.
    SCF Algorithm Type (re)set to DF.

*** tstart() called on node94.bme.utexas.edu
*** at Tue Nov  3 01:58:45 2020

   => Loading Basis Set <=

    Name: AUG-CC-PVTZ
    Role: ORBITAL
    Keyword: BASIS
    atoms 1-3  entry O          line   327 file /home/xy3866/psi4conda/share/psi4/basis/aug-cc-pvtz.gbs 
    atoms 4-8  entry C          line   235 file /home/xy3866/psi4conda/share/psi4/basis/aug-cc-pvtz.gbs 
    atoms 9-15 entry H          line    36 file /home/xy3866/psi4conda/share/psi4/basis/aug-cc-pvtz.gbs 


         ---------------------------------------------------------
                                   SCF
               by Justin Turney, Rob Parrish, Andy Simmonett
                          and Daniel G. A. Smith
                              RHF Reference
                        8 Threads,  30517 MiB Core
         ---------------------------------------------------------

  ==> Geometry <==

    Molecular point group: c1
    Full point group: C1

    Geometry (in Angstrom), charge = -1, multiplicity = 1:

       Center              X                  Y                   Z               Mass       
    ------------   -----------------  -----------------  -----------------  -----------------
         O            0.684711026451    -1.135716516764    -0.360387889531    15.994914619570
         O           -2.151762673549    -0.536474616764     1.082773010469    15.994914619570
         O           -2.381856973549     0.191593483236    -1.040173889531    15.994914619570
         C            2.114147026451     0.717708483236     0.167227110469    12.000000000000
         C            0.764996026451     0.045354483236    -0.020475889531    12.000000000000
         C           -0.463309473549     0.934764683236     0.134191710469    12.000000000000
         C            3.294352026451    -0.226929516764    -0.016724889531    12.000000000000
         C           -1.779620973549     0.129386483236     0.072272110469    12.000000000000
         H            2.164405026451     1.549527483236    -0.547830889531     1.007825032230
         H            2.127458026451     1.183234483236     1.160046110469     1.007825032230
         H           -0.375305973549     1.387702483236     1.173172110469     1.007825032230
         H           -0.413839973549     1.723661483236    -0.559478889531     1.007825032230
         H            3.261388026451    -1.038026516764     0.714423110469     1.007825032230
         H            3.282834026451    -0.673699516764    -1.012938889531     1.007825032230
         H            4.237474026451     0.311444483236     0.109615110469     1.007825032230

  Running in c1 symmetry.

  Rotational constants: A =      0.17305  B =      0.03396  C =      0.03325 [cm^-1]
  Rotational constants: A =   5187.76045  B =   1017.96783  C =    996.69464 [MHz]
  Nuclear repulsion =  356.352922639182054

  Charge       = -1
  Multiplicity = 1
  Electrons    = 62
  Nalpha       = 31
  Nbeta        = 31

  ==> Algorithm <==

  SCF Algorithm Type is DF.
  DIIS enabled.
  MOM disabled.
  Fractional occupation disabled.
  Guess Type is SAD.
  Energy threshold   = 1.00e-10
  Density threshold  = 1.00e-10
  Integral threshold = 0.00e+00

  ==> Primary Basis <==

  Basis Set: AUG-CC-PVTZ
    Blend: AUG-CC-PVTZ
    Number of shells: 175
    Number of basis function: 529
    Number of Cartesian functions: 615
    Spherical Harmonics?: true
    Max angular momentum: 3

   => Loading Basis Set <=

    Name: (AUG-CC-PVTZ AUX)
    Role: JKFIT
    Keyword: DF_BASIS_SCF
    atoms 1-3  entry O          line   286 file /home/xy3866/psi4conda/share/psi4/basis/aug-cc-pvtz-jkfit.gbs 
    atoms 4-8  entry C          line   162 file /home/xy3866/psi4conda/share/psi4/basis/aug-cc-pvtz-jkfit.gbs 
    atoms 9-15 entry H          line    70 file /home/xy3866/psi4conda/share/psi4/basis/aug-cc-pvtz-jkfit.gbs 

  ==> Pre-Iterations <==

   -------------------------------------------------------
    Irrep   Nso     Nmo     Nalpha   Nbeta   Ndocc  Nsocc
   -------------------------------------------------------
     A        529     529       0       0       0       0
   -------------------------------------------------------
    Total     529     529      31      31      31       0
   -------------------------------------------------------

  ==> Integral Setup <==

  DFHelper Memory: AOs need 2.354 GiB; user supplied 22.352 GiB. Using in-core AOs.

  ==> MemDFJK: Density-Fitted J/K Matrices <==

    J tasked:                   Yes
    K tasked:                   Yes
    wK tasked:                   No
    OpenMP threads:               8
    Memory [MiB]:             22888
    Algorithm:                 Disk
    Schwarz Cutoff:           1E-12
    Mask sparsity (%):       5.6039
    Fitting Condition:        1E-10

   => Auxiliary Basis Set <=

  Basis Set: (AUG-CC-PVTZ AUX)
    Blend: AUG-CC-PVTZ-JKFIT
    Number of shells: 338
    Number of basis function: 1154
    Number of Cartesian functions: 1433
    Spherical Harmonics?: true
    Max angular momentum: 4

  Minimum eigenvalue in the overlap matrix is 7.4552896673E-06.
  Using Symmetric Orthogonalization.

  SCF Guess: Superposition of Atomic Densities via on-the-fly atomic UHF.

  ==> Iterations <==

                           Total Energy        Delta E     RMS |[F,P]|

   @DF-RHF iter SAD:  -416.63020542170506   -4.16630e+02   0.00000e+00 
   @DF-RHF iter   1:  -417.82814094399822   -1.19794e+00   1.64331e-03 DIIS
   @DF-RHF iter   2:  -418.07738082577868   -2.49240e-01   1.08162e-03 DIIS
   @DF-RHF iter   3:  -418.18538988141171   -1.08009e-01   1.66446e-04 DIIS
   @DF-RHF iter   4:  -418.19032264707306   -4.93277e-03   7.08999e-05 DIIS
   @DF-RHF iter   5:  -418.19132014053929   -9.97493e-04   1.61028e-05 DIIS
   @DF-RHF iter   6:  -418.19138356671715   -6.34262e-05   9.02223e-06 DIIS
   @DF-RHF iter   7:  -418.19139825624325   -1.46895e-05   2.47122e-06 DIIS
   @DF-RHF iter   8:  -418.19140085539772   -2.59915e-06   1.04756e-06 DIIS
   @DF-RHF iter   9:  -418.19140130501415   -4.49616e-07   2.93622e-07 DIIS
   @DF-RHF iter  10:  -418.19140133687034   -3.18562e-08   9.11547e-08 DIIS
   @DF-RHF iter  11:  -418.19140133898213   -2.11179e-09   3.72903e-08 DIIS
   @DF-RHF iter  12:  -418.19140133920212   -2.19984e-10   1.15265e-08 DIIS
   @DF-RHF iter  13:  -418.19140133923543   -3.33102e-11   2.75229e-09 DIIS
   @DF-RHF iter  14:  -418.19140133923719   -1.76215e-12   1.00053e-09 DIIS
   @DF-RHF iter  15:  -418.19140133923878   -1.59162e-12   3.40746e-10 DIIS
   @DF-RHF iter  16:  -418.19140133923787    9.09495e-13   1.66657e-10 DIIS
   @DF-RHF iter  17:  -418.19140133923997   -2.10321e-12   8.59091e-11 DIIS
  Energy and wave function converged.


  ==> Post-Iterations <==

    Orbital Energies [Eh]
    ---------------------

    Doubly Occupied:                                                      

       1A    -20.411608     2A    -20.294367     3A    -20.292670  
       4A    -11.201711     5A    -11.145267     6A    -11.131316  
       7A    -11.121579     8A    -11.085438     9A     -1.240537  
      10A     -1.163599    11A     -1.060179    12A     -0.950557  
      13A     -0.868898    14A     -0.768265    15A     -0.612280  
      16A     -0.540131    17A     -0.531205    18A     -0.526362  
      19A     -0.474716    20A     -0.454079    21A     -0.439270  
      22A     -0.411443    23A     -0.408432    24A     -0.403390  
      25A     -0.375800    26A     -0.349634    27A     -0.333705  
      28A     -0.280381    29A     -0.209609    30A     -0.205562  
      31A     -0.190003  

    Virtual:                                                              

      32A      0.094432    33A      0.113533    34A      0.117489  
      35A      0.126314    36A      0.135026    37A      0.144654  
      38A      0.152934    39A      0.174468    40A      0.185232  
      41A      0.196909    42A      0.199874    43A      0.208800  
      44A      0.213605    45A      0.221061    46A      0.227689  
      47A      0.230362    48A      0.234417    49A      0.240397  
      50A      0.248830    51A      0.259301    52A      0.260900  
      53A      0.278813    54A      0.281767    55A      0.290181  
      56A      0.294444    57A      0.318325    58A      0.320944  
      59A      0.327408    60A      0.334256    61A      0.344106  
      62A      0.348212    63A      0.353220    64A      0.368898  
      65A      0.374842    66A      0.375441    67A      0.382975  
      68A      0.387582    69A      0.391124    70A      0.397194  
      71A      0.403425    72A      0.412804    73A      0.422509  
      74A      0.429404    75A      0.431730    76A      0.437185  
      77A      0.443835    78A      0.449570    79A      0.454477  
      80A      0.458405    81A      0.464912    82A      0.469830  
      83A      0.476306    84A      0.482494    85A      0.498043  
      86A      0.506121    87A      0.511927    88A      0.520088  
      89A      0.522533    90A      0.523721    91A      0.529454  
      92A      0.537316    93A      0.547876    94A      0.552266  
      95A      0.555888    96A      0.558482    97A      0.567285  
      98A      0.571312    99A      0.580199   100A      0.588104  
     101A      0.589131   102A      0.597701   103A      0.606237  
     104A      0.610827   105A      0.618037   106A      0.624495  
     107A      0.630652   108A      0.635975   109A      0.652048  
     110A      0.659977   111A      0.663349   112A      0.670000  
     113A      0.680764   114A      0.686438   115A      0.690837  
     116A      0.710199   117A      0.721294   118A      0.732674  
     119A      0.738780   120A      0.745042   121A      0.750242  
     122A      0.756667   123A      0.769806   124A      0.778853  
     125A      0.791452   126A      0.808581   127A      0.816905  
     128A      0.834263   129A      0.842847   130A      0.851060  
     131A      0.866990   132A      0.885667   133A      0.889902  
     134A      0.894349   135A      0.901637   136A      0.919553  
     137A      0.924419   138A      0.934890   139A      0.940350  
     140A      0.948093   141A      0.961200   142A      0.967216  
     143A      0.972280   144A      0.982965   145A      0.990068  
     146A      0.991140   147A      0.995817   148A      1.004249  
     149A      1.018049   150A      1.020658   151A      1.022614  
     152A      1.030303   153A      1.033349   154A      1.038529  
     155A      1.043046   156A      1.055533   157A      1.063514  
     158A      1.070374   159A      1.073361   160A      1.078466  
     161A      1.082363   162A      1.091144   163A      1.110745  
     164A      1.125466   165A      1.137766   166A      1.145541  
     167A      1.149299   168A      1.152669   169A      1.158050  
     170A      1.165835   171A      1.181731   172A      1.185174  
     173A      1.191101   174A      1.195264   175A      1.202800  
     176A      1.213863   177A      1.223089   178A      1.223633  
     179A      1.230657   180A      1.247799   181A      1.261251  
     182A      1.266763   183A      1.279372   184A      1.282697  
     185A      1.291738   186A      1.296773   187A      1.301611  
     188A      1.310804   189A      1.315363   190A      1.327227  
     191A      1.331884   192A      1.338545   193A      1.361156  
     194A      1.369068   195A      1.376286   196A      1.382527  
     197A      1.389097   198A      1.395031   199A      1.404383  
     200A      1.413996   201A      1.423606   202A      1.438998  
     203A      1.452909   204A      1.466987   205A      1.474816  
     206A      1.492281   207A      1.505685   208A      1.512850  
     209A      1.542973   210A      1.545261   211A      1.559065  
     212A      1.569742   213A      1.587456   214A      1.598244  
     215A      1.615690   216A      1.619557   217A      1.628795  
     218A      1.639091   219A      1.646358   220A      1.659317  
     221A      1.667647   222A      1.671277   223A      1.674018  
     224A      1.696519   225A      1.706764   226A      1.709702  
     227A      1.722628   228A      1.736039   229A      1.746618  
     230A      1.756686   231A      1.762415   232A      1.775529  
     233A      1.783507   234A      1.797493   235A      1.801181  
     236A      1.806032   237A      1.814043   238A      1.823442  
     239A      1.827279   240A      1.833060   241A      1.848282  
     242A      1.852482   243A      1.875138   244A      1.886586  
     245A      1.906109   246A      1.921897   247A      1.928073  
     248A      1.935287   249A      1.949344   250A      1.959009  
     251A      1.970874   252A      1.973434   253A      1.987320  
     254A      2.006103   255A      2.011876   256A      2.015890  
     257A      2.036170   258A      2.048362   259A      2.060784  
     260A      2.067810   261A      2.081960   262A      2.098839  
     263A      2.109166   264A      2.123383   265A      2.138133  
     266A      2.147588   267A      2.172530   268A      2.179786  
     269A      2.187233   270A      2.233567   271A      2.239586  
     272A      2.244378   273A      2.264037   274A      2.282112  
     275A      2.298866   276A      2.330003   277A      2.340284  
     278A      2.347904   279A      2.357842   280A      2.360112  
     281A      2.365008   282A      2.377124   283A      2.388135  
     284A      2.401952   285A      2.417410   286A      2.430830  
     287A      2.458634   288A      2.476840   289A      2.496667  
     290A      2.514285   291A      2.530357   292A      2.539451  
     293A      2.561805   294A      2.579014   295A      2.589097  
     296A      2.636810   297A      2.656409   298A      2.686674  
     299A      2.699297   300A      2.721711   301A      2.724360  
     302A      2.735750   303A      2.756197   304A      2.767258  
     305A      2.783978   306A      2.797234   307A      2.815654  
     308A      2.824909   309A      2.842893   310A      2.857566  
     311A      2.869085   312A      2.886023   313A      2.893732  
     314A      2.914462   315A      2.933967   316A      2.946532  
     317A      2.993615   318A      3.014445   319A      3.020545  
     320A      3.041866   321A      3.053840   322A      3.060649  
     323A      3.109501   324A      3.125218   325A      3.170022  
     326A      3.192454   327A      3.223709   328A      3.241567  
     329A      3.248113   330A      3.253403   331A      3.264683  
     332A      3.281002   333A      3.317488   334A      3.355690  
     335A      3.394188   336A      3.415931   337A      3.434826  
     338A      3.439329   339A      3.475166   340A      3.502003  
     341A      3.536045   342A      3.550854   343A      3.575813  
     344A      3.590796   345A      3.598038   346A      3.634803  
     347A      3.646742   348A      3.658915   349A      3.679397  
     350A      3.691470   351A      3.724722   352A      3.737211  
     353A      3.762178   354A      3.763680   355A      3.789517  
     356A      3.808147   357A      3.814786   358A      3.818566  
     359A      3.835708   360A      3.843162   361A      3.860078  
     362A      3.875426   363A      3.879536   364A      3.887083  
     365A      3.906021   366A      3.918950   367A      3.952062  
     368A      3.968926   369A      3.974510   370A      3.994778  
     371A      4.028368   372A      4.033558   373A      4.041143  
     374A      4.058973   375A      4.065538   376A      4.080397  
     377A      4.116805   378A      4.143557   379A      4.152202  
     380A      4.160855   381A      4.175824   382A      4.190029  
     383A      4.197482   384A      4.209385   385A      4.237041  
     386A      4.251899   387A      4.275891   388A      4.280607  
     389A      4.300064   390A      4.315576   391A      4.332962  
     392A      4.351670   393A      4.354248   394A      4.379956  
     395A      4.389520   396A      4.411471   397A      4.424492  
     398A      4.442870   399A      4.456371   400A      4.493650  
     401A      4.505618   402A      4.535024   403A      4.547216  
     404A      4.555899   405A      4.571515   406A      4.586712  
     407A      4.610246   408A      4.644935   409A      4.655983  
     410A      4.676169   411A      4.689956   412A      4.699775  
     413A      4.736878   414A      4.749035   415A      4.766451  
     416A      4.785871   417A      4.803977   418A      4.807103  
     419A      4.835131   420A      4.865143   421A      4.878605  
     422A      4.905442   423A      4.929571   424A      4.950372  
     425A      4.958404   426A      4.968884   427A      5.000257  
     428A      5.031840   429A      5.038129   430A      5.058670  
     431A      5.084880   432A      5.123200   433A      5.177899  
     434A      5.184698   435A      5.212765   436A      5.233857  
     437A      5.244178   438A      5.269875   439A      5.288571  
     440A      5.298275   441A      5.313036   442A      5.326255  
     443A      5.357470   444A      5.389962   445A      5.401266  
     446A      5.429806   447A      5.455811   448A      5.473010  
     449A      5.475224   450A      5.501440   451A      5.503516  
     452A      5.536299   453A      5.584419   454A      5.598669  
     455A      5.605001   456A      5.628712   457A      5.665597  
     458A      5.715315   459A      5.737623   460A      5.765553  
     461A      5.805638   462A      5.814009   463A      5.854967  
     464A      5.862650   465A      5.945603   466A      5.958002  
     467A      6.061681   468A      6.101620   469A      6.124574  
     470A      6.182793   471A      6.204737   472A      6.229426  
     473A      6.303481   474A      6.320863   475A      6.339152  
     476A      6.362037   477A      6.410132   478A      6.527641  
     479A      6.588193   480A      6.614076   481A      6.628583  
     482A      6.839640   483A      6.895614   484A      6.900832  
     485A      6.919294   486A      6.933244   487A      6.945030  
     488A      6.952014   489A      6.973308   490A      6.989850  
     491A      7.011277   492A      7.145126   493A      7.168554  
     494A      7.175546   495A      7.233133   496A      7.264356  
     497A      7.283452   498A      7.321675   499A      7.377546  
     500A      7.389279   501A      7.435760   502A      7.554196  
     503A      7.562012   504A      7.580723   505A      7.602863  
     506A      7.633971   507A      7.652988   508A      7.663691  
     509A      7.740349   510A      7.752630   511A      7.838279  
     512A      7.880811   513A      7.912617   514A      7.931338  
     515A      7.955805   516A      8.056423   517A      8.066129  
     518A      8.124908   519A      8.145932   520A      8.183924  
     521A      8.285415   522A     14.548311   523A     15.321199  
     524A     15.647939   525A     16.730578   526A     17.455285  
     527A     18.240047   528A     18.738572   529A     20.278514  

    Final Occupation by Irrep:
              A 
    DOCC [    31 ]

  @DF-RHF Final Energy:  -418.19140133923997

   => Energetics <=

    Nuclear Repulsion Energy =            356.3529226391820544
    One-Electron Energy =               -1290.1246616430203176
    Two-Electron Energy =                 515.5803376645983462
    Total Energy =                       -418.1914013392399738

Computation Completed

*** tstop() called on node94.bme.utexas.edu at Tue Nov  3 01:59:22 2020
Module time:
	user time   =     163.14 seconds =       2.72 minutes
	system time =      21.70 seconds =       0.36 minutes
	total time  =         37 seconds =       0.62 minutes
Total time:
	user time   =     163.14 seconds =       2.72 minutes
	system time =      21.70 seconds =       0.36 minutes
	total time  =         37 seconds =       0.62 minutes
   => Loading Basis Set <=

    Name: (AUG-CC-PVTZ AUX)
    Role: RIFIT
    Keyword: DF_BASIS_MP2
    atoms 1-3  entry O          line   264 file /home/xy3866/psi4conda/share/psi4/basis/aug-cc-pvtz-ri.gbs 
    atoms 4-8  entry C          line   148 file /home/xy3866/psi4conda/share/psi4/basis/aug-cc-pvtz-ri.gbs 
    atoms 9-15 entry H          line    30 file /home/xy3866/psi4conda/share/psi4/basis/aug-cc-pvtz-ri.gbs 


*** tstart() called on node94.bme.utexas.edu
*** at Tue Nov  3 01:59:22 2020


  //>>>>>>>>>>>>>>>>>>>>>>>>>>>>>>>>>>>//
  //               DFMP2               //
  //<<<<<<<<<<<<<<<<<<<<<<<<<<<<<<<<<<<//

	 --------------------------------------------------------
	                          DF-MP2                         
	      2nd-Order Density-Fitted Moller-Plesset Theory     
	              RMP2 Wavefunction,   8 Threads             
	                                                         
	        Rob Parrish, Justin Turney, Andy Simmonett,      
	           Ed Hohenstein, and C. David Sherrill          
	 --------------------------------------------------------

   => Auxiliary Basis Set <=

  Basis Set: (AUG-CC-PVTZ AUX)
    Blend: AUG-CC-PVTZ-RI
    Number of shells: 322
    Number of basis function: 1170
    Number of Cartesian functions: 1473
    Spherical Harmonics?: true
    Max angular momentum: 4

	 --------------------------------------------------------
	                 NBF =   529, NAUX =  1170
	 --------------------------------------------------------
	   CLASS    FOCC     OCC    AOCC    AVIR     VIR    FVIR
	   PAIRS       0      31      31     498     498       0
	 --------------------------------------------------------

  DFHelper Memory: AOs need 2.354 GiB; user supplied 22.352 GiB. Using in-core AOs.


         ------------------------------------------------------------
                                     CPHF                           
                                  Rob Parrish                       
         ------------------------------------------------------------

  ==> Geometry <==

    Molecular point group: c1
    Full point group: C1

    Geometry (in Angstrom), charge = -1, multiplicity = 1:

       Center              X                  Y                   Z               Mass       
    ------------   -----------------  -----------------  -----------------  -----------------
         O            0.684711026451    -1.135716516764    -0.360387889531    15.994914619570
         O           -2.151762673549    -0.536474616764     1.082773010469    15.994914619570
         O           -2.381856973549     0.191593483236    -1.040173889531    15.994914619570
         C            2.114147026451     0.717708483236     0.167227110469    12.000000000000
         C            0.764996026451     0.045354483236    -0.020475889531    12.000000000000
         C           -0.463309473549     0.934764683236     0.134191710469    12.000000000000
         C            3.294352026451    -0.226929516764    -0.016724889531    12.000000000000
         C           -1.779620973549     0.129386483236     0.072272110469    12.000000000000
         H            2.164405026451     1.549527483236    -0.547830889531     1.007825032230
         H            2.127458026451     1.183234483236     1.160046110469     1.007825032230
         H           -0.375305973549     1.387702483236     1.173172110469     1.007825032230
         H           -0.413839973549     1.723661483236    -0.559478889531     1.007825032230
         H            3.261388026451    -1.038026516764     0.714423110469     1.007825032230
         H            3.282834026451    -0.673699516764    -1.012938889531     1.007825032230
         H            4.237474026451     0.311444483236     0.109615110469     1.007825032230

  Nuclear repulsion =  356.352922639182054
  Reference energy  = -418.191401339239974

  ==> Basis Set <==

  Basis Set: AUG-CC-PVTZ
    Blend: AUG-CC-PVTZ
    Number of shells: 175
    Number of basis function: 529
    Number of Cartesian functions: 615
    Spherical Harmonics?: true
    Max angular momentum: 3

  ==> CGRSolver (by Rob Parrish) <==

   Number of roots    =         1
   Preconditioning    =    JACOBI
   Convergence cutoff =     1E-06
   Maximum iterations =       100

  ==> CPHFRHamiltonian (by Rob Parrish) <== 

  ==> MemDFJK: Density-Fitted J/K Matrices <==

    J tasked:                   Yes
    K tasked:                   Yes
    wK tasked:                   No
    OpenMP threads:               8
    Memory [MiB]:             22888
    Algorithm:                 Disk
    Schwarz Cutoff:           1E-12
    Mask sparsity (%):       5.6039
    Fitting Condition:        1E-10

   => Auxiliary Basis Set <=

  Basis Set: (AUG-CC-PVTZ AUX)
    Blend: AUG-CC-PVTZ-JKFIT
    Number of shells: 338
    Number of basis function: 1154
    Number of Cartesian functions: 1433
    Spherical Harmonics?: true
    Max angular momentum: 4

  ==> CPHF Iterations <==

  => Iterations <=

             Iter  Converged  Remaining    Residual
  CGR           1          0          1   1.195E-01
  CGR           2          0          1   3.457E-02
  CGR           3          0          1   1.307E-02
  CGR           4          0          1   4.684E-03
  CGR           5          0          1   1.978E-03
  CGR           6          0          1   6.519E-04
  CGR           7          0          1   1.931E-04
  CGR           8          0          1   6.740E-05
  CGR           9          0          1   2.574E-05
  CGR          10          0          1   1.032E-05
  CGR          11          0          1   3.902E-06
  CGR          12          0          1   1.048E-06
  CGR          13          1          0   3.396E-07

    CGRSolver converged.

	-----------------------------------------------------------
	 ==================> DF-MP2 Energies <==================== 
	-----------------------------------------------------------
	 Reference Energy          =    -418.1914013392399738 [Eh]
	 Singles Energy            =      -0.0000000000000000 [Eh]
	 Same-Spin Energy          =      -0.4161508390987935 [Eh]
	 Opposite-Spin Energy      =      -1.2926254332625127 [Eh]
	 Correlation Energy        =      -1.7087762723613062 [Eh]
	 Total Energy              =    -419.9001776116012934 [Eh]
	-----------------------------------------------------------
	 ================> DF-SCS-MP2 Energies <================== 
	-----------------------------------------------------------
	 SCS Same-Spin Scale       =       0.3333333333333333 [-]
	 SCS Opposite-Spin Scale   =       1.2000000000000000 [-]
	 SCS Same-Spin Energy      =      -0.1387169463662645 [Eh]
	 SCS Opposite-Spin Energy  =      -1.5511505199150151 [Eh]
	 SCS Correlation Energy    =      -1.6898674662812796 [Eh]
	 SCS Total Energy          =    -419.8812688055212448 [Eh]
	-----------------------------------------------------------



Properties will be evaluated at  -0.000000,  -0.000000,  -0.000000 [a0]

Properties computed using the MP2 density matrix

  Nuclear Dipole Moment: [e a0]
     X:    13.3727      Y:     4.1589      Z:     0.9706

  Electronic Dipole Moment: [e a0]
     X:    -9.3891      Y:    -2.7823      Z:    -0.7328

  Dipole Moment: [e a0]
     X:     3.9836      Y:     1.3766      Z:     0.2378     Total:     4.2214

  Dipole Moment: [D]
     X:    10.1253      Y:     3.4989      Z:     0.6045     Total:    10.7298


*** tstop() called on node94.bme.utexas.edu at Tue Nov  3 02:00:47 2020
Module time:
	user time   =     454.14 seconds =       7.57 minutes
	system time =      25.84 seconds =       0.43 minutes
	total time  =         85 seconds =       1.42 minutes
Total time:
	user time   =     618.42 seconds =      10.31 minutes
	system time =      47.59 seconds =       0.79 minutes
	total time  =        122 seconds =       2.03 minutes

    Psi4 stopped on: Tuesday, 03 November 2020 02:00AM
    Psi4 wall time for execution: 0:02:01.78

*** Psi4 exiting successfully. Buy a developer a beer!
