
    -----------------------------------------------------------------------
          Psi4: An Open-Source Ab Initio Electronic Structure Package
                               Psi4 1.4a3.dev225 

                         Git: Rev {master} 7105e37 


    D. G. A. Smith, L. A. Burns, A. C. Simmonett, R. M. Parrish,
    M. C. Schieber, R. Galvelis, P. Kraus, H. Kruse, R. Di Remigio,
    A. Alenaizan, A. M. James, S. Lehtola, J. P. Misiewicz, M. Scheurer,
    R. A. Shaw, J. B. Schriber, Y. Xie, Z. L. Glick, D. A. Sirianni,
    J. S. O'Brien, J. M. Waldrop, A. Kumar, E. G. Hohenstein,
    B. P. Pritchard, B. R. Brooks, H. F. Schaefer III, A. Yu. Sokolov,
    K. Patkowski, A. E. DePrince III, U. Bozkaya, R. A. King,
    F. A. Evangelista, J. M. Turney, T. D. Crawford, C. D. Sherrill,
    J. Chem. Phys. 152(18) 184108 (2020). https://doi.org/10.1063/5.0006002

                            Additional Code Authors
    E. T. Seidl, C. L. Janssen, E. F. Valeev, M. L. Leininger,
    J. F. Gonthier, R. M. Richard, H. R. McAlexander, M. Saitow, X. Wang,
    P. Verma, and M. H. Lechner

             Previous Authors, Complete List of Code Contributors,
                       and Citations for Specific Modules
    https://github.com/psi4/psi4/blob/master/codemeta.json
    https://github.com/psi4/psi4/graphs/contributors
    http://psicode.org/psi4manual/master/introduction.html#citing-psifour

    -----------------------------------------------------------------------


    Psi4 started on: Sunday, 07 March 2021 07:18AM

    Process ID: 259500
    Host:       c419-013.stampede2.tacc.utexas.edu
    PSIDATADIR: /home1/07844/xy3866/miniconda3/envs/p4env/share/psi4
    Memory:     500.0 MiB
    Threads:    32
    
  ==> Input File <==

--------------------------------------------------------------------------
#psi4
#
memory 32 gb

molecule  {
0 1
  O        2.5396650    -0.5551780     0.7057380
  C        0.2089037    -0.4639375    -0.2566411
  C       -0.0927650     0.9034730    -0.0869930
  C        1.7537560    -0.7902540    -0.4711970
  C       -0.6504930    -1.4595100    -0.1921940
  C       -1.4454780     1.1756780     0.1425470
  C        0.9085990     2.0263450    -0.1815640
  C       -1.9974120    -1.1732570     0.0382800
  C       -2.3931980     0.1517110     0.2151080
  H        1.8374090    -1.8385530    -0.7929100
  H        2.2124050    -0.1698090    -1.2460060
  H       -0.3343640    -2.4925800    -0.3335330
  H       -1.7609160     2.2085530     0.2816270
  H        1.7975830     1.8046110     0.4123870
  H        1.2313290     2.1813940    -1.2178320
  H        0.4699250     2.9630620     0.1727880
  H       -2.7264860    -1.9781040     0.0926730
  H       -3.4380290     0.3918270     0.3981780
  H        2.0803190    -1.0071740     1.4349120
units angstrom
no_reorient  #important for SAPT in psi4, default
symmetry c1  #important for SAPT in psi4, default
}

set PROPERTIES_ORIGIN ["COM"]
properties('MP2/aug-cc-pvtz', properties = ['dipole'])
--------------------------------------------------------------------------

  Memory set to  29.802 GiB by Python driver.
    SCF Algorithm Type (re)set to DF.

*** tstart() called on c419-013.stampede2.tacc.utexas.edu
*** at Sun Mar  7 07:18:12 2021

   => Loading Basis Set <=

    Name: AUG-CC-PVTZ
    Role: ORBITAL
    Keyword: BASIS
    atoms 1     entry O          line   331 file /home1/07844/xy3866/miniconda3/envs/p4env/share/psi4/basis/aug-cc-pvtz.gbs 
    atoms 2-9   entry C          line   239 file /home1/07844/xy3866/miniconda3/envs/p4env/share/psi4/basis/aug-cc-pvtz.gbs 
    atoms 10-19 entry H          line    40 file /home1/07844/xy3866/miniconda3/envs/p4env/share/psi4/basis/aug-cc-pvtz.gbs 


         ---------------------------------------------------------
                                   SCF
               by Justin Turney, Rob Parrish, Andy Simmonett
                          and Daniel G. A. Smith
                              RHF Reference
                       32 Threads,  30517 MiB Core
         ---------------------------------------------------------

  ==> Geometry <==

    Molecular point group: c1
    Full point group: C1

    Geometry (in Angstrom), charge = 0, multiplicity = 1:

       Center              X                  Y                   Z               Mass       
    ------------   -----------------  -----------------  -----------------  -----------------
         O            2.560107117032    -0.535864411366     0.697772189489    15.994914619570
         C            0.229345817032    -0.444623911366    -0.264606910511    12.000000000000
         C           -0.072322882968     0.922786588634    -0.094958810511    12.000000000000
         C            1.774198117032    -0.770940411366    -0.479162810511    12.000000000000
         C           -0.630050882968    -1.440196411366    -0.200159810511    12.000000000000
         C           -1.425035882968     1.194991588634     0.134581189489    12.000000000000
         C            0.929041117032     2.045658588634    -0.189529810511    12.000000000000
         C           -1.976969882968    -1.153943411366     0.030314189489    12.000000000000
         C           -2.372755882968     0.171024588634     0.207142189489    12.000000000000
         H            1.857851117032    -1.819239411366    -0.800875810511     1.007825032230
         H            2.232847117032    -0.150495411366    -1.253971810511     1.007825032230
         H           -0.313921882968    -2.473266411366    -0.341498810511     1.007825032230
         H           -1.740473882968     2.227866588634     0.273661189489     1.007825032230
         H            1.818025117032     1.823924588634     0.404421189489     1.007825032230
         H            1.251771117032     2.200707588634    -1.225797810511     1.007825032230
         H            0.490367117032     2.982375588634     0.164822189489     1.007825032230
         H           -2.706043882968    -1.958790411366     0.084707189489     1.007825032230
         H           -3.417586882968     0.411140588634     0.390212189489     1.007825032230
         H            2.100761117032    -0.987860411366     1.426946189489     1.007825032230

  Running in c1 symmetry.

  Rotational constants: A =      0.08917  B =      0.04720  C =      0.03323 [cm^-1]
  Rotational constants: A =   2673.38426  B =   1414.94314  C =    996.12083 [MHz]
  Nuclear repulsion =  427.238338083055851

  Charge       = 0
  Multiplicity = 1
  Electrons    = 66
  Nalpha       = 33
  Nbeta        = 33

  ==> Algorithm <==

  SCF Algorithm Type is DF.
  DIIS enabled.
  MOM disabled.
  Fractional occupation disabled.
  Guess Type is SAD.
  Energy threshold   = 1.00e-10
  Density threshold  = 1.00e-10
  Integral threshold = 1.00e-12

  ==> Primary Basis <==

  Basis Set: AUG-CC-PVTZ
    Blend: AUG-CC-PVTZ
    Number of shells: 216
    Number of basis functions: 644
    Number of Cartesian functions: 745
    Spherical Harmonics?: true
    Max angular momentum: 3

   => Loading Basis Set <=

    Name: (AUG-CC-PVTZ AUX)
    Role: JKFIT
    Keyword: DF_BASIS_SCF
    atoms 1     entry O          line   286 file /home1/07844/xy3866/miniconda3/envs/p4env/share/psi4/basis/aug-cc-pvtz-jkfit.gbs 
    atoms 2-9   entry C          line   162 file /home1/07844/xy3866/miniconda3/envs/p4env/share/psi4/basis/aug-cc-pvtz-jkfit.gbs 
    atoms 10-19 entry H          line    70 file /home1/07844/xy3866/miniconda3/envs/p4env/share/psi4/basis/aug-cc-pvtz-jkfit.gbs 

  ==> Integral Setup <==

  DFHelper Memory: AOs need 4.227 GiB; user supplied 22.352 GiB. Using in-core AOs.

  ==> MemDFJK: Density-Fitted J/K Matrices <==

    J tasked:                   Yes
    K tasked:                   Yes
    wK tasked:                   No
    OpenMP threads:              32
    Memory [MiB]:             22888
    Algorithm:                 Core
    Schwarz Cutoff:           1E-12
    Mask sparsity (%):       6.5757
    Fitting Condition:        1E-10

   => Auxiliary Basis Set <=

  Basis Set: (AUG-CC-PVTZ AUX)
    Blend: AUG-CC-PVTZ-JKFIT
    Number of shells: 410
    Number of basis functions: 1396
    Number of Cartesian functions: 1729
    Spherical Harmonics?: true
    Max angular momentum: 4

  Minimum eigenvalue in the overlap matrix is 4.6660327160E-07.
  Reciprocal condition number of the overlap matrix is 2.2955336780E-08.
    Using symmetric orthogonalization.

  ==> Pre-Iterations <==

  SCF Guess: Superposition of Atomic Densities via on-the-fly atomic UHF (no occupation information).

   -------------------------
    Irrep   Nso     Nmo    
   -------------------------
     A        644     644 
   -------------------------
    Total     644     644
   -------------------------

  ==> Iterations <==

                           Total Energy        Delta E     RMS |[F,P]|

   @DF-RHF iter SAD:  -383.13084765495137   -3.83131e+02   0.00000e+00 
   @DF-RHF iter   1:  -383.45726612313217   -3.26418e-01   1.09318e-03 DIIS
   @DF-RHF iter   2:  -383.69222307508153   -2.34957e-01   5.36979e-04 DIIS
   @DF-RHF iter   3:  -383.74571858600876   -5.34955e-02   1.06393e-04 DIIS
   @DF-RHF iter   4:  -383.74899155705225   -3.27297e-03   3.61226e-05 DIIS
   @DF-RHF iter   5:  -383.74931405400912   -3.22497e-04   8.89718e-06 DIIS
   @DF-RHF iter   6:  -383.74933814658448   -2.40926e-05   3.04136e-06 DIIS
   @DF-RHF iter   7:  -383.74934211297500   -3.96639e-06   1.14516e-06 DIIS
   @DF-RHF iter   8:  -383.74934297130153   -8.58327e-07   4.59065e-07 DIIS
   @DF-RHF iter   9:  -383.74934321165381   -2.40352e-07   2.26746e-07 DIIS
   @DF-RHF iter  10:  -383.74934327093069   -5.92769e-08   9.18704e-08 DIIS
   @DF-RHF iter  11:  -383.74934328266420   -1.17335e-08   2.52056e-08 DIIS
   @DF-RHF iter  12:  -383.74934328333569   -6.71491e-10   1.02634e-08 DIIS
   @DF-RHF iter  13:  -383.74934328338543   -4.97380e-11   3.44056e-09 DIIS
   @DF-RHF iter  14:  -383.74934328339231   -6.87805e-12   1.39930e-09 DIIS
   @DF-RHF iter  15:  -383.74934328339305   -7.38964e-13   6.93956e-10 DIIS
   @DF-RHF iter  16:  -383.74934328339486   -1.81899e-12   3.09100e-10 DIIS
   @DF-RHF iter  17:  -383.74934328339492   -5.68434e-14   1.30052e-10 DIIS
   @DF-RHF iter  18:  -383.74934328339293    1.98952e-12   4.10473e-11 DIIS
  Energy and wave function converged.


  ==> Post-Iterations <==

    Orbital Energies [Eh]
    ---------------------

    Doubly Occupied:                                                      

       1A    -20.560884     2A    -11.284802     3A    -11.245188  
       4A    -11.236564     5A    -11.234709     6A    -11.234250  
       7A    -11.232506     8A    -11.229321     9A    -11.222375  
      10A     -1.355286    11A     -1.165114    12A     -1.047525  
      13A     -1.034753    14A     -0.940203    15A     -0.906639  
      16A     -0.818314    17A     -0.796822    18A     -0.700199  
      19A     -0.672012    20A     -0.641929    21A     -0.627322  
      22A     -0.602785    23A     -0.582915    24A     -0.574014  
      25A     -0.568534    26A     -0.545085    27A     -0.526178  
      28A     -0.497226    29A     -0.495189    30A     -0.479778  
      31A     -0.430779    32A     -0.347056    33A     -0.323237  

    Virtual:                                                              

      34A      0.028057    35A      0.032074    36A      0.034727  
      37A      0.042004    38A      0.044912    39A      0.048498  
      40A      0.059373    41A      0.063367    42A      0.069582  
      43A      0.082362    44A      0.084874    45A      0.099310  
      46A      0.101098    47A      0.105632    48A      0.109744  
      49A      0.113321    50A      0.114308    51A      0.121680  
      52A      0.123874    53A      0.127591    54A      0.132572  
      55A      0.135952    56A      0.139214    57A      0.142037  
      58A      0.147394    59A      0.149298    60A      0.153823  
      61A      0.155456    62A      0.159579    63A      0.162665  
      64A      0.172331    65A      0.178230    66A      0.182002  
      67A      0.184696    68A      0.186825    69A      0.190869  
      70A      0.214025    71A      0.216004    72A      0.221796  
      73A      0.227933    74A      0.241355    75A      0.247903  
      76A      0.249667    77A      0.252969    78A      0.255809  
      79A      0.268332    80A      0.274748    81A      0.284214  
      82A      0.286225    83A      0.289117    84A      0.295057  
      85A      0.303112    86A      0.310075    87A      0.312224  
      88A      0.317202    89A      0.324029    90A      0.328970  
      91A      0.332213    92A      0.340672    93A      0.344458  
      94A      0.346762    95A      0.348777    96A      0.361216  
      97A      0.364636    98A      0.370419    99A      0.376189  
     100A      0.379053   101A      0.382152   102A      0.387714  
     103A      0.394919   104A      0.399273   105A      0.402864  
     106A      0.406222   107A      0.414798   108A      0.418830  
     109A      0.425918   110A      0.431794   111A      0.434029  
     112A      0.441473   113A      0.444672   114A      0.447651  
     115A      0.451950   116A      0.454476   117A      0.458289  
     118A      0.472349   119A      0.474132   120A      0.478251  
     121A      0.482680   122A      0.484525   123A      0.486742  
     124A      0.490414   125A      0.499594   126A      0.503454  
     127A      0.505026   128A      0.510225   129A      0.513651  
     130A      0.519993   131A      0.521897   132A      0.526017  
     133A      0.532145   134A      0.538248   135A      0.543016  
     136A      0.545723   137A      0.555412   138A      0.561423  
     139A      0.561748   140A      0.567670   141A      0.572436  
     142A      0.577551   143A      0.583415   144A      0.588731  
     145A      0.593523   146A      0.596009   147A      0.607239  
     148A      0.608701   149A      0.618869   150A      0.622523  
     151A      0.635873   152A      0.646757   153A      0.650324  
     154A      0.661025   155A      0.669354   156A      0.675074  
     157A      0.685184   158A      0.697107   159A      0.699750  
     160A      0.703977   161A      0.715095   162A      0.717600  
     163A      0.722395   164A      0.732374   165A      0.738129  
     166A      0.747018   167A      0.761219   168A      0.770205  
     169A      0.774028   170A      0.785781   171A      0.796162  
     172A      0.800079   173A      0.812084   174A      0.822782  
     175A      0.826167   176A      0.834150   177A      0.838517  
     178A      0.850218   179A      0.853138   180A      0.857972  
     181A      0.868083   182A      0.872260   183A      0.879637  
     184A      0.888848   185A      0.890657   186A      0.898304  
     187A      0.908056   188A      0.910826   189A      0.912766  
     190A      0.917647   191A      0.921912   192A      0.928239  
     193A      0.936573   194A      0.938677   195A      0.947263  
     196A      0.951480   197A      0.958949   198A      0.962365  
     199A      0.973295   200A      0.976050   201A      0.984389  
     202A      0.991765   203A      0.996388   204A      1.003056  
     205A      1.008656   206A      1.014833   207A      1.016584  
     208A      1.023457   209A      1.026929   210A      1.040058  
     211A      1.044137   212A      1.048039   213A      1.053881  
     214A      1.059339   215A      1.063021   216A      1.069266  
     217A      1.074341   218A      1.079499   219A      1.087207  
     220A      1.097891   221A      1.102426   222A      1.107674  
     223A      1.112435   224A      1.114976   225A      1.121324  
     226A      1.124022   227A      1.130769   228A      1.136947  
     229A      1.145017   230A      1.148832   231A      1.158813  
     232A      1.165852   233A      1.172134   234A      1.177473  
     235A      1.181411   236A      1.188187   237A      1.193455  
     238A      1.201871   239A      1.207403   240A      1.211913  
     241A      1.220992   242A      1.228032   243A      1.230520  
     244A      1.239888   245A      1.245559   246A      1.247312  
     247A      1.264301   248A      1.273258   249A      1.275413  
     250A      1.280408   251A      1.282623   252A      1.287660  
     253A      1.304777   254A      1.317385   255A      1.326077  
     256A      1.344562   257A      1.346244   258A      1.351448  
     259A      1.360877   260A      1.373835   261A      1.380120  
     262A      1.384456   263A      1.390749   264A      1.393766  
     265A      1.400760   266A      1.414781   267A      1.420853  
     268A      1.427685   269A      1.436989   270A      1.443175  
     271A      1.459277   272A      1.469696   273A      1.472477  
     274A      1.487108   275A      1.488199   276A      1.500762  
     277A      1.504461   278A      1.520938   279A      1.527791  
     280A      1.535865   281A      1.547282   282A      1.551844  
     283A      1.566580   284A      1.576101   285A      1.591554  
     286A      1.592817   287A      1.600553   288A      1.608555  
     289A      1.626756   290A      1.628750   291A      1.631828  
     292A      1.640840   293A      1.649691   294A      1.665679  
     295A      1.673575   296A      1.689871   297A      1.692781  
     298A      1.701804   299A      1.708357   300A      1.716803  
     301A      1.726714   302A      1.742618   303A      1.746193  
     304A      1.764738   305A      1.773647   306A      1.779334  
     307A      1.779705   308A      1.792169   309A      1.804632  
     310A      1.813527   311A      1.825871   312A      1.838330  
     313A      1.839974   314A      1.847344   315A      1.861983  
     316A      1.864259   317A      1.873634   318A      1.881712  
     319A      1.891035   320A      1.900707   321A      1.919770  
     322A      1.926005   323A      1.929151   324A      1.941092  
     325A      1.956607   326A      1.964034   327A      1.978960  
     328A      1.985715   329A      1.996937   330A      2.011301  
     331A      2.014307   332A      2.021671   333A      2.028658  
     334A      2.041707   335A      2.046426   336A      2.052812  
     337A      2.068282   338A      2.086890   339A      2.089799  
     340A      2.091547   341A      2.096549   342A      2.120109  
     343A      2.126527   344A      2.126778   345A      2.137767  
     346A      2.155523   347A      2.162857   348A      2.168215  
     349A      2.182683   350A      2.185308   351A      2.202162  
     352A      2.208382   353A      2.222461   354A      2.235603  
     355A      2.240925   356A      2.248627   357A      2.254649  
     358A      2.258292   359A      2.285571   360A      2.286443  
     361A      2.298409   362A      2.326483   363A      2.336595  
     364A      2.342782   365A      2.352863   366A      2.360879  
     367A      2.386940   368A      2.397459   369A      2.403382  
     370A      2.414702   371A      2.437238   372A      2.457932  
     373A      2.466948   374A      2.469598   375A      2.496830  
     376A      2.539349   377A      2.554625   378A      2.572996  
     379A      2.578465   380A      2.600055   381A      2.601343  
     382A      2.612579   383A      2.625415   384A      2.651699  
     385A      2.670841   386A      2.714884   387A      2.726040  
     388A      2.733592   389A      2.743334   390A      2.750154  
     391A      2.771104   392A      2.791294   393A      2.798238  
     394A      2.816631   395A      2.852893   396A      2.886310  
     397A      2.922876   398A      2.933457   399A      2.966822  
     400A      2.981222   401A      3.005631   402A      3.018735  
     403A      3.039569   404A      3.076477   405A      3.097234  
     406A      3.111693   407A      3.143128   408A      3.203109  
     409A      3.219115   410A      3.238722   411A      3.250054  
     412A      3.281462   413A      3.320821   414A      3.323190  
     415A      3.340959   416A      3.364740   417A      3.375513  
     418A      3.383766   419A      3.391346   420A      3.397925  
     421A      3.420563   422A      3.454220   423A      3.469893  
     424A      3.477253   425A      3.482390   426A      3.495356  
     427A      3.514235   428A      3.524245   429A      3.534341  
     430A      3.556185   431A      3.560936   432A      3.570219  
     433A      3.573477   434A      3.582703   435A      3.591847  
     436A      3.609890   437A      3.624213   438A      3.637736  
     439A      3.649908   440A      3.666856   441A      3.675995  
     442A      3.681749   443A      3.692795   444A      3.713135  
     445A      3.719467   446A      3.731484   447A      3.739080  
     448A      3.756091   449A      3.770449   450A      3.785085  
     451A      3.792237   452A      3.812431   453A      3.826651  
     454A      3.833689   455A      3.837249   456A      3.862393  
     457A      3.865153   458A      3.884860   459A      3.888380  
     460A      3.906710   461A      3.914768   462A      3.918102  
     463A      3.930590   464A      3.942331   465A      3.946695  
     466A      3.952212   467A      3.967507   468A      3.989341  
     469A      3.996020   470A      4.003086   471A      4.015713  
     472A      4.018896   473A      4.032770   474A      4.038414  
     475A      4.041859   476A      4.058903   477A      4.072345  
     478A      4.077711   479A      4.097121   480A      4.104172  
     481A      4.122969   482A      4.148962   483A      4.152768  
     484A      4.156599   485A      4.167347   486A      4.182003  
     487A      4.194906   488A      4.206014   489A      4.214579  
     490A      4.232880   491A      4.245022   492A      4.252511  
     493A      4.263535   494A      4.265605   495A      4.278756  
     496A      4.282967   497A      4.310953   498A      4.319014  
     499A      4.330880   500A      4.332146   501A      4.347861  
     502A      4.351047   503A      4.372711   504A      4.381357  
     505A      4.392215   506A      4.400214   507A      4.404196  
     508A      4.420268   509A      4.436952   510A      4.458244  
     511A      4.459790   512A      4.464860   513A      4.470057  
     514A      4.493927   515A      4.499511   516A      4.529527  
     517A      4.534811   518A      4.550361   519A      4.574236  
     520A      4.587637   521A      4.593471   522A      4.599514  
     523A      4.631589   524A      4.643094   525A      4.646981  
     526A      4.675908   527A      4.688726   528A      4.698406  
     529A      4.712185   530A      4.725788   531A      4.740423  
     532A      4.759530   533A      4.760699   534A      4.772195  
     535A      4.799040   536A      4.808448   537A      4.820853  
     538A      4.839729   539A      4.845310   540A      4.869462  
     541A      4.887810   542A      4.906423   543A      4.907488  
     544A      4.926411   545A      4.944315   546A      4.964000  
     547A      4.974649   548A      4.991437   549A      5.003608  
     550A      5.038845   551A      5.050074   552A      5.063763  
     553A      5.064502   554A      5.084734   555A      5.104980  
     556A      5.120264   557A      5.137599   558A      5.143885  
     559A      5.156834   560A      5.173647   561A      5.187848  
     562A      5.196737   563A      5.220867   564A      5.223825  
     565A      5.232912   566A      5.256898   567A      5.263339  
     568A      5.277677   569A      5.291943   570A      5.309320  
     571A      5.315665   572A      5.332851   573A      5.380966  
     574A      5.387884   575A      5.396513   576A      5.416239  
     577A      5.436648   578A      5.457877   579A      5.469332  
     580A      5.484392   581A      5.496414   582A      5.514098  
     583A      5.533867   584A      5.591017   585A      5.599605  
     586A      5.627872   587A      5.648613   588A      5.667875  
     589A      5.697516   590A      5.711752   591A      5.742559  
     592A      5.766535   593A      5.786470   594A      5.794775  
     595A      5.828257   596A      5.892859   597A      5.933847  
     598A      5.999802   599A      6.054159   600A      6.088270  
     601A      6.099817   602A      6.191461   603A      6.206164  
     604A      6.213842   605A      6.234980   606A      6.252310  
     607A      6.269861   608A      6.332279   609A      6.336611  
     610A      6.357793   611A      6.393360   612A      6.498732  
     613A      6.524568   614A      6.599537   615A      6.697953  
     616A      6.715832   617A      6.804781   618A      6.818399  
     619A      6.859633   620A      6.967870   621A      6.992999  
     622A      7.010274   623A      7.027037   624A      7.110002  
     625A      7.164598   626A      7.314288   627A      7.342098  
     628A      7.390973   629A      7.487879   630A      7.518694  
     631A      7.681118   632A      7.810332   633A      7.981436  
     634A      8.243491   635A      8.580701   636A     16.157573  
     637A     16.498711   638A     16.805061   639A     17.692941  
     640A     18.925502   641A     19.178331   642A     20.246010  
     643A     20.361162   644A     21.292076  

    Final Occupation by Irrep:
              A 
    DOCC [    33 ]

  @DF-RHF Final Energy:  -383.74934328339293

   => Energetics <=

    Nuclear Repulsion Energy =            427.2383380830558508
    One-Electron Energy =               -1367.6563747000384410
    Two-Electron Energy =                 556.6686933335896583
    Total Energy =                       -383.7493432833929319

Computation Completed

*** tstop() called on c419-013.stampede2.tacc.utexas.edu at Sun Mar  7 07:18:46 2021
Module time:
	user time   =     620.51 seconds =      10.34 minutes
	system time =      44.79 seconds =       0.75 minutes
	total time  =         34 seconds =       0.57 minutes
Total time:
	user time   =     620.51 seconds =      10.34 minutes
	system time =      44.79 seconds =       0.75 minutes
	total time  =         34 seconds =       0.57 minutes
   => Loading Basis Set <=

    Name: (AUG-CC-PVTZ AUX)
    Role: RIFIT
    Keyword: DF_BASIS_MP2
    atoms 1     entry O          line   264 file /home1/07844/xy3866/miniconda3/envs/p4env/share/psi4/basis/aug-cc-pvtz-ri.gbs 
    atoms 2-9   entry C          line   148 file /home1/07844/xy3866/miniconda3/envs/p4env/share/psi4/basis/aug-cc-pvtz-ri.gbs 
    atoms 10-19 entry H          line    30 file /home1/07844/xy3866/miniconda3/envs/p4env/share/psi4/basis/aug-cc-pvtz-ri.gbs 


*** tstart() called on c419-013.stampede2.tacc.utexas.edu
*** at Sun Mar  7 07:18:47 2021


  //>>>>>>>>>>>>>>>>>>>>>>>>>>>>>>>>>>>//
  //               DFMP2               //
  //<<<<<<<<<<<<<<<<<<<<<<<<<<<<<<<<<<<//

	 --------------------------------------------------------
	                          DF-MP2                         
	      2nd-Order Density-Fitted Moller-Plesset Theory     
	              RMP2 Wavefunction,  32 Threads             
	                                                         
	        Rob Parrish, Justin Turney, Andy Simmonett,      
	           Ed Hohenstein, and C. David Sherrill          
	 --------------------------------------------------------

   => Auxiliary Basis Set <=

  Basis Set: (AUG-CC-PVTZ AUX)
    Blend: AUG-CC-PVTZ-RI
    Number of shells: 392
    Number of basis functions: 1414
    Number of Cartesian functions: 1774
    Spherical Harmonics?: true
    Max angular momentum: 4

	 --------------------------------------------------------
	                 NBF =   644, NAUX =  1414
	 --------------------------------------------------------
	   CLASS    FOCC     OCC    AOCC    AVIR     VIR    FVIR
	   PAIRS       0      33      33     611     611       0
	 --------------------------------------------------------

  DFHelper Memory: AOs need 4.342 GiB; user supplied 22.352 GiB. Using in-core AOs.


         ------------------------------------------------------------
                                     CPHF                           
                                  Rob Parrish                       
         ------------------------------------------------------------

  ==> Geometry <==

    Molecular point group: c1
    Full point group: C1

    Geometry (in Angstrom), charge = 0, multiplicity = 1:

       Center              X                  Y                   Z               Mass       
    ------------   -----------------  -----------------  -----------------  -----------------
         O            2.560107117032    -0.535864411366     0.697772189489    15.994914619570
         C            0.229345817032    -0.444623911366    -0.264606910511    12.000000000000
         C           -0.072322882968     0.922786588634    -0.094958810511    12.000000000000
         C            1.774198117032    -0.770940411366    -0.479162810511    12.000000000000
         C           -0.630050882968    -1.440196411366    -0.200159810511    12.000000000000
         C           -1.425035882968     1.194991588634     0.134581189489    12.000000000000
         C            0.929041117032     2.045658588634    -0.189529810511    12.000000000000
         C           -1.976969882968    -1.153943411366     0.030314189489    12.000000000000
         C           -2.372755882968     0.171024588634     0.207142189489    12.000000000000
         H            1.857851117032    -1.819239411366    -0.800875810511     1.007825032230
         H            2.232847117032    -0.150495411366    -1.253971810511     1.007825032230
         H           -0.313921882968    -2.473266411366    -0.341498810511     1.007825032230
         H           -1.740473882968     2.227866588634     0.273661189489     1.007825032230
         H            1.818025117032     1.823924588634     0.404421189489     1.007825032230
         H            1.251771117032     2.200707588634    -1.225797810511     1.007825032230
         H            0.490367117032     2.982375588634     0.164822189489     1.007825032230
         H           -2.706043882968    -1.958790411366     0.084707189489     1.007825032230
         H           -3.417586882968     0.411140588634     0.390212189489     1.007825032230
         H            2.100761117032    -0.987860411366     1.426946189489     1.007825032230

  Nuclear repulsion =  427.238338083055851
  Reference energy  = -383.749343283392932

  ==> Basis Set <==

  Basis Set: AUG-CC-PVTZ
    Blend: AUG-CC-PVTZ
    Number of shells: 216
    Number of basis functions: 644
    Number of Cartesian functions: 745
    Spherical Harmonics?: true
    Max angular momentum: 3

  ==> CGRSolver (by Rob Parrish) <==

   Number of roots    =         1
   Preconditioning    =    JACOBI
   Convergence cutoff =     1E-06
   Maximum iterations =       100

  ==> CPHFRHamiltonian (by Rob Parrish) <== 

  ==> MemDFJK: Density-Fitted J/K Matrices <==

    J tasked:                   Yes
    K tasked:                   Yes
    wK tasked:                   No
    OpenMP threads:              32
    Memory [MiB]:             22888
    Algorithm:                 Core
    Schwarz Cutoff:           1E-12
    Mask sparsity (%):       3.9129
    Fitting Condition:        1E-10

   => Auxiliary Basis Set <=

  Basis Set: (AUG-CC-PVTZ AUX)
    Blend: AUG-CC-PVTZ-JKFIT
    Number of shells: 410
    Number of basis functions: 1396
    Number of Cartesian functions: 1729
    Spherical Harmonics?: true
    Max angular momentum: 4

  ==> CPHF Iterations <==

  => Iterations <=

             Iter  Converged  Remaining    Residual
  CGR           1          0          1   7.640E-02
  CGR           2          0          1   1.931E-02
  CGR           3          0          1   8.929E-03
  CGR           4          0          1   4.503E-03
  CGR           5          0          1   1.873E-03
  CGR           6          0          1   7.500E-04
  CGR           7          0          1   2.350E-04
  CGR           8          0          1   7.715E-05
  CGR           9          0          1   2.490E-05
  CGR          10          0          1   9.217E-06
  CGR          11          0          1   5.139E-06
  CGR          12          0          1   2.079E-06
  CGR          13          1          0   7.353E-07

    CGRSolver converged.

	-----------------------------------------------------------
	 ==================> DF-MP2 Energies <==================== 
	-----------------------------------------------------------
	 Reference Energy          =    -383.7493432833929319 [Eh]
	 Singles Energy            =      -0.0000000000000000 [Eh]
	 Same-Spin Energy          =      -0.4126445793820526 [Eh]
	 Opposite-Spin Energy      =      -1.3203854462444826 [Eh]
	 Correlation Energy        =      -1.7330300256265352 [Eh]
	 Total Energy              =    -385.4823733090194651 [Eh]
	-----------------------------------------------------------
	 ================> DF-SCS-MP2 Energies <================== 
	-----------------------------------------------------------
	 SCS Same-Spin Scale       =       0.3333333333333333 [-]
	 SCS Opposite-Spin Scale   =       1.2000000000000000 [-]
	 SCS Same-Spin Energy      =      -0.1375481931273508 [Eh]
	 SCS Opposite-Spin Energy  =      -1.5844625354933790 [Eh]
	 SCS Correlation Energy    =      -1.7220107286207298 [Eh]
	 SCS Total Energy          =    -385.4713540120136486 [Eh]
	-----------------------------------------------------------



Properties will be evaluated at   0.000000,   0.000000,   0.000000 [a0]

Properties computed using the MP2 density matrix

  Nuclear Dipole Moment: [e a0]
     X:     1.4875      Y:     2.1127      Z:    -0.8192

  Electronic Dipole Moment: [e a0]
     X:    -1.9459      Y:    -2.2611      Z:     0.7837

  Dipole Moment: [e a0]
     X:    -0.4584      Y:    -0.1484      Z:    -0.0354     Total:     0.4831

  Dipole Moment: [D]
     X:    -1.1652      Y:    -0.3771      Z:    -0.0900     Total:     1.2280


*** tstop() called on c419-013.stampede2.tacc.utexas.edu at Sun Mar  7 07:21:56 2021
Module time:
	user time   =    1677.22 seconds =      27.95 minutes
	system time =      59.55 seconds =       0.99 minutes
	total time  =        189 seconds =       3.15 minutes
Total time:
	user time   =    2298.68 seconds =      38.31 minutes
	system time =     104.36 seconds =       1.74 minutes
	total time  =        224 seconds =       3.73 minutes

    Psi4 stopped on: Sunday, 07 March 2021 07:21AM
    Psi4 wall time for execution: 0:03:45.28

*** Psi4 exiting successfully. Buy a developer a beer!
