
    -----------------------------------------------------------------------
          Psi4: An Open-Source Ab Initio Electronic Structure Package
                               Psi4 1.4a3.dev225 

                         Git: Rev {master} 7105e37 


    D. G. A. Smith, L. A. Burns, A. C. Simmonett, R. M. Parrish,
    M. C. Schieber, R. Galvelis, P. Kraus, H. Kruse, R. Di Remigio,
    A. Alenaizan, A. M. James, S. Lehtola, J. P. Misiewicz, M. Scheurer,
    R. A. Shaw, J. B. Schriber, Y. Xie, Z. L. Glick, D. A. Sirianni,
    J. S. O'Brien, J. M. Waldrop, A. Kumar, E. G. Hohenstein,
    B. P. Pritchard, B. R. Brooks, H. F. Schaefer III, A. Yu. Sokolov,
    K. Patkowski, A. E. DePrince III, U. Bozkaya, R. A. King,
    F. A. Evangelista, J. M. Turney, T. D. Crawford, C. D. Sherrill,
    J. Chem. Phys. 152(18) 184108 (2020). https://doi.org/10.1063/5.0006002

                            Additional Code Authors
    E. T. Seidl, C. L. Janssen, E. F. Valeev, M. L. Leininger,
    J. F. Gonthier, R. M. Richard, H. R. McAlexander, M. Saitow, X. Wang,
    P. Verma, and M. H. Lechner

             Previous Authors, Complete List of Code Contributors,
                       and Citations for Specific Modules
    https://github.com/psi4/psi4/blob/master/codemeta.json
    https://github.com/psi4/psi4/graphs/contributors
    http://psicode.org/psi4manual/master/introduction.html#citing-psifour

    -----------------------------------------------------------------------


    Psi4 started on: Thursday, 01 April 2021 12:14AM

    Process ID: 54668
    Host:       c451-083.stampede2.tacc.utexas.edu
    PSIDATADIR: /home1/07844/xy3866/miniconda3/envs/p4env/share/psi4
    Memory:     500.0 MiB
    Threads:    8
    
  ==> Input File <==

--------------------------------------------------------------------------
#psi4
#
memory 32 gb

molecule  {
0 1
  O        2.5396650    -0.5551780     0.7057380
  C        0.3025760    -0.4378200    -0.2720190
  C       -0.0871594     0.8844547    -0.0896165
  C        1.7537560    -0.7902540    -0.4711970
  C       -0.6504930    -1.4595100    -0.1921940
  C       -1.4454780     1.1756780     0.1425470
  C        0.9085990     2.0263450    -0.1815640
  C       -1.9974120    -1.1732570     0.0382800
  C       -2.3931980     0.1517110     0.2151080
  H        1.8374090    -1.8385530    -0.7929100
  H        2.2124050    -0.1698090    -1.2460060
  H       -0.3343640    -2.4925800    -0.3335330
  H       -1.7609160     2.2085530     0.2816270
  H        1.7975830     1.8046110     0.4123870
  H        1.2313290     2.1813940    -1.2178320
  H        0.4699250     2.9630620     0.1727880
  H       -2.7264860    -1.9781040     0.0926730
  H       -3.4380290     0.3918270     0.3981780
  H        2.0803190    -1.0071740     1.4349120
units angstrom
no_reorient  #important for SAPT in psi4, default
symmetry c1  #important for SAPT in psi4, default
}

set PROPERTIES_ORIGIN ["COM"]
properties('MP2/aug-cc-pvtz', properties = ['dipole'])
--------------------------------------------------------------------------

  Memory set to  29.802 GiB by Python driver.
    SCF Algorithm Type (re)set to DF.

*** tstart() called on c451-083.stampede2.tacc.utexas.edu
*** at Thu Apr  1 00:15:01 2021

   => Loading Basis Set <=

    Name: AUG-CC-PVTZ
    Role: ORBITAL
    Keyword: BASIS
    atoms 1     entry O          line   331 file /home1/07844/xy3866/miniconda3/envs/p4env/share/psi4/basis/aug-cc-pvtz.gbs 
    atoms 2-9   entry C          line   239 file /home1/07844/xy3866/miniconda3/envs/p4env/share/psi4/basis/aug-cc-pvtz.gbs 
    atoms 10-19 entry H          line    40 file /home1/07844/xy3866/miniconda3/envs/p4env/share/psi4/basis/aug-cc-pvtz.gbs 


         ---------------------------------------------------------
                                   SCF
               by Justin Turney, Rob Parrish, Andy Simmonett
                          and Daniel G. A. Smith
                              RHF Reference
                        8 Threads,  30517 MiB Core
         ---------------------------------------------------------

  ==> Geometry <==

    Molecular point group: c1
    Full point group: C1

    Geometry (in Angstrom), charge = 0, multiplicity = 1:

       Center              X                  Y                   Z               Mass       
    ------------   -----------------  -----------------  -----------------  -----------------
         O            2.550347930395    -0.536562274816     0.699541757765    15.994914619570
         C            0.313258930395    -0.419204274816    -0.278215242235    12.000000000000
         C           -0.076476469605     0.903070425184    -0.095812742235    12.000000000000
         C            1.764438930395    -0.771638274816    -0.477393242235    12.000000000000
         C           -0.639810069605    -1.440894274816    -0.198390242235    12.000000000000
         C           -1.434795069605     1.194293725184     0.136350757765    12.000000000000
         C            0.919281930395     2.044960725184    -0.187760242235    12.000000000000
         C           -1.986729069605    -1.154641274816     0.032083757765    12.000000000000
         C           -2.382515069605     0.170326725184     0.208911757765    12.000000000000
         H            1.848091930395    -1.819937274816    -0.799106242235     1.007825032230
         H            2.223087930395    -0.151193274816    -1.252202242235     1.007825032230
         H           -0.323681069605    -2.473964274816    -0.339729242235     1.007825032230
         H           -1.750233069605     2.227168725184     0.275430757765     1.007825032230
         H            1.808265930395     1.823226725184     0.406190757765     1.007825032230
         H            1.242011930395     2.200009725184    -1.224028242235     1.007825032230
         H            0.480607930395     2.981677725184     0.166591757765     1.007825032230
         H           -2.715803069605    -1.959488274816     0.086476757765     1.007825032230
         H           -3.427346069605     0.410442725184     0.391981757765     1.007825032230
         H            2.091001930395    -0.988558274816     1.428715757765     1.007825032230

  Running in c1 symmetry.

  Rotational constants: A =      0.08945  B =      0.04710  C =      0.03323 [cm^-1]
  Rotational constants: A =   2681.61577  B =   1412.11902  C =    996.31075 [MHz]
  Nuclear repulsion =  427.079618254936975

  Charge       = 0
  Multiplicity = 1
  Electrons    = 66
  Nalpha       = 33
  Nbeta        = 33

  ==> Algorithm <==

  SCF Algorithm Type is DF.
  DIIS enabled.
  MOM disabled.
  Fractional occupation disabled.
  Guess Type is SAD.
  Energy threshold   = 1.00e-10
  Density threshold  = 1.00e-10
  Integral threshold = 1.00e-12

  ==> Primary Basis <==

  Basis Set: AUG-CC-PVTZ
    Blend: AUG-CC-PVTZ
    Number of shells: 216
    Number of basis functions: 644
    Number of Cartesian functions: 745
    Spherical Harmonics?: true
    Max angular momentum: 3

   => Loading Basis Set <=

    Name: (AUG-CC-PVTZ AUX)
    Role: JKFIT
    Keyword: DF_BASIS_SCF
    atoms 1     entry O          line   286 file /home1/07844/xy3866/miniconda3/envs/p4env/share/psi4/basis/aug-cc-pvtz-jkfit.gbs 
    atoms 2-9   entry C          line   162 file /home1/07844/xy3866/miniconda3/envs/p4env/share/psi4/basis/aug-cc-pvtz-jkfit.gbs 
    atoms 10-19 entry H          line    70 file /home1/07844/xy3866/miniconda3/envs/p4env/share/psi4/basis/aug-cc-pvtz-jkfit.gbs 

  ==> Integral Setup <==

  DFHelper Memory: AOs need 4.152 GiB; user supplied 22.352 GiB. Using in-core AOs.

  ==> MemDFJK: Density-Fitted J/K Matrices <==

    J tasked:                   Yes
    K tasked:                   Yes
    wK tasked:                   No
    OpenMP threads:               8
    Memory [MiB]:             22888
    Algorithm:                 Core
    Schwarz Cutoff:           1E-12
    Mask sparsity (%):       6.5820
    Fitting Condition:        1E-10

   => Auxiliary Basis Set <=

  Basis Set: (AUG-CC-PVTZ AUX)
    Blend: AUG-CC-PVTZ-JKFIT
    Number of shells: 410
    Number of basis functions: 1396
    Number of Cartesian functions: 1729
    Spherical Harmonics?: true
    Max angular momentum: 4

  Minimum eigenvalue in the overlap matrix is 4.9317665565E-07.
  Reciprocal condition number of the overlap matrix is 2.4250130036E-08.
    Using symmetric orthogonalization.

  ==> Pre-Iterations <==

  SCF Guess: Superposition of Atomic Densities via on-the-fly atomic UHF (no occupation information).

   -------------------------
    Irrep   Nso     Nmo    
   -------------------------
     A        644     644 
   -------------------------
    Total     644     644
   -------------------------

  ==> Iterations <==

                           Total Energy        Delta E     RMS |[F,P]|

   @DF-RHF iter SAD:  -383.11511213747741   -3.83115e+02   0.00000e+00 
   @DF-RHF iter   1:  -383.47231758046564   -3.57205e-01   1.07851e-03 DIIS
   @DF-RHF iter   2:  -383.70447480746100   -2.32157e-01   5.25901e-04 DIIS
   @DF-RHF iter   3:  -383.75573456859314   -5.12598e-02   1.06865e-04 DIIS
   @DF-RHF iter   4:  -383.75897405955516   -3.23949e-03   3.76414e-05 DIIS
   @DF-RHF iter   5:  -383.75931298563182   -3.38926e-04   8.84641e-06 DIIS
   @DF-RHF iter   6:  -383.75933508716059   -2.21015e-05   2.81925e-06 DIIS
   @DF-RHF iter   7:  -383.75933774309840   -2.65594e-06   9.11226e-07 DIIS
   @DF-RHF iter   8:  -383.75933804602528   -3.02927e-07   2.70537e-07 DIIS
   @DF-RHF iter   9:  -383.75933807942079   -3.33955e-08   1.11468e-07 DIIS
   @DF-RHF iter  10:  -383.75933808472985   -5.30906e-09   3.10267e-08 DIIS
   @DF-RHF iter  11:  -383.75933808556920   -8.39350e-10   1.36445e-08 DIIS
   @DF-RHF iter  12:  -383.75933808573654   -1.67347e-10   8.48911e-09 DIIS
   @DF-RHF iter  13:  -383.75933808580658   -7.00311e-11   3.14828e-09 DIIS
   @DF-RHF iter  14:  -383.75933808581999   -1.34150e-11   9.54193e-10 DIIS
   @DF-RHF iter  15:  -383.75933808582164   -1.64846e-12   3.40997e-10 DIIS
   @DF-RHF iter  16:  -383.75933808582027    1.36424e-12   1.18019e-10 DIIS
   @DF-RHF iter  17:  -383.75933808582096   -6.82121e-13   5.47160e-11 DIIS
  Energy and wave function converged.


  ==> Post-Iterations <==

    Orbital Energies [Eh]
    ---------------------

    Doubly Occupied:                                                      

       1A    -20.560919     2A    -11.282664     3A    -11.245189  
       4A    -11.240132     5A    -11.238681     6A    -11.236140  
       7A    -11.235187     8A    -11.234638     9A    -11.220027  
      10A     -1.357342    11A     -1.158634    12A     -1.049451  
      13A     -1.031565    14A     -0.942518    15A     -0.908819  
      16A     -0.821264    17A     -0.791137    18A     -0.700825  
      19A     -0.675314    20A     -0.644198    21A     -0.625114  
      22A     -0.605437    23A     -0.587836    24A     -0.571580  
      25A     -0.567739    26A     -0.543386    27A     -0.524968  
      28A     -0.496161    29A     -0.488726    30A     -0.476765  
      31A     -0.447326    32A     -0.337241    33A     -0.326994  

    Virtual:                                                              

      34A      0.028018    35A      0.032073    36A      0.034745  
      37A      0.042034    38A      0.044803    39A      0.048431  
      40A      0.059473    41A      0.063146    42A      0.069536  
      43A      0.082164    44A      0.085010    45A      0.099884  
      46A      0.100773    47A      0.102079    48A      0.109778  
      49A      0.113067    50A      0.114229    51A      0.121734  
      52A      0.125207    53A      0.126594    54A      0.131546  
      55A      0.136250    56A      0.139010    57A      0.142078  
      58A      0.147299    59A      0.147951    60A      0.152436  
      61A      0.156018    62A      0.159664    63A      0.161686  
      64A      0.171836    65A      0.178185    66A      0.181568  
      67A      0.184288    68A      0.186590    69A      0.190611  
      70A      0.213350    71A      0.216980    72A      0.223742  
      73A      0.228389    74A      0.241925    75A      0.248127  
      76A      0.250612    77A      0.254036    78A      0.255830  
      79A      0.269212    80A      0.278676    81A      0.282751  
      82A      0.288273    83A      0.289257    84A      0.295209  
      85A      0.302221    86A      0.308689    87A      0.311309  
      88A      0.316213    89A      0.323059    90A      0.329800  
      91A      0.332179    92A      0.339752    93A      0.343576  
      94A      0.346052    95A      0.349788    96A      0.362408  
      97A      0.364191    98A      0.370272    99A      0.374806  
     100A      0.380214   101A      0.382755   102A      0.388807  
     103A      0.394784   104A      0.399186   105A      0.402385  
     106A      0.405774   107A      0.414735   108A      0.417720  
     109A      0.427840   110A      0.433542   111A      0.437194  
     112A      0.437899   113A      0.445764   114A      0.451490  
     115A      0.453606   116A      0.457383   117A      0.458854  
     118A      0.473455   119A      0.473626   120A      0.478354  
     121A      0.482560   122A      0.485360   123A      0.487886  
     124A      0.489611   125A      0.501759   126A      0.502743  
     127A      0.504840   128A      0.510791   129A      0.514671  
     130A      0.518329   131A      0.523678   132A      0.525388  
     133A      0.532583   134A      0.537315   135A      0.544253  
     136A      0.549159   137A      0.554377   138A      0.560139  
     139A      0.562134   140A      0.566163   141A      0.572081  
     142A      0.578920   143A      0.582060   144A      0.588380  
     145A      0.593425   146A      0.594804   147A      0.606638  
     148A      0.609643   149A      0.621534   150A      0.624697  
     151A      0.635669   152A      0.642449   153A      0.649207  
     154A      0.660133   155A      0.670426   156A      0.675963  
     157A      0.684110   158A      0.699454   159A      0.702903  
     160A      0.705144   161A      0.714592   162A      0.718154  
     163A      0.726542   164A      0.731895   165A      0.741046  
     166A      0.748461   167A      0.761354   168A      0.770097  
     169A      0.774771   170A      0.784627   171A      0.796650  
     172A      0.802805   173A      0.809848   174A      0.823366  
     175A      0.830750   176A      0.836371   177A      0.841399  
     178A      0.850362   179A      0.852915   180A      0.857039  
     181A      0.862468   182A      0.868145   183A      0.875186  
     184A      0.883569   185A      0.890705   186A      0.897459  
     187A      0.908295   188A      0.911989   189A      0.916264  
     190A      0.919029   191A      0.921823   192A      0.927372  
     193A      0.933836   194A      0.941138   195A      0.943906  
     196A      0.950360   197A      0.950576   198A      0.960843  
     199A      0.971614   200A      0.977684   201A      0.981458  
     202A      0.990727   203A      0.992144   204A      0.997649  
     205A      1.005322   206A      1.011652   207A      1.021796  
     208A      1.023855   209A      1.029895   210A      1.038530  
     211A      1.043653   212A      1.045389   213A      1.054213  
     214A      1.058298   215A      1.064227   216A      1.065454  
     217A      1.072061   218A      1.079304   219A      1.085341  
     220A      1.098661   221A      1.101930   222A      1.104963  
     223A      1.108584   224A      1.117822   225A      1.120764  
     226A      1.122616   227A      1.129086   228A      1.135612  
     229A      1.144939   230A      1.150723   231A      1.159031  
     232A      1.167503   233A      1.171844   234A      1.176153  
     235A      1.179399   236A      1.189487   237A      1.189998  
     238A      1.197860   239A      1.207342   240A      1.212754  
     241A      1.221448   242A      1.227962   243A      1.230866  
     244A      1.238108   245A      1.246260   246A      1.252275  
     247A      1.262957   248A      1.268562   249A      1.273699  
     250A      1.277554   251A      1.284253   252A      1.289192  
     253A      1.302169   254A      1.320904   255A      1.324254  
     256A      1.343148   257A      1.348243   258A      1.354718  
     259A      1.357113   260A      1.372419   261A      1.378918  
     262A      1.386766   263A      1.388684   264A      1.397193  
     265A      1.403515   266A      1.416396   267A      1.419159  
     268A      1.432674   269A      1.439472   270A      1.446317  
     271A      1.456933   272A      1.469291   273A      1.472332  
     274A      1.483558   275A      1.489920   276A      1.499646  
     277A      1.504499   278A      1.518040   279A      1.523343  
     280A      1.532870   281A      1.542861   282A      1.549642  
     283A      1.567765   284A      1.575457   285A      1.589415  
     286A      1.593648   287A      1.597367   288A      1.608382  
     289A      1.625555   290A      1.627265   291A      1.635144  
     292A      1.640117   293A      1.652550   294A      1.663085  
     295A      1.667484   296A      1.687818   297A      1.692330  
     298A      1.701892   299A      1.712563   300A      1.718495  
     301A      1.728856   302A      1.743202   303A      1.750991  
     304A      1.762151   305A      1.771531   306A      1.779891  
     307A      1.782818   308A      1.791982   309A      1.802336  
     310A      1.808732   311A      1.829610   312A      1.839947  
     313A      1.842797   314A      1.849660   315A      1.859059  
     316A      1.862195   317A      1.869058   318A      1.881222  
     319A      1.888742   320A      1.900093   321A      1.916626  
     322A      1.924886   323A      1.929988   324A      1.945882  
     325A      1.961007   326A      1.973632   327A      1.983447  
     328A      1.985473   329A      1.999119   330A      2.012752  
     331A      2.016711   332A      2.020336   333A      2.034226  
     334A      2.042809   335A      2.047503   336A      2.052586  
     337A      2.074096   338A      2.080709   339A      2.089311  
     340A      2.090468   341A      2.102908   342A      2.122837  
     343A      2.126541   344A      2.129586   345A      2.148585  
     346A      2.155907   347A      2.170649   348A      2.177802  
     349A      2.179769   350A      2.184300   351A      2.200934  
     352A      2.204806   353A      2.210268   354A      2.233813  
     355A      2.239306   356A      2.246528   357A      2.256589  
     358A      2.258456   359A      2.286103   360A      2.296159  
     361A      2.301413   362A      2.319741   363A      2.337955  
     364A      2.343314   365A      2.353561   366A      2.356611  
     367A      2.373131   368A      2.402122   369A      2.407131  
     370A      2.419753   371A      2.436897   372A      2.445983  
     373A      2.465643   374A      2.470625   375A      2.491258  
     376A      2.525788   377A      2.556246   378A      2.565181  
     379A      2.581362   380A      2.592023   381A      2.600774  
     382A      2.615860   383A      2.628107   384A      2.655749  
     385A      2.687002   386A      2.713758   387A      2.722797  
     388A      2.738661   389A      2.749132   390A      2.756579  
     391A      2.782399   392A      2.789735   393A      2.808137  
     394A      2.837875   395A      2.852193   396A      2.879756  
     397A      2.913298   398A      2.933920   399A      2.963647  
     400A      2.985658   401A      2.998193   402A      3.007465  
     403A      3.029125   404A      3.073479   405A      3.083975  
     406A      3.117743   407A      3.169115   408A      3.205153  
     409A      3.222184   410A      3.226858   411A      3.257776  
     412A      3.274727   413A      3.314476   414A      3.338732  
     415A      3.344267   416A      3.359914   417A      3.376891  
     418A      3.382006   419A      3.396397   420A      3.404917  
     421A      3.422074   422A      3.451033   423A      3.469119  
     424A      3.483225   425A      3.489338   426A      3.493592  
     427A      3.500161   428A      3.520535   429A      3.531912  
     430A      3.546408   431A      3.561617   432A      3.566680  
     433A      3.574337   434A      3.579306   435A      3.585695  
     436A      3.595379   437A      3.624739   438A      3.638549  
     439A      3.647091   440A      3.664085   441A      3.671611  
     442A      3.684483   443A      3.696315   444A      3.712625  
     445A      3.719794   446A      3.736643   447A      3.739581  
     448A      3.751691   449A      3.764399   450A      3.781784  
     451A      3.787610   452A      3.817459   453A      3.832655  
     454A      3.839152   455A      3.844627   456A      3.857972  
     457A      3.865494   458A      3.886158   459A      3.895405  
     460A      3.898831   461A      3.909588   462A      3.918861  
     463A      3.932161   464A      3.942714   465A      3.946436  
     466A      3.957357   467A      3.973222   468A      3.991350  
     469A      4.000166   470A      4.009829   471A      4.013652  
     472A      4.022092   473A      4.035750   474A      4.041669  
     475A      4.045852   476A      4.055067   477A      4.068663  
     478A      4.073640   479A      4.091618   480A      4.105306  
     481A      4.122895   482A      4.146071   483A      4.153194  
     484A      4.160791   485A      4.167972   486A      4.176159  
     487A      4.205866   488A      4.215590   489A      4.219170  
     490A      4.230065   491A      4.236466   492A      4.254595  
     493A      4.262878   494A      4.269794   495A      4.275472  
     496A      4.288173   497A      4.306759   498A      4.310430  
     499A      4.320332   500A      4.338292   501A      4.341580  
     502A      4.359748   503A      4.371404   504A      4.382151  
     505A      4.385162   506A      4.400290   507A      4.408439  
     508A      4.422937   509A      4.433790   510A      4.450522  
     511A      4.457414   512A      4.464619   513A      4.471161  
     514A      4.481151   515A      4.499570   516A      4.521600  
     517A      4.532630   518A      4.552068   519A      4.569365  
     520A      4.577555   521A      4.579935   522A      4.603972  
     523A      4.628691   524A      4.646323   525A      4.649544  
     526A      4.671075   527A      4.690970   528A      4.700909  
     529A      4.703725   530A      4.724991   531A      4.736387  
     532A      4.742708   533A      4.754624   534A      4.765210  
     535A      4.794080   536A      4.805292   537A      4.820131  
     538A      4.822657   539A      4.843942   540A      4.865992  
     541A      4.898917   542A      4.911630   543A      4.922833  
     544A      4.928537   545A      4.945108   546A      4.960239  
     547A      4.967953   548A      4.979379   549A      4.997920  
     550A      5.022381   551A      5.045947   552A      5.051954  
     553A      5.056886   554A      5.079479   555A      5.095580  
     556A      5.115236   557A      5.125211   558A      5.145493  
     559A      5.152515   560A      5.164513   561A      5.169288  
     562A      5.179431   563A      5.213467   564A      5.222428  
     565A      5.233244   566A      5.249719   567A      5.256297  
     568A      5.268729   569A      5.280086   570A      5.296156  
     571A      5.328889   572A      5.332477   573A      5.377715  
     574A      5.396836   575A      5.406438   576A      5.423303  
     577A      5.447397   578A      5.457988   579A      5.468313  
     580A      5.471606   581A      5.494425   582A      5.506610  
     583A      5.533197   584A      5.589006   585A      5.606385  
     586A      5.634189   587A      5.652804   588A      5.657346  
     589A      5.709135   590A      5.721572   591A      5.738687  
     592A      5.757836   593A      5.775033   594A      5.799691  
     595A      5.818277   596A      5.874780   597A      5.917831  
     598A      6.002740   599A      6.098484   600A      6.112946  
     601A      6.145792   602A      6.170865   603A      6.208126  
     604A      6.211722   605A      6.249050   606A      6.257632  
     607A      6.272485   608A      6.311107   609A      6.322285  
     610A      6.341233   611A      6.416096   612A      6.521160  
     613A      6.530176   614A      6.557174   615A      6.692042  
     616A      6.710559   617A      6.807585   618A      6.813034  
     619A      6.861089   620A      6.971564   621A      6.975428  
     622A      6.999322   623A      7.018115   624A      7.099342  
     625A      7.171055   626A      7.271820   627A      7.339756  
     628A      7.391819   629A      7.495672   630A      7.522098  
     631A      7.684078   632A      7.828922   633A      7.985887  
     634A      8.242987   635A      8.590331   636A     16.087834  
     637A     16.291578   638A     16.490373   639A     17.735648  
     640A     18.936687   641A     19.115091   642A     20.120139  
     643A     20.440380   644A     21.094162  

    Final Occupation by Irrep:
              A 
    DOCC [    33 ]

  @DF-RHF Final Energy:  -383.75933808582096

   => Energetics <=

    Nuclear Repulsion Energy =            427.0796182549369746
    One-Electron Energy =               -1367.3300747131702337
    Two-Electron Energy =                 556.4911183724123021
    Total Energy =                       -383.7593380858209002

Computation Completed

*** tstop() called on c451-083.stampede2.tacc.utexas.edu at Thu Apr  1 00:16:02 2021
Module time:
	user time   =     360.64 seconds =       6.01 minutes
	system time =       9.84 seconds =       0.16 minutes
	total time  =         61 seconds =       1.02 minutes
Total time:
	user time   =     360.64 seconds =       6.01 minutes
	system time =       9.84 seconds =       0.16 minutes
	total time  =         61 seconds =       1.02 minutes
   => Loading Basis Set <=

    Name: (AUG-CC-PVTZ AUX)
    Role: RIFIT
    Keyword: DF_BASIS_MP2
    atoms 1     entry O          line   264 file /home1/07844/xy3866/miniconda3/envs/p4env/share/psi4/basis/aug-cc-pvtz-ri.gbs 
    atoms 2-9   entry C          line   148 file /home1/07844/xy3866/miniconda3/envs/p4env/share/psi4/basis/aug-cc-pvtz-ri.gbs 
    atoms 10-19 entry H          line    30 file /home1/07844/xy3866/miniconda3/envs/p4env/share/psi4/basis/aug-cc-pvtz-ri.gbs 


*** tstart() called on c451-083.stampede2.tacc.utexas.edu
*** at Thu Apr  1 00:16:03 2021


  //>>>>>>>>>>>>>>>>>>>>>>>>>>>>>>>>>>>//
  //               DFMP2               //
  //<<<<<<<<<<<<<<<<<<<<<<<<<<<<<<<<<<<//

	 --------------------------------------------------------
	                          DF-MP2                         
	      2nd-Order Density-Fitted Moller-Plesset Theory     
	              RMP2 Wavefunction,   8 Threads             
	                                                         
	        Rob Parrish, Justin Turney, Andy Simmonett,      
	           Ed Hohenstein, and C. David Sherrill          
	 --------------------------------------------------------

   => Auxiliary Basis Set <=

  Basis Set: (AUG-CC-PVTZ AUX)
    Blend: AUG-CC-PVTZ-RI
    Number of shells: 392
    Number of basis functions: 1414
    Number of Cartesian functions: 1774
    Spherical Harmonics?: true
    Max angular momentum: 4

	 --------------------------------------------------------
	                 NBF =   644, NAUX =  1414
	 --------------------------------------------------------
	   CLASS    FOCC     OCC    AOCC    AVIR     VIR    FVIR
	   PAIRS       0      33      33     611     611       0
	 --------------------------------------------------------

  DFHelper Memory: AOs need 4.267 GiB; user supplied 22.352 GiB. Using in-core AOs.


         ------------------------------------------------------------
                                     CPHF                           
                                  Rob Parrish                       
         ------------------------------------------------------------

  ==> Geometry <==

    Molecular point group: c1
    Full point group: C1

    Geometry (in Angstrom), charge = 0, multiplicity = 1:

       Center              X                  Y                   Z               Mass       
    ------------   -----------------  -----------------  -----------------  -----------------
         O            2.550347930395    -0.536562274816     0.699541757765    15.994914619570
         C            0.313258930395    -0.419204274816    -0.278215242235    12.000000000000
         C           -0.076476469605     0.903070425184    -0.095812742235    12.000000000000
         C            1.764438930395    -0.771638274816    -0.477393242235    12.000000000000
         C           -0.639810069605    -1.440894274816    -0.198390242235    12.000000000000
         C           -1.434795069605     1.194293725184     0.136350757765    12.000000000000
         C            0.919281930395     2.044960725184    -0.187760242235    12.000000000000
         C           -1.986729069605    -1.154641274816     0.032083757765    12.000000000000
         C           -2.382515069605     0.170326725184     0.208911757765    12.000000000000
         H            1.848091930395    -1.819937274816    -0.799106242235     1.007825032230
         H            2.223087930395    -0.151193274816    -1.252202242235     1.007825032230
         H           -0.323681069605    -2.473964274816    -0.339729242235     1.007825032230
         H           -1.750233069605     2.227168725184     0.275430757765     1.007825032230
         H            1.808265930395     1.823226725184     0.406190757765     1.007825032230
         H            1.242011930395     2.200009725184    -1.224028242235     1.007825032230
         H            0.480607930395     2.981677725184     0.166591757765     1.007825032230
         H           -2.715803069605    -1.959488274816     0.086476757765     1.007825032230
         H           -3.427346069605     0.410442725184     0.391981757765     1.007825032230
         H            2.091001930395    -0.988558274816     1.428715757765     1.007825032230

  Nuclear repulsion =  427.079618254936975
  Reference energy  = -383.759338085820957

  ==> Basis Set <==

  Basis Set: AUG-CC-PVTZ
    Blend: AUG-CC-PVTZ
    Number of shells: 216
    Number of basis functions: 644
    Number of Cartesian functions: 745
    Spherical Harmonics?: true
    Max angular momentum: 3

  ==> CGRSolver (by Rob Parrish) <==

   Number of roots    =         1
   Preconditioning    =    JACOBI
   Convergence cutoff =     1E-06
   Maximum iterations =       100

  ==> CPHFRHamiltonian (by Rob Parrish) <== 

  ==> MemDFJK: Density-Fitted J/K Matrices <==

    J tasked:                   Yes
    K tasked:                   Yes
    wK tasked:                   No
    OpenMP threads:               8
    Memory [MiB]:             22888
    Algorithm:                 Core
    Schwarz Cutoff:           1E-12
    Mask sparsity (%):       3.9157
    Fitting Condition:        1E-10

   => Auxiliary Basis Set <=

  Basis Set: (AUG-CC-PVTZ AUX)
    Blend: AUG-CC-PVTZ-JKFIT
    Number of shells: 410
    Number of basis functions: 1396
    Number of Cartesian functions: 1729
    Spherical Harmonics?: true
    Max angular momentum: 4

  ==> CPHF Iterations <==

  => Iterations <=

             Iter  Converged  Remaining    Residual
  CGR           1          0          1   7.542E-02
  CGR           2          0          1   1.826E-02
  CGR           3          0          1   7.664E-03
  CGR           4          0          1   3.735E-03
  CGR           5          0          1   1.816E-03
  CGR           6          0          1   8.216E-04
  CGR           7          0          1   2.679E-04
  CGR           8          0          1   8.633E-05
  CGR           9          0          1   2.509E-05
  CGR          10          0          1   5.670E-06
  CGR          11          0          1   2.321E-06
  CGR          12          1          0   6.855E-07

    CGRSolver converged.

	-----------------------------------------------------------
	 ==================> DF-MP2 Energies <==================== 
	-----------------------------------------------------------
	 Reference Energy          =    -383.7593380858209571 [Eh]
	 Singles Energy            =      -0.0000000000000000 [Eh]
	 Same-Spin Energy          =      -0.4131143219545412 [Eh]
	 Opposite-Spin Energy      =      -1.3206873009366997 [Eh]
	 Correlation Energy        =      -1.7338016228912410 [Eh]
	 Total Energy              =    -385.4931397087121923 [Eh]
	-----------------------------------------------------------
	 ================> DF-SCS-MP2 Energies <================== 
	-----------------------------------------------------------
	 SCS Same-Spin Scale       =       0.3333333333333333 [-]
	 SCS Opposite-Spin Scale   =       1.2000000000000000 [-]
	 SCS Same-Spin Energy      =      -0.1377047739848471 [Eh]
	 SCS Opposite-Spin Energy  =      -1.5848247611240396 [Eh]
	 SCS Correlation Energy    =      -1.7225295351088867 [Eh]
	 SCS Total Energy          =    -385.4818676209298474 [Eh]
	-----------------------------------------------------------



Properties will be evaluated at  -0.000000,  -0.000000,  -0.000000 [a0]

Properties computed using the MP2 density matrix

  Nuclear Dipole Moment: [e a0]
     X:     1.3960      Y:     2.1062      Z:    -0.8026

  Electronic Dipole Moment: [e a0]
     X:    -1.8739      Y:    -2.2657      Z:     0.7637

  Dipole Moment: [e a0]
     X:    -0.4780      Y:    -0.1595      Z:    -0.0389     Total:     0.5054

  Dipole Moment: [D]
     X:    -1.2149      Y:    -0.4054      Z:    -0.0988     Total:     1.2846


*** tstop() called on c451-083.stampede2.tacc.utexas.edu at Thu Apr  1 00:19:35 2021
Module time:
	user time   =    1306.54 seconds =      21.78 minutes
	system time =      18.76 seconds =       0.31 minutes
	total time  =        212 seconds =       3.53 minutes
Total time:
	user time   =    1668.12 seconds =      27.80 minutes
	system time =      28.61 seconds =       0.48 minutes
	total time  =        274 seconds =       4.57 minutes

    Psi4 stopped on: Thursday, 01 April 2021 12:19AM
    Psi4 wall time for execution: 0:04:35.04

*** Psi4 exiting successfully. Buy a developer a beer!
