
    -----------------------------------------------------------------------
          Psi4: An Open-Source Ab Initio Electronic Structure Package
                               Psi4 1.4a3.dev225 

                         Git: Rev {master} 7105e37 


    D. G. A. Smith, L. A. Burns, A. C. Simmonett, R. M. Parrish,
    M. C. Schieber, R. Galvelis, P. Kraus, H. Kruse, R. Di Remigio,
    A. Alenaizan, A. M. James, S. Lehtola, J. P. Misiewicz, M. Scheurer,
    R. A. Shaw, J. B. Schriber, Y. Xie, Z. L. Glick, D. A. Sirianni,
    J. S. O'Brien, J. M. Waldrop, A. Kumar, E. G. Hohenstein,
    B. P. Pritchard, B. R. Brooks, H. F. Schaefer III, A. Yu. Sokolov,
    K. Patkowski, A. E. DePrince III, U. Bozkaya, R. A. King,
    F. A. Evangelista, J. M. Turney, T. D. Crawford, C. D. Sherrill,
    J. Chem. Phys. 152(18) 184108 (2020). https://doi.org/10.1063/5.0006002

                            Additional Code Authors
    E. T. Seidl, C. L. Janssen, E. F. Valeev, M. L. Leininger,
    J. F. Gonthier, R. M. Richard, H. R. McAlexander, M. Saitow, X. Wang,
    P. Verma, and M. H. Lechner

             Previous Authors, Complete List of Code Contributors,
                       and Citations for Specific Modules
    https://github.com/psi4/psi4/blob/master/codemeta.json
    https://github.com/psi4/psi4/graphs/contributors
    http://psicode.org/psi4manual/master/introduction.html#citing-psifour

    -----------------------------------------------------------------------


    Psi4 started on: Sunday, 07 March 2021 10:07AM

    Process ID: 15779
    Host:       c419-013.stampede2.tacc.utexas.edu
    PSIDATADIR: /home1/07844/xy3866/miniconda3/envs/p4env/share/psi4
    Memory:     500.0 MiB
    Threads:    32
    
  ==> Input File <==

--------------------------------------------------------------------------
#psi4
#
memory 32 gb

molecule  {
0 1
  O        2.5396650    -0.5551780     0.7057380
  C        0.3025760    -0.4378200    -0.2720190
  C       -0.0927650     0.9034730    -0.0869930
  C        1.7537560    -0.7902540    -0.4711970
  C       -0.6618490    -1.5068386    -0.1946245
  C       -1.4454780     1.1756780     0.1425470
  C        0.9085990     2.0263450    -0.1815640
  C       -1.9974120    -1.1732570     0.0382800
  C       -2.3931980     0.1517110     0.2151080
  H        1.8374090    -1.8385530    -0.7929100
  H        2.2124050    -0.1698090    -1.2460060
  H       -0.3343640    -2.4925800    -0.3335330
  H       -1.7609160     2.2085530     0.2816270
  H        1.7975830     1.8046110     0.4123870
  H        1.2313290     2.1813940    -1.2178320
  H        0.4699250     2.9630620     0.1727880
  H       -2.7264860    -1.9781040     0.0926730
  H       -3.4380290     0.3918270     0.3981780
  H        2.0803190    -1.0071740     1.4349120
units angstrom
no_reorient  #important for SAPT in psi4, default
symmetry c1  #important for SAPT in psi4, default
}

set PROPERTIES_ORIGIN ["COM"]
properties('MP2/aug-cc-pvtz', properties = ['dipole'])
--------------------------------------------------------------------------

  Memory set to  29.802 GiB by Python driver.
    SCF Algorithm Type (re)set to DF.

*** tstart() called on c419-013.stampede2.tacc.utexas.edu
*** at Sun Mar  7 10:07:14 2021

   => Loading Basis Set <=

    Name: AUG-CC-PVTZ
    Role: ORBITAL
    Keyword: BASIS
    atoms 1     entry O          line   331 file /home1/07844/xy3866/miniconda3/envs/p4env/share/psi4/basis/aug-cc-pvtz.gbs 
    atoms 2-9   entry C          line   239 file /home1/07844/xy3866/miniconda3/envs/p4env/share/psi4/basis/aug-cc-pvtz.gbs 
    atoms 10-19 entry H          line    40 file /home1/07844/xy3866/miniconda3/envs/p4env/share/psi4/basis/aug-cc-pvtz.gbs 


         ---------------------------------------------------------
                                   SCF
               by Justin Turney, Rob Parrish, Andy Simmonett
                          and Daniel G. A. Smith
                              RHF Reference
                       32 Threads,  30517 MiB Core
         ---------------------------------------------------------

  ==> Geometry <==

    Molecular point group: c1
    Full point group: C1

    Geometry (in Angstrom), charge = 0, multiplicity = 1:

       Center              X                  Y                   Z               Mass       
    ------------   -----------------  -----------------  -----------------  -----------------
         O            2.552015284560    -0.533779324115     0.699522785536    15.994914619570
         C            0.314926284560    -0.416421324115    -0.278234214464    12.000000000000
         C           -0.080414715440     0.924871675885    -0.093208214464    12.000000000000
         C            1.766106284560    -0.768855324115    -0.477412214464    12.000000000000
         C           -0.649498715440    -1.485439924115    -0.200839714464    12.000000000000
         C           -1.433127715440     1.197076675885     0.136331785536    12.000000000000
         C            0.920949284560     2.047743675885    -0.187779214464    12.000000000000
         C           -1.985061715440    -1.151858324115     0.032064785536    12.000000000000
         C           -2.380847715440     0.173109675885     0.208892785536    12.000000000000
         H            1.849759284560    -1.817154324115    -0.799125214464     1.007825032230
         H            2.224755284560    -0.148410324115    -1.252221214464     1.007825032230
         H           -0.322013715440    -2.471181324115    -0.339748214464     1.007825032230
         H           -1.748565715440     2.229951675885     0.275411785536     1.007825032230
         H            1.809933284560     1.826009675885     0.406171785536     1.007825032230
         H            1.243679284560     2.202792675885    -1.224047214464     1.007825032230
         H            0.482275284560     2.984460675885     0.166572785536     1.007825032230
         H           -2.714135715440    -1.956705324115     0.086457785536     1.007825032230
         H           -3.425678715440     0.413225675885     0.391962785536     1.007825032230
         H            2.092669284560    -0.985775324115     1.428696785536     1.007825032230

  Running in c1 symmetry.

  Rotational constants: A =      0.08847  B =      0.04708  C =      0.03309 [cm^-1]
  Rotational constants: A =   2652.12318  B =   1411.40862  C =    991.87916 [MHz]
  Nuclear repulsion =  426.066982335325633

  Charge       = 0
  Multiplicity = 1
  Electrons    = 66
  Nalpha       = 33
  Nbeta        = 33

  ==> Algorithm <==

  SCF Algorithm Type is DF.
  DIIS enabled.
  MOM disabled.
  Fractional occupation disabled.
  Guess Type is SAD.
  Energy threshold   = 1.00e-10
  Density threshold  = 1.00e-10
  Integral threshold = 1.00e-12

  ==> Primary Basis <==

  Basis Set: AUG-CC-PVTZ
    Blend: AUG-CC-PVTZ
    Number of shells: 216
    Number of basis functions: 644
    Number of Cartesian functions: 745
    Spherical Harmonics?: true
    Max angular momentum: 3

   => Loading Basis Set <=

    Name: (AUG-CC-PVTZ AUX)
    Role: JKFIT
    Keyword: DF_BASIS_SCF
    atoms 1     entry O          line   286 file /home1/07844/xy3866/miniconda3/envs/p4env/share/psi4/basis/aug-cc-pvtz-jkfit.gbs 
    atoms 2-9   entry C          line   162 file /home1/07844/xy3866/miniconda3/envs/p4env/share/psi4/basis/aug-cc-pvtz-jkfit.gbs 
    atoms 10-19 entry H          line    70 file /home1/07844/xy3866/miniconda3/envs/p4env/share/psi4/basis/aug-cc-pvtz-jkfit.gbs 

  ==> Integral Setup <==

  DFHelper Memory: AOs need 4.225 GiB; user supplied 22.352 GiB. Using in-core AOs.

  ==> MemDFJK: Density-Fitted J/K Matrices <==

    J tasked:                   Yes
    K tasked:                   Yes
    wK tasked:                   No
    OpenMP threads:              32
    Memory [MiB]:             22888
    Algorithm:                 Core
    Schwarz Cutoff:           1E-12
    Mask sparsity (%):       6.6283
    Fitting Condition:        1E-10

   => Auxiliary Basis Set <=

  Basis Set: (AUG-CC-PVTZ AUX)
    Blend: AUG-CC-PVTZ-JKFIT
    Number of shells: 410
    Number of basis functions: 1396
    Number of Cartesian functions: 1729
    Spherical Harmonics?: true
    Max angular momentum: 4

  Minimum eigenvalue in the overlap matrix is 5.1294184793E-07.
  Reciprocal condition number of the overlap matrix is 2.5259346511E-08.
    Using symmetric orthogonalization.

  ==> Pre-Iterations <==

  SCF Guess: Superposition of Atomic Densities via on-the-fly atomic UHF (no occupation information).

   -------------------------
    Irrep   Nso     Nmo    
   -------------------------
     A        644     644 
   -------------------------
    Total     644     644
   -------------------------

  ==> Iterations <==

                           Total Energy        Delta E     RMS |[F,P]|

   @DF-RHF iter SAD:  -383.05476824710001   -3.83055e+02   0.00000e+00 
   @DF-RHF iter   1:  -383.47293994870893   -4.18172e-01   1.06969e-03 DIIS
   @DF-RHF iter   2:  -383.70297980016409   -2.30040e-01   5.18110e-04 DIIS
   @DF-RHF iter   3:  -383.75235866135330   -4.93789e-02   1.07136e-04 DIIS
   @DF-RHF iter   4:  -383.75559007049173   -3.23141e-03   3.81662e-05 DIIS
   @DF-RHF iter   5:  -383.75593512989406   -3.45059e-04   8.69591e-06 DIIS
   @DF-RHF iter   6:  -383.75595693038201   -2.18005e-05   2.77869e-06 DIIS
   @DF-RHF iter   7:  -383.75595956280085   -2.63242e-06   9.14935e-07 DIIS
   @DF-RHF iter   8:  -383.75595988339489   -3.20594e-07   2.84722e-07 DIIS
   @DF-RHF iter   9:  -383.75595992586904   -4.24741e-08   1.26753e-07 DIIS
   @DF-RHF iter  10:  -383.75595993466476   -8.79572e-09   4.72177e-08 DIIS
   @DF-RHF iter  11:  -383.75595993701677   -2.35201e-09   2.18795e-08 DIIS
   @DF-RHF iter  12:  -383.75595993754666   -5.29894e-10   1.33781e-08 DIIS
   @DF-RHF iter  13:  -383.75595993770588   -1.59218e-10   3.91654e-09 DIIS
   @DF-RHF iter  14:  -383.75595993772174   -1.58593e-11   1.05673e-09 DIIS
   @DF-RHF iter  15:  -383.75595993772276   -1.02318e-12   3.94975e-10 DIIS
   @DF-RHF iter  16:  -383.75595993772339   -6.25278e-13   1.22403e-10 DIIS
   @DF-RHF iter  17:  -383.75595993772339    0.00000e+00   5.45569e-11 DIIS
  Energy and wave function converged.


  ==> Post-Iterations <==

    Orbital Energies [Eh]
    ---------------------

    Doubly Occupied:                                                      

       1A    -20.560551     2A    -11.282344     3A    -11.245739  
       4A    -11.242809     5A    -11.240799     6A    -11.238941  
       7A    -11.236108     8A    -11.234918     9A    -11.219972  
      10A     -1.356936    11A     -1.153813    12A     -1.049365  
      13A     -1.030251    14A     -0.944574    15A     -0.906631  
      16A     -0.822516    17A     -0.789580    18A     -0.699284  
      19A     -0.676808    20A     -0.648347    21A     -0.623738  
      22A     -0.604097    23A     -0.589599    24A     -0.573051  
      25A     -0.568303    26A     -0.543888    27A     -0.525686  
      28A     -0.500075    29A     -0.485714    30A     -0.473092  
      31A     -0.447311    32A     -0.334501    33A     -0.325807  

    Virtual:                                                              

      34A      0.028035    35A      0.031994    36A      0.034740  
      37A      0.042019    38A      0.044792    39A      0.048475  
      40A      0.059499    41A      0.063168    42A      0.069405  
      43A      0.082017    44A      0.084996    45A      0.097854  
      46A      0.100453    47A      0.102268    48A      0.110012  
      49A      0.113150    50A      0.113903    51A      0.121176  
      52A      0.125046    53A      0.126618    54A      0.132197  
      55A      0.136289    56A      0.138578    57A      0.141806  
      58A      0.147251    59A      0.147943    60A      0.151983  
      61A      0.156432    62A      0.159686    63A      0.161725  
      64A      0.171515    65A      0.178346    66A      0.181122  
      67A      0.183459    68A      0.186977    69A      0.190586  
      70A      0.213647    71A      0.216979    72A      0.223707  
      73A      0.227590    74A      0.242208    75A      0.248022  
      76A      0.250944    77A      0.253892    78A      0.255864  
      79A      0.268741    80A      0.279564    81A      0.283647  
      82A      0.287557    83A      0.290355    84A      0.295714  
      85A      0.301895    86A      0.307897    87A      0.310852  
      88A      0.316039    89A      0.323007    90A      0.329531  
      91A      0.332346    92A      0.339756    93A      0.343514  
      94A      0.346073    95A      0.349788    96A      0.361715  
      97A      0.364406    98A      0.369287    99A      0.374987  
     100A      0.380832   101A      0.382441   102A      0.388174  
     103A      0.394941   104A      0.398779   105A      0.400387  
     106A      0.405185   107A      0.413914   108A      0.417379  
     109A      0.426851   110A      0.433734   111A      0.437279  
     112A      0.440358   113A      0.446747   114A      0.451709  
     115A      0.451938   116A      0.458178   117A      0.459318  
     118A      0.472192   119A      0.473760   120A      0.478581  
     121A      0.482795   122A      0.485943   123A      0.488504  
     124A      0.490808   125A      0.499714   126A      0.502370  
     127A      0.505372   128A      0.510469   129A      0.514006  
     130A      0.518170   131A      0.523446   132A      0.525873  
     133A      0.532663   134A      0.537884   135A      0.544045  
     136A      0.548375   137A      0.553609   138A      0.559513  
     139A      0.561082   140A      0.565694   141A      0.571028  
     142A      0.578512   143A      0.582679   144A      0.588732  
     145A      0.593075   146A      0.594455   147A      0.607514  
     148A      0.609507   149A      0.622267   150A      0.624784  
     151A      0.635282   152A      0.641167   153A      0.650402  
     154A      0.660172   155A      0.669183   156A      0.675579  
     157A      0.682959   158A      0.698428   159A      0.703946  
     160A      0.707740   161A      0.713906   162A      0.719449  
     163A      0.726312   164A      0.733813   165A      0.737452  
     166A      0.749382   167A      0.757502   168A      0.769422  
     169A      0.775485   170A      0.782871   171A      0.796268  
     172A      0.801924   173A      0.806567   174A      0.825501  
     175A      0.832009   176A      0.837543   177A      0.838765  
     178A      0.847348   179A      0.849898   180A      0.857081  
     181A      0.862260   182A      0.871558   183A      0.880710  
     184A      0.881957   185A      0.889887   186A      0.898130  
     187A      0.906076   188A      0.909595   189A      0.911139  
     190A      0.917954   191A      0.918544   192A      0.927840  
     193A      0.934490   194A      0.942382   195A      0.943613  
     196A      0.949170   197A      0.952572   198A      0.960403  
     199A      0.970897   200A      0.977543   201A      0.981087  
     202A      0.988713   203A      0.991054   204A      0.993811  
     205A      1.004837   206A      1.012263   207A      1.020981  
     208A      1.023925   209A      1.029888   210A      1.033584  
     211A      1.042223   212A      1.045262   213A      1.052010  
     214A      1.058401   215A      1.065319   216A      1.066112  
     217A      1.075193   218A      1.078862   219A      1.086518  
     220A      1.093660   221A      1.099020   222A      1.102881  
     223A      1.107238   224A      1.117109   225A      1.120071  
     226A      1.121999   227A      1.130341   228A      1.135829  
     229A      1.144444   230A      1.153197   231A      1.158817  
     232A      1.169109   233A      1.172200   234A      1.175017  
     235A      1.181623   236A      1.188550   237A      1.191586  
     238A      1.197213   239A      1.207255   240A      1.212793  
     241A      1.219293   242A      1.226945   243A      1.232908  
     244A      1.239154   245A      1.245379   246A      1.252133  
     247A      1.264701   248A      1.270101   249A      1.271215  
     250A      1.278742   251A      1.283815   252A      1.289280  
     253A      1.304163   254A      1.318618   255A      1.323133  
     256A      1.342687   257A      1.348117   258A      1.352816  
     259A      1.354904   260A      1.371233   261A      1.379835  
     262A      1.388340   263A      1.390489   264A      1.394598  
     265A      1.405645   266A      1.416416   267A      1.422278  
     268A      1.433315   269A      1.440896   270A      1.444601  
     271A      1.458412   272A      1.468167   273A      1.472797  
     274A      1.485685   275A      1.489484   276A      1.498626  
     277A      1.505450   278A      1.519496   279A      1.521434  
     280A      1.531874   281A      1.544239   282A      1.549735  
     283A      1.569994   284A      1.574243   285A      1.585904  
     286A      1.590342   287A      1.594894   288A      1.607199  
     289A      1.623490   290A      1.628134   291A      1.631671  
     292A      1.640089   293A      1.651852   294A      1.661064  
     295A      1.667835   296A      1.686252   297A      1.692220  
     298A      1.701273   299A      1.713145   300A      1.719693  
     301A      1.728876   302A      1.741529   303A      1.750406  
     304A      1.763782   305A      1.769210   306A      1.777789  
     307A      1.782020   308A      1.792680   309A      1.799664  
     310A      1.810508   311A      1.828391   312A      1.840897  
     313A      1.842061   314A      1.850751   315A      1.853368  
     316A      1.863396   317A      1.870834   318A      1.879431  
     319A      1.884059   320A      1.898034   321A      1.918797  
     322A      1.924220   323A      1.930911   324A      1.945603  
     325A      1.959491   326A      1.970836   327A      1.980494  
     328A      1.984220   329A      2.000174   330A      2.012745  
     331A      2.017949   332A      2.022589   333A      2.035545  
     334A      2.041717   335A      2.044171   336A      2.051192  
     337A      2.072561   338A      2.078702   339A      2.085407  
     340A      2.091237   341A      2.102943   342A      2.115288  
     343A      2.121029   344A      2.129080   345A      2.145870  
     346A      2.153173   347A      2.165958   348A      2.173641  
     349A      2.177243   350A      2.181527   351A      2.200525  
     352A      2.206784   353A      2.210061   354A      2.232949  
     355A      2.238840   356A      2.246972   357A      2.257620  
     358A      2.261771   359A      2.284581   360A      2.295541  
     361A      2.297516   362A      2.319799   363A      2.335211  
     364A      2.342736   365A      2.351657   366A      2.354209  
     367A      2.369551   368A      2.401138   369A      2.412022  
     370A      2.423161   371A      2.432991   372A      2.442180  
     373A      2.460363   374A      2.465806   375A      2.489148  
     376A      2.518764   377A      2.554787   378A      2.559260  
     379A      2.583386   380A      2.590543   381A      2.600710  
     382A      2.614650   383A      2.627488   384A      2.654304  
     385A      2.683348   386A      2.707166   387A      2.711718  
     388A      2.735843   389A      2.741877   390A      2.752779  
     391A      2.778990   392A      2.788840   393A      2.812126  
     394A      2.840454   395A      2.852661   396A      2.880184  
     397A      2.909747   398A      2.927891   399A      2.960874  
     400A      2.976615   401A      2.986696   402A      3.007658  
     403A      3.028303   404A      3.066279   405A      3.084986  
     406A      3.116818   407A      3.175342   408A      3.199156  
     409A      3.213964   410A      3.221053   411A      3.255959  
     412A      3.273444   413A      3.309725   414A      3.328305  
     415A      3.339344   416A      3.362234   417A      3.378287  
     418A      3.380986   419A      3.389561   420A      3.398828  
     421A      3.418054   422A      3.444505   423A      3.458925  
     424A      3.479912   425A      3.481561   426A      3.492900  
     427A      3.503617   428A      3.519224   429A      3.534069  
     430A      3.544428   431A      3.552518   432A      3.566342  
     433A      3.571011   434A      3.577151   435A      3.586419  
     436A      3.593304   437A      3.619200   438A      3.634331  
     439A      3.645803   440A      3.661136   441A      3.664508  
     442A      3.681427   443A      3.694707   444A      3.711340  
     445A      3.717491   446A      3.730775   447A      3.737859  
     448A      3.749438   449A      3.762025   450A      3.778892  
     451A      3.784047   452A      3.813391   453A      3.829182  
     454A      3.834907   455A      3.844969   456A      3.854036  
     457A      3.864572   458A      3.882804   459A      3.891161  
     460A      3.896522   461A      3.909683   462A      3.926699  
     463A      3.930940   464A      3.942739   465A      3.943570  
     466A      3.956227   467A      3.973026   468A      3.987648  
     469A      3.996411   470A      4.007924   471A      4.013086  
     472A      4.020951   473A      4.034338   474A      4.041978  
     475A      4.047252   476A      4.057203   477A      4.063090  
     478A      4.068856   479A      4.090263   480A      4.102498  
     481A      4.120528   482A      4.142473   483A      4.145824  
     484A      4.158294   485A      4.160706   486A      4.174996  
     487A      4.205493   488A      4.210989   489A      4.214093  
     490A      4.229937   491A      4.237872   492A      4.249324  
     493A      4.259920   494A      4.265195   495A      4.276132  
     496A      4.289012   497A      4.304090   498A      4.310902  
     499A      4.320051   500A      4.334332   501A      4.342742  
     502A      4.365422   503A      4.371989   504A      4.379587  
     505A      4.390493   506A      4.397164   507A      4.409162  
     508A      4.419536   509A      4.427099   510A      4.446132  
     511A      4.454515   512A      4.458565   513A      4.465924  
     514A      4.487006   515A      4.499991   516A      4.518730  
     517A      4.531253   518A      4.544498   519A      4.564474  
     520A      4.570949   521A      4.577261   522A      4.607319  
     523A      4.630293   524A      4.639080   525A      4.650454  
     526A      4.668020   527A      4.685059   528A      4.701574  
     529A      4.710078   530A      4.721711   531A      4.730983  
     532A      4.735075   533A      4.753700   534A      4.768606  
     535A      4.784206   536A      4.803135   537A      4.813379  
     538A      4.819925   539A      4.842171   540A      4.857991  
     541A      4.896400   542A      4.906231   543A      4.923730  
     544A      4.926674   545A      4.939220   546A      4.955073  
     547A      4.965368   548A      4.980707   549A      4.989755  
     550A      5.015688   551A      5.041562   552A      5.043752  
     553A      5.056659   554A      5.069093   555A      5.083272  
     556A      5.122906   557A      5.128790   558A      5.141406  
     559A      5.154084   560A      5.164408   561A      5.169803  
     562A      5.202049   563A      5.219478   564A      5.222614  
     565A      5.233480   566A      5.250078   567A      5.259017  
     568A      5.269838   569A      5.278083   570A      5.292647  
     571A      5.324846   572A      5.330657   573A      5.395222  
     574A      5.402314   575A      5.412550   576A      5.424719  
     577A      5.446892   578A      5.459191   579A      5.472701  
     580A      5.481123   581A      5.497534   582A      5.507900  
     583A      5.540387   584A      5.588798   585A      5.613469  
     586A      5.633185   587A      5.654317   588A      5.662698  
     589A      5.709229   590A      5.729147   591A      5.736649  
     592A      5.767232   593A      5.784918   594A      5.802695  
     595A      5.819597   596A      5.899644   597A      5.918589  
     598A      6.001866   599A      6.093699   600A      6.102107  
     601A      6.165043   602A      6.184736   603A      6.205232  
     604A      6.208015   605A      6.250729   606A      6.254277  
     607A      6.272995   608A      6.300906   609A      6.320064  
     610A      6.330944   611A      6.408327   612A      6.500150  
     613A      6.522857   614A      6.559096   615A      6.690070  
     616A      6.711641   617A      6.806134   618A      6.809362  
     619A      6.856664   620A      6.955235   621A      6.972372  
     622A      6.995944   623A      7.014539   624A      7.092139  
     625A      7.170200   626A      7.249214   627A      7.339590  
     628A      7.391792   629A      7.495541   630A      7.521476  
     631A      7.682970   632A      7.826398   633A      7.985265  
     634A      8.240574   635A      8.589612   636A     16.027392  
     637A     16.267713   638A     16.360580   639A     17.710057  
     640A     18.917340   641A     19.147114   642A     19.947792  
     643A     20.310924   644A     21.031173  

    Final Occupation by Irrep:
              A 
    DOCC [    33 ]

  @DF-RHF Final Energy:  -383.75595993772339

   => Energetics <=

    Nuclear Repulsion Energy =            426.0669823353256334
    One-Electron Energy =               -1365.2955910948185192
    Two-Electron Energy =                 555.4726488217695533
    Total Energy =                       -383.7559599377233326

Computation Completed

*** tstop() called on c419-013.stampede2.tacc.utexas.edu at Sun Mar  7 10:07:47 2021
Module time:
	user time   =     595.72 seconds =       9.93 minutes
	system time =      41.41 seconds =       0.69 minutes
	total time  =         33 seconds =       0.55 minutes
Total time:
	user time   =     595.72 seconds =       9.93 minutes
	system time =      41.41 seconds =       0.69 minutes
	total time  =         33 seconds =       0.55 minutes
   => Loading Basis Set <=

    Name: (AUG-CC-PVTZ AUX)
    Role: RIFIT
    Keyword: DF_BASIS_MP2
    atoms 1     entry O          line   264 file /home1/07844/xy3866/miniconda3/envs/p4env/share/psi4/basis/aug-cc-pvtz-ri.gbs 
    atoms 2-9   entry C          line   148 file /home1/07844/xy3866/miniconda3/envs/p4env/share/psi4/basis/aug-cc-pvtz-ri.gbs 
    atoms 10-19 entry H          line    30 file /home1/07844/xy3866/miniconda3/envs/p4env/share/psi4/basis/aug-cc-pvtz-ri.gbs 


*** tstart() called on c419-013.stampede2.tacc.utexas.edu
*** at Sun Mar  7 10:07:48 2021


  //>>>>>>>>>>>>>>>>>>>>>>>>>>>>>>>>>>>//
  //               DFMP2               //
  //<<<<<<<<<<<<<<<<<<<<<<<<<<<<<<<<<<<//

	 --------------------------------------------------------
	                          DF-MP2                         
	      2nd-Order Density-Fitted Moller-Plesset Theory     
	              RMP2 Wavefunction,  32 Threads             
	                                                         
	        Rob Parrish, Justin Turney, Andy Simmonett,      
	           Ed Hohenstein, and C. David Sherrill          
	 --------------------------------------------------------

   => Auxiliary Basis Set <=

  Basis Set: (AUG-CC-PVTZ AUX)
    Blend: AUG-CC-PVTZ-RI
    Number of shells: 392
    Number of basis functions: 1414
    Number of Cartesian functions: 1774
    Spherical Harmonics?: true
    Max angular momentum: 4

	 --------------------------------------------------------
	                 NBF =   644, NAUX =  1414
	 --------------------------------------------------------
	   CLASS    FOCC     OCC    AOCC    AVIR     VIR    FVIR
	   PAIRS       0      33      33     611     611       0
	 --------------------------------------------------------

  DFHelper Memory: AOs need 4.341 GiB; user supplied 22.352 GiB. Using in-core AOs.


         ------------------------------------------------------------
                                     CPHF                           
                                  Rob Parrish                       
         ------------------------------------------------------------

  ==> Geometry <==

    Molecular point group: c1
    Full point group: C1

    Geometry (in Angstrom), charge = 0, multiplicity = 1:

       Center              X                  Y                   Z               Mass       
    ------------   -----------------  -----------------  -----------------  -----------------
         O            2.552015284560    -0.533779324115     0.699522785536    15.994914619570
         C            0.314926284560    -0.416421324115    -0.278234214464    12.000000000000
         C           -0.080414715440     0.924871675885    -0.093208214464    12.000000000000
         C            1.766106284560    -0.768855324115    -0.477412214464    12.000000000000
         C           -0.649498715440    -1.485439924115    -0.200839714464    12.000000000000
         C           -1.433127715440     1.197076675885     0.136331785536    12.000000000000
         C            0.920949284560     2.047743675885    -0.187779214464    12.000000000000
         C           -1.985061715440    -1.151858324115     0.032064785536    12.000000000000
         C           -2.380847715440     0.173109675885     0.208892785536    12.000000000000
         H            1.849759284560    -1.817154324115    -0.799125214464     1.007825032230
         H            2.224755284560    -0.148410324115    -1.252221214464     1.007825032230
         H           -0.322013715440    -2.471181324115    -0.339748214464     1.007825032230
         H           -1.748565715440     2.229951675885     0.275411785536     1.007825032230
         H            1.809933284560     1.826009675885     0.406171785536     1.007825032230
         H            1.243679284560     2.202792675885    -1.224047214464     1.007825032230
         H            0.482275284560     2.984460675885     0.166572785536     1.007825032230
         H           -2.714135715440    -1.956705324115     0.086457785536     1.007825032230
         H           -3.425678715440     0.413225675885     0.391962785536     1.007825032230
         H            2.092669284560    -0.985775324115     1.428696785536     1.007825032230

  Nuclear repulsion =  426.066982335325633
  Reference energy  = -383.755959937723389

  ==> Basis Set <==

  Basis Set: AUG-CC-PVTZ
    Blend: AUG-CC-PVTZ
    Number of shells: 216
    Number of basis functions: 644
    Number of Cartesian functions: 745
    Spherical Harmonics?: true
    Max angular momentum: 3

  ==> CGRSolver (by Rob Parrish) <==

   Number of roots    =         1
   Preconditioning    =    JACOBI
   Convergence cutoff =     1E-06
   Maximum iterations =       100

  ==> CPHFRHamiltonian (by Rob Parrish) <== 

  ==> MemDFJK: Density-Fitted J/K Matrices <==

    J tasked:                   Yes
    K tasked:                   Yes
    wK tasked:                   No
    OpenMP threads:              32
    Memory [MiB]:             22888
    Algorithm:                 Core
    Schwarz Cutoff:           1E-12
    Mask sparsity (%):       3.9374
    Fitting Condition:        1E-10

   => Auxiliary Basis Set <=

  Basis Set: (AUG-CC-PVTZ AUX)
    Blend: AUG-CC-PVTZ-JKFIT
    Number of shells: 410
    Number of basis functions: 1396
    Number of Cartesian functions: 1729
    Spherical Harmonics?: true
    Max angular momentum: 4

  ==> CPHF Iterations <==

  => Iterations <=

             Iter  Converged  Remaining    Residual
  CGR           1          0          1   7.501E-02
  CGR           2          0          1   1.770E-02
  CGR           3          0          1   6.674E-03
  CGR           4          0          1   2.581E-03
  CGR           5          0          1   1.197E-03
  CGR           6          0          1   6.535E-04
  CGR           7          0          1   2.545E-04
  CGR           8          0          1   8.784E-05
  CGR           9          0          1   2.670E-05
  CGR          10          0          1   6.667E-06
  CGR          11          0          1   2.928E-06
  CGR          12          0          1   1.224E-06
  CGR          13          1          0   5.613E-07

    CGRSolver converged.

	-----------------------------------------------------------
	 ==================> DF-MP2 Energies <==================== 
	-----------------------------------------------------------
	 Reference Energy          =    -383.7559599377233894 [Eh]
	 Singles Energy            =      -0.0000000000000000 [Eh]
	 Same-Spin Energy          =      -0.4132613037416125 [Eh]
	 Opposite-Spin Energy      =      -1.3211594313391752 [Eh]
	 Correlation Energy        =      -1.7344207350807879 [Eh]
	 Total Energy              =    -385.4903806728041786 [Eh]
	-----------------------------------------------------------
	 ================> DF-SCS-MP2 Energies <================== 
	-----------------------------------------------------------
	 SCS Same-Spin Scale       =       0.3333333333333333 [-]
	 SCS Opposite-Spin Scale   =       1.2000000000000000 [-]
	 SCS Same-Spin Energy      =      -0.1377537679138708 [Eh]
	 SCS Opposite-Spin Energy  =      -1.5853913176070102 [Eh]
	 SCS Correlation Energy    =      -1.7231450855208810 [Eh]
	 SCS Total Energy          =    -385.4791050232442444 [Eh]
	-----------------------------------------------------------



Properties will be evaluated at  -0.000000,  -0.000000,  -0.000000 [a0]

Properties computed using the MP2 density matrix

  Nuclear Dipole Moment: [e a0]
     X:     1.4116      Y:     2.1323      Z:    -0.8027

  Electronic Dipole Moment: [e a0]
     X:    -1.8830      Y:    -2.2894      Z:     0.7613

  Dipole Moment: [e a0]
     X:    -0.4713      Y:    -0.1572      Z:    -0.0414     Total:     0.4986

  Dipole Moment: [D]
     X:    -1.1981      Y:    -0.3994      Z:    -0.1052     Total:     1.2673


*** tstop() called on c419-013.stampede2.tacc.utexas.edu at Sun Mar  7 10:10:59 2021
Module time:
	user time   =    1690.19 seconds =      28.17 minutes
	system time =      57.42 seconds =       0.96 minutes
	total time  =        191 seconds =       3.18 minutes
Total time:
	user time   =    2286.85 seconds =      38.11 minutes
	system time =      98.86 seconds =       1.65 minutes
	total time  =        225 seconds =       3.75 minutes

    Psi4 stopped on: Sunday, 07 March 2021 10:11AM
    Psi4 wall time for execution: 0:03:46.81

*** Psi4 exiting successfully. Buy a developer a beer!
