
    -----------------------------------------------------------------------
          Psi4: An Open-Source Ab Initio Electronic Structure Package
                               Psi4 1.4a3.dev225 

                         Git: Rev {master} 7105e37 


    D. G. A. Smith, L. A. Burns, A. C. Simmonett, R. M. Parrish,
    M. C. Schieber, R. Galvelis, P. Kraus, H. Kruse, R. Di Remigio,
    A. Alenaizan, A. M. James, S. Lehtola, J. P. Misiewicz, M. Scheurer,
    R. A. Shaw, J. B. Schriber, Y. Xie, Z. L. Glick, D. A. Sirianni,
    J. S. O'Brien, J. M. Waldrop, A. Kumar, E. G. Hohenstein,
    B. P. Pritchard, B. R. Brooks, H. F. Schaefer III, A. Yu. Sokolov,
    K. Patkowski, A. E. DePrince III, U. Bozkaya, R. A. King,
    F. A. Evangelista, J. M. Turney, T. D. Crawford, C. D. Sherrill,
    J. Chem. Phys. 152(18) 184108 (2020). https://doi.org/10.1063/5.0006002

                            Additional Code Authors
    E. T. Seidl, C. L. Janssen, E. F. Valeev, M. L. Leininger,
    J. F. Gonthier, R. M. Richard, H. R. McAlexander, M. Saitow, X. Wang,
    P. Verma, and M. H. Lechner

             Previous Authors, Complete List of Code Contributors,
                       and Citations for Specific Modules
    https://github.com/psi4/psi4/blob/master/codemeta.json
    https://github.com/psi4/psi4/graphs/contributors
    http://psicode.org/psi4manual/master/introduction.html#citing-psifour

    -----------------------------------------------------------------------


    Psi4 started on: Sunday, 07 March 2021 09:51AM

    Process ID: 12663
    Host:       c419-013.stampede2.tacc.utexas.edu
    PSIDATADIR: /home1/07844/xy3866/miniconda3/envs/p4env/share/psi4
    Memory:     500.0 MiB
    Threads:    32
    
  ==> Input File <==

--------------------------------------------------------------------------
#psi4
#
memory 32 gb

molecule  {
0 1
  O        2.5396650    -0.5551780     0.7057380
  C        0.3025760    -0.4378200    -0.2720190
  C       -0.0927650     0.9034730    -0.0869930
  C        1.7537560    -0.7902540    -0.4711970
  C       -0.6407781    -1.4118327    -0.1894827
  C       -1.4454780     1.1756780     0.1425470
  C        0.9085990     2.0263450    -0.1815640
  C       -1.9974120    -1.1732570     0.0382800
  C       -2.3931980     0.1517110     0.2151080
  H        1.8374090    -1.8385530    -0.7929100
  H        2.2124050    -0.1698090    -1.2460060
  H       -0.3343640    -2.4925800    -0.3335330
  H       -1.7609160     2.2085530     0.2816270
  H        1.7975830     1.8046110     0.4123870
  H        1.2313290     2.1813940    -1.2178320
  H        0.4699250     2.9630620     0.1727880
  H       -2.7264860    -1.9781040     0.0926730
  H       -3.4380290     0.3918270     0.3981780
  H        2.0803190    -1.0071740     1.4349120
units angstrom
no_reorient  #important for SAPT in psi4, default
symmetry c1  #important for SAPT in psi4, default
}

set PROPERTIES_ORIGIN ["COM"]
properties('MP2/aug-cc-pvtz', properties = ['dipole'])
--------------------------------------------------------------------------

  Memory set to  29.802 GiB by Python driver.
    SCF Algorithm Type (re)set to DF.

*** tstart() called on c419-013.stampede2.tacc.utexas.edu
*** at Sun Mar  7 09:51:34 2021

   => Loading Basis Set <=

    Name: AUG-CC-PVTZ
    Role: ORBITAL
    Keyword: BASIS
    atoms 1     entry O          line   331 file /home1/07844/xy3866/miniconda3/envs/p4env/share/psi4/basis/aug-cc-pvtz.gbs 
    atoms 2-9   entry C          line   239 file /home1/07844/xy3866/miniconda3/envs/p4env/share/psi4/basis/aug-cc-pvtz.gbs 
    atoms 10-19 entry H          line    40 file /home1/07844/xy3866/miniconda3/envs/p4env/share/psi4/basis/aug-cc-pvtz.gbs 


         ---------------------------------------------------------
                                   SCF
               by Justin Turney, Rob Parrish, Andy Simmonett
                          and Daniel G. A. Smith
                              RHF Reference
                       32 Threads,  30517 MiB Core
         ---------------------------------------------------------

  ==> Geometry <==

    Molecular point group: c1
    Full point group: C1

    Geometry (in Angstrom), charge = 0, multiplicity = 1:

       Center              X                  Y                   Z               Mass       
    ------------   -----------------  -----------------  -----------------  -----------------
         O            2.549943979207    -0.543118565876     0.699017337840    15.994914619570
         C            0.312854979207    -0.425760565876    -0.278739662160    12.000000000000
         C           -0.082486020793     0.915532434124    -0.093713662160    12.000000000000
         C            1.764034979207    -0.778194565876    -0.477917662160    12.000000000000
         C           -0.630499120793    -1.399773265876    -0.196203362160    12.000000000000
         C           -1.435199020793     1.187737434124     0.135826337840    12.000000000000
         C            0.918877979207     2.038404434124    -0.188284662160    12.000000000000
         C           -1.987133020793    -1.161197565876     0.031559337840    12.000000000000
         C           -2.382919020793     0.163770434124     0.208387337840    12.000000000000
         H            1.847687979207    -1.826493565876    -0.799630662160     1.007825032230
         H            2.222683979207    -0.157749565876    -1.252726662160     1.007825032230
         H           -0.324085020793    -2.480520565876    -0.340253662160     1.007825032230
         H           -1.750637020793     2.220612434124     0.274906337840     1.007825032230
         H            1.807861979207     1.816670434124     0.405666337840     1.007825032230
         H            1.241607979207     2.193453434124    -1.224552662160     1.007825032230
         H            0.480203979207     2.975121434124     0.166067337840     1.007825032230
         H           -2.716207020793    -1.966044565876     0.085952337840     1.007825032230
         H           -3.427750020793     0.403886434124     0.391457337840     1.007825032230
         H            2.090597979207    -0.995114565876     1.428191337840     1.007825032230

  Running in c1 symmetry.

  Rotational constants: A =      0.09004  B =      0.04712  C =      0.03332 [cm^-1]
  Rotational constants: A =   2699.47859  B =   1412.66268  C =    998.96541 [MHz]
  Nuclear repulsion =  427.771533209824213

  Charge       = 0
  Multiplicity = 1
  Electrons    = 66
  Nalpha       = 33
  Nbeta        = 33

  ==> Algorithm <==

  SCF Algorithm Type is DF.
  DIIS enabled.
  MOM disabled.
  Fractional occupation disabled.
  Guess Type is SAD.
  Energy threshold   = 1.00e-10
  Density threshold  = 1.00e-10
  Integral threshold = 1.00e-12

  ==> Primary Basis <==

  Basis Set: AUG-CC-PVTZ
    Blend: AUG-CC-PVTZ
    Number of shells: 216
    Number of basis functions: 644
    Number of Cartesian functions: 745
    Spherical Harmonics?: true
    Max angular momentum: 3

   => Loading Basis Set <=

    Name: (AUG-CC-PVTZ AUX)
    Role: JKFIT
    Keyword: DF_BASIS_SCF
    atoms 1     entry O          line   286 file /home1/07844/xy3866/miniconda3/envs/p4env/share/psi4/basis/aug-cc-pvtz-jkfit.gbs 
    atoms 2-9   entry C          line   162 file /home1/07844/xy3866/miniconda3/envs/p4env/share/psi4/basis/aug-cc-pvtz-jkfit.gbs 
    atoms 10-19 entry H          line    70 file /home1/07844/xy3866/miniconda3/envs/p4env/share/psi4/basis/aug-cc-pvtz-jkfit.gbs 

  ==> Integral Setup <==

  DFHelper Memory: AOs need 4.226 GiB; user supplied 22.352 GiB. Using in-core AOs.

  ==> MemDFJK: Density-Fitted J/K Matrices <==

    J tasked:                   Yes
    K tasked:                   Yes
    wK tasked:                   No
    OpenMP threads:              32
    Memory [MiB]:             22888
    Algorithm:                 Core
    Schwarz Cutoff:           1E-12
    Mask sparsity (%):       6.5849
    Fitting Condition:        1E-10

   => Auxiliary Basis Set <=

  Basis Set: (AUG-CC-PVTZ AUX)
    Blend: AUG-CC-PVTZ-JKFIT
    Number of shells: 410
    Number of basis functions: 1396
    Number of Cartesian functions: 1729
    Spherical Harmonics?: true
    Max angular momentum: 4

  Minimum eigenvalue in the overlap matrix is 4.8260042530E-07.
  Reciprocal condition number of the overlap matrix is 2.3707499568E-08.
    Using symmetric orthogonalization.

  ==> Pre-Iterations <==

  SCF Guess: Superposition of Atomic Densities via on-the-fly atomic UHF (no occupation information).

   -------------------------
    Irrep   Nso     Nmo    
   -------------------------
     A        644     644 
   -------------------------
    Total     644     644
   -------------------------

  ==> Iterations <==

                           Total Energy        Delta E     RMS |[F,P]|

   @DF-RHF iter SAD:  -383.16545967303193   -3.83165e+02   0.00000e+00 
   @DF-RHF iter   1:  -383.46419319086175   -2.98734e-01   1.08987e-03 DIIS
   @DF-RHF iter   2:  -383.69979710616354   -2.35604e-01   5.35635e-04 DIIS
   @DF-RHF iter   3:  -383.75331831322785   -5.35212e-02   1.06956e-04 DIIS
   @DF-RHF iter   4:  -383.75660552816652   -3.28721e-03   3.75616e-05 DIIS
   @DF-RHF iter   5:  -383.75694832040574   -3.42792e-04   9.16044e-06 DIIS
   @DF-RHF iter   6:  -383.75697259171153   -2.42713e-05   2.97694e-06 DIIS
   @DF-RHF iter   7:  -383.75697595142293   -3.35971e-06   1.01852e-06 DIIS
   @DF-RHF iter   8:  -383.75697650329971   -5.51877e-07   3.77536e-07 DIIS
   @DF-RHF iter   9:  -383.75697663186099   -1.28561e-07   1.82628e-07 DIIS
   @DF-RHF iter  10:  -383.75697666864545   -3.67845e-08   7.70420e-08 DIIS
   @DF-RHF iter  11:  -383.75697667803513   -9.38968e-09   2.64386e-08 DIIS
   @DF-RHF iter  12:  -383.75697667888147   -8.46342e-10   1.27452e-08 DIIS
   @DF-RHF iter  13:  -383.75697667897737   -9.58948e-11   3.21982e-09 DIIS
   @DF-RHF iter  14:  -383.75697667898288   -5.51381e-12   1.00545e-09 DIIS
   @DF-RHF iter  15:  -383.75697667898373   -8.52651e-13   3.87243e-10 DIIS
   @DF-RHF iter  16:  -383.75697667898555   -1.81899e-12   1.63863e-10 DIIS
   @DF-RHF iter  17:  -383.75697667898436    1.19371e-12   8.27284e-11 DIIS
  Energy and wave function converged.


  ==> Post-Iterations <==

    Orbital Energies [Eh]
    ---------------------

    Doubly Occupied:                                                      

       1A    -20.561359     2A    -11.283278     3A    -11.246192  
       4A    -11.239213     5A    -11.238715     6A    -11.234643  
       7A    -11.233720     8A    -11.232346     9A    -11.219781  
      10A     -1.357763    11A     -1.162009    12A     -1.049668  
      13A     -1.035190    14A     -0.942817    15A     -0.910970  
      16A     -0.814392    17A     -0.795598    18A     -0.702824  
      19A     -0.672994    20A     -0.644659    21A     -0.624721  
      22A     -0.606355    23A     -0.584711    24A     -0.571842  
      25A     -0.568835    26A     -0.543116    27A     -0.526896  
      28A     -0.491040    29A     -0.486766    30A     -0.482673  
      31A     -0.447173    32A     -0.341741    33A     -0.324900  

    Virtual:                                                              

      34A      0.028063    35A      0.032202    36A      0.034695  
      37A      0.042008    38A      0.044796    39A      0.048421  
      40A      0.059351    41A      0.063219    42A      0.069674  
      43A      0.082234    44A      0.084929    45A      0.099499  
      46A      0.100636    47A      0.103740    48A      0.109464  
      49A      0.113214    50A      0.114561    51A      0.122167  
      52A      0.125309    53A      0.126662    54A      0.130897  
      55A      0.135840    56A      0.138808    57A      0.142487  
      58A      0.147496    59A      0.148143    60A      0.152742  
      61A      0.155660    62A      0.159558    63A      0.161976  
      64A      0.171713    65A      0.177798    66A      0.181724  
      67A      0.185258    68A      0.186174    69A      0.190445  
      70A      0.212531    71A      0.216783    72A      0.224281  
      73A      0.229632    74A      0.241723    75A      0.248145  
      76A      0.249784    77A      0.254008    78A      0.255915  
      79A      0.269381    80A      0.277506    81A      0.282148  
      82A      0.288430    83A      0.288647    84A      0.294505  
      85A      0.302064    86A      0.308549    87A      0.311814  
      88A      0.316002    89A      0.323143    90A      0.329746  
      91A      0.332625    92A      0.339998    93A      0.343531  
      94A      0.346277    95A      0.349290    96A      0.362569  
      97A      0.363718    98A      0.370961    99A      0.374779  
     100A      0.379804   101A      0.383050   102A      0.389529  
     103A      0.394763   104A      0.399082   105A      0.403178  
     106A      0.405940   107A      0.414845   108A      0.417602  
     109A      0.428127   110A      0.433010   111A      0.434320  
     112A      0.438453   113A      0.444545   114A      0.450843  
     115A      0.454504   116A      0.456506   117A      0.459085  
     118A      0.472596   119A      0.473271   120A      0.478268  
     121A      0.482515   122A      0.484627   123A      0.487487  
     124A      0.489357   125A      0.501399   126A      0.504358  
     127A      0.504889   128A      0.510629   129A      0.514585  
     130A      0.518614   131A      0.522691   132A      0.525584  
     133A      0.531752   134A      0.536997   135A      0.544650  
     136A      0.547903   137A      0.555702   138A      0.559344  
     139A      0.561764   140A      0.566663   141A      0.573298  
     142A      0.580803   143A      0.581883   144A      0.589240  
     145A      0.593758   146A      0.595146   147A      0.606932  
     148A      0.609595   149A      0.621532   150A      0.624137  
     151A      0.635942   152A      0.642207   153A      0.649058  
     154A      0.660644   155A      0.670470   156A      0.675528  
     157A      0.684388   158A      0.697461   159A      0.702250  
     160A      0.705150   161A      0.714585   162A      0.718214  
     163A      0.724826   164A      0.730962   165A      0.741191  
     166A      0.752733   167A      0.763091   168A      0.771216  
     169A      0.776758   170A      0.786065   171A      0.798118  
     172A      0.803723   173A      0.811365   174A      0.823541  
     175A      0.829279   176A      0.834902   177A      0.842516  
     178A      0.850762   179A      0.856357   180A      0.856477  
     181A      0.863116   182A      0.866476   183A      0.874207  
     184A      0.886387   185A      0.891368   186A      0.895685  
     187A      0.909963   188A      0.912624   189A      0.916290  
     190A      0.920410   191A      0.925139   192A      0.926472  
     193A      0.934583   194A      0.939403   195A      0.942737  
     196A      0.950217   197A      0.950899   198A      0.960412  
     199A      0.973268   200A      0.978172   201A      0.983166  
     202A      0.991963   203A      0.993677   204A      1.000808  
     205A      1.005205   206A      1.010779   207A      1.023664  
     208A      1.024114   209A      1.027354   210A      1.042951  
     211A      1.045016   212A      1.046862   213A      1.056984  
     214A      1.058775   215A      1.063194   216A      1.065198  
     217A      1.073124   218A      1.079689   219A      1.083981  
     220A      1.100505   221A      1.103852   222A      1.107734  
     223A      1.111903   224A      1.117126   225A      1.121885  
     226A      1.124014   227A      1.128477   228A      1.136570  
     229A      1.145022   230A      1.149753   231A      1.157919  
     232A      1.165105   233A      1.171122   234A      1.175205  
     235A      1.177832   236A      1.187965   237A      1.189758  
     238A      1.199918   239A      1.207238   240A      1.212454  
     241A      1.222084   242A      1.226917   243A      1.229837  
     244A      1.235958   245A      1.246146   246A      1.252807  
     247A      1.261422   248A      1.268033   249A      1.273754  
     250A      1.276228   251A      1.284037   252A      1.290826  
     253A      1.301715   254A      1.320936   255A      1.324747  
     256A      1.338957   257A      1.346221   258A      1.354328  
     259A      1.359607   260A      1.372638   261A      1.380487  
     262A      1.386675   263A      1.389722   264A      1.396573  
     265A      1.406474   266A      1.416224   267A      1.417698  
     268A      1.431538   269A      1.437801   270A      1.445522  
     271A      1.456556   272A      1.468927   273A      1.472968  
     274A      1.482904   275A      1.491890   276A      1.502295  
     277A      1.502555   278A      1.516610   279A      1.524277  
     280A      1.533916   281A      1.541911   282A      1.550059  
     283A      1.568404   284A      1.575301   285A      1.592661  
     286A      1.595601   287A      1.600305   288A      1.609099  
     289A      1.624547   290A      1.631626   291A      1.635848  
     292A      1.640708   293A      1.653372   294A      1.664453  
     295A      1.668748   296A      1.687730   297A      1.692764  
     298A      1.703355   299A      1.712331   300A      1.716438  
     301A      1.730638   302A      1.744996   303A      1.752197  
     304A      1.761712   305A      1.771574   306A      1.781545  
     307A      1.783639   308A      1.790044   309A      1.804224  
     310A      1.810305   311A      1.827209   312A      1.836229  
     313A      1.843933   314A      1.849249   315A      1.860303  
     316A      1.863966   317A      1.868173   318A      1.881117  
     319A      1.888685   320A      1.902436   321A      1.914744  
     322A      1.924316   323A      1.929663   324A      1.945255  
     325A      1.959755   326A      1.975601   327A      1.981260  
     328A      1.987719   329A      1.998810   330A      2.010406  
     331A      2.016579   332A      2.017958   333A      2.030422  
     334A      2.045372   335A      2.050480   336A      2.054331  
     337A      2.075095   338A      2.081619   339A      2.087869  
     340A      2.094076   341A      2.099260   342A      2.123446  
     343A      2.124964   344A      2.135556   345A      2.146370  
     346A      2.157224   347A      2.171868   348A      2.180442  
     349A      2.182260   350A      2.189146   351A      2.200226  
     352A      2.207817   353A      2.214100   354A      2.237390  
     355A      2.239795   356A      2.247198   357A      2.253521  
     358A      2.259441   359A      2.285776   360A      2.296384  
     361A      2.303096   362A      2.319698   363A      2.339533  
     364A      2.345410   365A      2.357315   366A      2.361520  
     367A      2.374245   368A      2.402070   369A      2.402887  
     370A      2.418346   371A      2.438328   372A      2.452243  
     373A      2.468394   374A      2.472075   375A      2.493240  
     376A      2.530774   377A      2.557157   378A      2.570190  
     379A      2.583617   380A      2.590517   381A      2.598824  
     382A      2.616434   383A      2.631110   384A      2.658304  
     385A      2.686458   386A      2.717760   387A      2.728878  
     388A      2.737805   389A      2.750205   390A      2.759782  
     391A      2.779914   392A      2.788217   393A      2.814263  
     394A      2.849403   395A      2.851338   396A      2.880616  
     397A      2.920186   398A      2.936745   399A      2.966654  
     400A      2.995502   401A      3.006444   402A      3.022136  
     403A      3.029467   404A      3.078393   405A      3.090012  
     406A      3.121518   407A      3.165933   408A      3.213512  
     409A      3.223734   410A      3.239525   411A      3.259887  
     412A      3.280593   413A      3.320202   414A      3.331888  
     415A      3.355034   416A      3.368230   417A      3.374785  
     418A      3.385044   419A      3.396258   420A      3.405716  
     421A      3.427554   422A      3.451643   423A      3.475887  
     424A      3.480762   425A      3.489771   426A      3.497239  
     427A      3.511227   428A      3.519580   429A      3.528208  
     430A      3.547174   431A      3.566082   432A      3.571394  
     433A      3.576794   434A      3.581037   435A      3.587208  
     436A      3.598715   437A      3.628076   438A      3.638691  
     439A      3.650975   440A      3.666475   441A      3.677067  
     442A      3.688151   443A      3.697046   444A      3.713370  
     445A      3.725440   446A      3.735909   447A      3.749601  
     448A      3.755087   449A      3.766541   450A      3.783353  
     451A      3.792316   452A      3.821979   453A      3.829817  
     454A      3.842179   455A      3.844108   456A      3.862610  
     457A      3.862931   458A      3.885706   459A      3.897286  
     460A      3.899773   461A      3.911654   462A      3.917363  
     463A      3.931643   464A      3.942051   465A      3.947786  
     466A      3.956230   467A      3.968240   468A      3.989066  
     469A      4.004032   470A      4.008219   471A      4.015891  
     472A      4.023684   473A      4.033873   474A      4.041641  
     475A      4.047279   476A      4.052854   477A      4.074349  
     478A      4.084556   479A      4.086432   480A      4.104822  
     481A      4.124313   482A      4.147742   483A      4.153841  
     484A      4.161323   485A      4.170228   486A      4.176786  
     487A      4.201779   488A      4.213565   489A      4.222971  
     490A      4.234431   491A      4.236756   492A      4.249065  
     493A      4.263430   494A      4.271443   495A      4.274455  
     496A      4.292300   497A      4.306680   498A      4.310641  
     499A      4.315806   500A      4.340121   501A      4.341381  
     502A      4.352636   503A      4.373579   504A      4.381915  
     505A      4.388902   506A      4.404694   507A      4.411856  
     508A      4.424473   509A      4.437661   510A      4.456074  
     511A      4.460759   512A      4.469947   513A      4.476262  
     514A      4.481340   515A      4.501361   516A      4.518438  
     517A      4.530865   518A      4.555516   519A      4.569092  
     520A      4.580556   521A      4.587517   522A      4.604526  
     523A      4.629513   524A      4.645640   525A      4.653659  
     526A      4.672174   527A      4.690758   528A      4.694565  
     529A      4.703257   530A      4.727159   531A      4.735967  
     532A      4.744244   533A      4.749221   534A      4.768929  
     535A      4.799419   536A      4.815709   537A      4.817435  
     538A      4.825037   539A      4.843630   540A      4.870894  
     541A      4.899132   542A      4.914222   543A      4.920044  
     544A      4.927158   545A      4.948357   546A      4.967286  
     547A      4.970922   548A      4.979666   549A      5.006514  
     550A      5.028270   551A      5.047282   552A      5.056962  
     553A      5.060225   554A      5.084910   555A      5.097444  
     556A      5.102092   557A      5.124206   558A      5.137079  
     559A      5.151752   560A      5.156038   561A      5.170375  
     562A      5.171353   563A      5.220183   564A      5.224068  
     565A      5.232937   566A      5.246328   567A      5.253294  
     568A      5.265777   569A      5.293306   570A      5.301641  
     571A      5.327005   572A      5.333645   573A      5.357572  
     574A      5.400952   575A      5.418770   576A      5.423483  
     577A      5.449778   578A      5.458257   579A      5.471531  
     580A      5.477732   581A      5.490923   582A      5.516359  
     583A      5.522521   584A      5.590406   585A      5.598711  
     586A      5.635537   587A      5.654509   588A      5.655863  
     589A      5.708065   590A      5.712831   591A      5.745769  
     592A      5.756068   593A      5.767848   594A      5.797672  
     595A      5.823457   596A      5.855811   597A      5.912707  
     598A      6.007107   599A      6.066885   600A      6.105381  
     601A      6.125967   602A      6.177583   603A      6.210173  
     604A      6.220841   605A      6.252283   606A      6.260584  
     607A      6.275312   608A      6.324245   609A      6.333563  
     610A      6.356192   611A      6.419544   612A      6.504076  
     613A      6.544314   614A      6.573875   615A      6.689058  
     616A      6.708187   617A      6.806932   618A      6.815513  
     619A      6.869264   620A      6.971301   621A      6.984315  
     622A      6.998858   623A      7.020851   624A      7.098187  
     625A      7.171254   626A      7.287207   627A      7.340146  
     628A      7.391978   629A      7.495196   630A      7.522611  
     631A      7.683982   632A      7.828968   633A      7.985528  
     634A      8.243418   635A      8.590694   636A     16.280139  
     637A     16.340916   638A     16.547842   639A     17.739035  
     640A     18.989962   641A     19.102152   642A     20.250347  
     643A     20.537341   644A     21.161276  

    Final Occupation by Irrep:
              A 
    DOCC [    33 ]

  @DF-RHF Final Energy:  -383.75697667898436

   => Energetics <=

    Nuclear Repulsion Energy =            427.7715332098242129
    One-Electron Energy =               -1368.6992196372405033
    Two-Electron Energy =                 557.1707097484319320
    Total Energy =                       -383.7569766789844152

Computation Completed

*** tstop() called on c419-013.stampede2.tacc.utexas.edu at Sun Mar  7 09:52:08 2021
Module time:
	user time   =     591.77 seconds =       9.86 minutes
	system time =      42.97 seconds =       0.72 minutes
	total time  =         34 seconds =       0.57 minutes
Total time:
	user time   =     591.77 seconds =       9.86 minutes
	system time =      42.97 seconds =       0.72 minutes
	total time  =         34 seconds =       0.57 minutes
   => Loading Basis Set <=

    Name: (AUG-CC-PVTZ AUX)
    Role: RIFIT
    Keyword: DF_BASIS_MP2
    atoms 1     entry O          line   264 file /home1/07844/xy3866/miniconda3/envs/p4env/share/psi4/basis/aug-cc-pvtz-ri.gbs 
    atoms 2-9   entry C          line   148 file /home1/07844/xy3866/miniconda3/envs/p4env/share/psi4/basis/aug-cc-pvtz-ri.gbs 
    atoms 10-19 entry H          line    30 file /home1/07844/xy3866/miniconda3/envs/p4env/share/psi4/basis/aug-cc-pvtz-ri.gbs 


*** tstart() called on c419-013.stampede2.tacc.utexas.edu
*** at Sun Mar  7 09:52:09 2021


  //>>>>>>>>>>>>>>>>>>>>>>>>>>>>>>>>>>>//
  //               DFMP2               //
  //<<<<<<<<<<<<<<<<<<<<<<<<<<<<<<<<<<<//

	 --------------------------------------------------------
	                          DF-MP2                         
	      2nd-Order Density-Fitted Moller-Plesset Theory     
	              RMP2 Wavefunction,  32 Threads             
	                                                         
	        Rob Parrish, Justin Turney, Andy Simmonett,      
	           Ed Hohenstein, and C. David Sherrill          
	 --------------------------------------------------------

   => Auxiliary Basis Set <=

  Basis Set: (AUG-CC-PVTZ AUX)
    Blend: AUG-CC-PVTZ-RI
    Number of shells: 392
    Number of basis functions: 1414
    Number of Cartesian functions: 1774
    Spherical Harmonics?: true
    Max angular momentum: 4

	 --------------------------------------------------------
	                 NBF =   644, NAUX =  1414
	 --------------------------------------------------------
	   CLASS    FOCC     OCC    AOCC    AVIR     VIR    FVIR
	   PAIRS       0      33      33     611     611       0
	 --------------------------------------------------------

  DFHelper Memory: AOs need 4.342 GiB; user supplied 22.352 GiB. Using in-core AOs.


         ------------------------------------------------------------
                                     CPHF                           
                                  Rob Parrish                       
         ------------------------------------------------------------

  ==> Geometry <==

    Molecular point group: c1
    Full point group: C1

    Geometry (in Angstrom), charge = 0, multiplicity = 1:

       Center              X                  Y                   Z               Mass       
    ------------   -----------------  -----------------  -----------------  -----------------
         O            2.549943979207    -0.543118565876     0.699017337840    15.994914619570
         C            0.312854979207    -0.425760565876    -0.278739662160    12.000000000000
         C           -0.082486020793     0.915532434124    -0.093713662160    12.000000000000
         C            1.764034979207    -0.778194565876    -0.477917662160    12.000000000000
         C           -0.630499120793    -1.399773265876    -0.196203362160    12.000000000000
         C           -1.435199020793     1.187737434124     0.135826337840    12.000000000000
         C            0.918877979207     2.038404434124    -0.188284662160    12.000000000000
         C           -1.987133020793    -1.161197565876     0.031559337840    12.000000000000
         C           -2.382919020793     0.163770434124     0.208387337840    12.000000000000
         H            1.847687979207    -1.826493565876    -0.799630662160     1.007825032230
         H            2.222683979207    -0.157749565876    -1.252726662160     1.007825032230
         H           -0.324085020793    -2.480520565876    -0.340253662160     1.007825032230
         H           -1.750637020793     2.220612434124     0.274906337840     1.007825032230
         H            1.807861979207     1.816670434124     0.405666337840     1.007825032230
         H            1.241607979207     2.193453434124    -1.224552662160     1.007825032230
         H            0.480203979207     2.975121434124     0.166067337840     1.007825032230
         H           -2.716207020793    -1.966044565876     0.085952337840     1.007825032230
         H           -3.427750020793     0.403886434124     0.391457337840     1.007825032230
         H            2.090597979207    -0.995114565876     1.428191337840     1.007825032230

  Nuclear repulsion =  427.771533209824213
  Reference energy  = -383.756976678984358

  ==> Basis Set <==

  Basis Set: AUG-CC-PVTZ
    Blend: AUG-CC-PVTZ
    Number of shells: 216
    Number of basis functions: 644
    Number of Cartesian functions: 745
    Spherical Harmonics?: true
    Max angular momentum: 3

  ==> CGRSolver (by Rob Parrish) <==

   Number of roots    =         1
   Preconditioning    =    JACOBI
   Convergence cutoff =     1E-06
   Maximum iterations =       100

  ==> CPHFRHamiltonian (by Rob Parrish) <== 

  ==> MemDFJK: Density-Fitted J/K Matrices <==

    J tasked:                   Yes
    K tasked:                   Yes
    wK tasked:                   No
    OpenMP threads:              32
    Memory [MiB]:             22888
    Algorithm:                 Core
    Schwarz Cutoff:           1E-12
    Mask sparsity (%):       3.9032
    Fitting Condition:        1E-10

   => Auxiliary Basis Set <=

  Basis Set: (AUG-CC-PVTZ AUX)
    Blend: AUG-CC-PVTZ-JKFIT
    Number of shells: 410
    Number of basis functions: 1396
    Number of Cartesian functions: 1729
    Spherical Harmonics?: true
    Max angular momentum: 4

  ==> CPHF Iterations <==

  => Iterations <=

             Iter  Converged  Remaining    Residual
  CGR           1          0          1   7.705E-02
  CGR           2          0          1   1.992E-02
  CGR           3          0          1   9.810E-03
  CGR           4          0          1   5.197E-03
  CGR           5          0          1   2.187E-03
  CGR           6          0          1   8.510E-04
  CGR           7          0          1   2.713E-04
  CGR           8          0          1   9.293E-05
  CGR           9          0          1   3.387E-05
  CGR          10          0          1   1.550E-05
  CGR          11          0          1   7.503E-06
  CGR          12          0          1   2.407E-06
  CGR          13          1          0   7.666E-07

    CGRSolver converged.

	-----------------------------------------------------------
	 ==================> DF-MP2 Energies <==================== 
	-----------------------------------------------------------
	 Reference Energy          =    -383.7569766789843584 [Eh]
	 Singles Energy            =      -0.0000000000000000 [Eh]
	 Same-Spin Energy          =      -0.4131664959328779 [Eh]
	 Opposite-Spin Energy      =      -1.3207140150963717 [Eh]
	 Correlation Energy        =      -1.7338805110292497 [Eh]
	 Total Energy              =    -385.4908571900136280 [Eh]
	-----------------------------------------------------------
	 ================> DF-SCS-MP2 Energies <================== 
	-----------------------------------------------------------
	 SCS Same-Spin Scale       =       0.3333333333333333 [-]
	 SCS Opposite-Spin Scale   =       1.2000000000000000 [-]
	 SCS Same-Spin Energy      =      -0.1377221653109593 [Eh]
	 SCS Opposite-Spin Energy  =      -1.5848568181156459 [Eh]
	 SCS Correlation Energy    =      -1.7225789834266052 [Eh]
	 SCS Total Energy          =    -385.4795556624109736 [Eh]
	-----------------------------------------------------------



Properties will be evaluated at   0.000000,   0.000000,   0.000000 [a0]

Properties computed using the MP2 density matrix

  Nuclear Dipole Moment: [e a0]
     X:     1.3922      Y:     2.0447      Z:    -0.8075

  Electronic Dipole Moment: [e a0]
     X:    -1.8670      Y:    -2.1979      Z:     0.7692

  Dipole Moment: [e a0]
     X:    -0.4748      Y:    -0.1532      Z:    -0.0382     Total:     0.5004

  Dipole Moment: [D]
     X:    -1.2069      Y:    -0.3895      Z:    -0.0972     Total:     1.2719


*** tstop() called on c419-013.stampede2.tacc.utexas.edu at Sun Mar  7 09:55:19 2021
Module time:
	user time   =    1674.95 seconds =      27.92 minutes
	system time =      52.18 seconds =       0.87 minutes
	total time  =        190 seconds =       3.17 minutes
Total time:
	user time   =    2267.66 seconds =      37.79 minutes
	system time =      95.17 seconds =       1.59 minutes
	total time  =        225 seconds =       3.75 minutes

    Psi4 stopped on: Sunday, 07 March 2021 09:55AM
    Psi4 wall time for execution: 0:03:45.59

*** Psi4 exiting successfully. Buy a developer a beer!
