
    -----------------------------------------------------------------------
          Psi4: An Open-Source Ab Initio Electronic Structure Package
                               Psi4 1.4a3.dev225 

                         Git: Rev {master} 7105e37 


    D. G. A. Smith, L. A. Burns, A. C. Simmonett, R. M. Parrish,
    M. C. Schieber, R. Galvelis, P. Kraus, H. Kruse, R. Di Remigio,
    A. Alenaizan, A. M. James, S. Lehtola, J. P. Misiewicz, M. Scheurer,
    R. A. Shaw, J. B. Schriber, Y. Xie, Z. L. Glick, D. A. Sirianni,
    J. S. O'Brien, J. M. Waldrop, A. Kumar, E. G. Hohenstein,
    B. P. Pritchard, B. R. Brooks, H. F. Schaefer III, A. Yu. Sokolov,
    K. Patkowski, A. E. DePrince III, U. Bozkaya, R. A. King,
    F. A. Evangelista, J. M. Turney, T. D. Crawford, C. D. Sherrill,
    J. Chem. Phys. 152(18) 184108 (2020). https://doi.org/10.1063/5.0006002

                            Additional Code Authors
    E. T. Seidl, C. L. Janssen, E. F. Valeev, M. L. Leininger,
    J. F. Gonthier, R. M. Richard, H. R. McAlexander, M. Saitow, X. Wang,
    P. Verma, and M. H. Lechner

             Previous Authors, Complete List of Code Contributors,
                       and Citations for Specific Modules
    https://github.com/psi4/psi4/blob/master/codemeta.json
    https://github.com/psi4/psi4/graphs/contributors
    http://psicode.org/psi4manual/master/introduction.html#citing-psifour

    -----------------------------------------------------------------------


    Psi4 started on: Sunday, 28 February 2021 03:43PM

    Process ID: 37468
    Host:       c401-011.stampede2.tacc.utexas.edu
    PSIDATADIR: /home1/07844/xy3866/miniconda3/envs/p4env/share/psi4
    Memory:     500.0 MiB
    Threads:    32
    
  ==> Input File <==

--------------------------------------------------------------------------
#psi4
#
memory 32 gb

molecule  {
0 1
  S       -0.2946600    -0.4360860     0.1655790
  O       -1.5657890     0.5673500    -0.1009940
  O       -0.3508230    -1.5212030    -0.8163730
  O       -0.2159750    -0.7550950     1.5921100
  C        2.3621670     0.3010360     0.2220870
  C        0.9741440     0.7483390    -0.2426020
  C        2.8380310    -0.9649040    -0.4891310
  C        3.3410260     1.4538450    -0.0023010
  C       -2.8589370    -0.1133030    -0.1019100
  C       -3.9021700     0.9699320    -0.2416680
  H        2.2983390     0.1006560     1.2981690
  H        0.9320730     0.8904060    -1.3271310
  H        0.6744950     1.6778970     0.2503870
  H        2.8691440    -0.8060450    -1.5725570
  H        2.1878640    -1.8202610    -0.2948070
  H        3.8478330    -1.2217420    -0.1555610
  H        3.4181100     1.6939920    -1.0681710
  H        3.0282660     2.3570280     0.5308300
  H        4.3384750     1.1791220     0.3530350
  H       -2.8783840    -0.8196920    -0.9355340
  H       -2.9674710    -0.6619300     0.8385710
  H       -3.8465560     1.6647390     0.5984370
  H       -3.7262152     1.6266752    -1.3401776
  H       -4.8990420     0.5201230    -0.2596090
units angstrom
no_reorient  #important for SAPT in psi4, default
symmetry c1  #important for SAPT in psi4, default
}

set PROPERTIES_ORIGIN ["COM"]
properties('MP2/aug-cc-pvtz', properties = ['dipole'])
--------------------------------------------------------------------------

  Memory set to  29.802 GiB by Python driver.
    SCF Algorithm Type (re)set to DF.

*** tstart() called on c401-011.stampede2.tacc.utexas.edu
*** at Sun Feb 28 15:43:15 2021

   => Loading Basis Set <=

    Name: AUG-CC-PVTZ
    Role: ORBITAL
    Keyword: BASIS
    atoms 1     entry S          line   906 file /home1/07844/xy3866/miniconda3/envs/p4env/share/psi4/basis/aug-cc-pvtz.gbs 
    atoms 2-4   entry O          line   331 file /home1/07844/xy3866/miniconda3/envs/p4env/share/psi4/basis/aug-cc-pvtz.gbs 
    atoms 5-10  entry C          line   239 file /home1/07844/xy3866/miniconda3/envs/p4env/share/psi4/basis/aug-cc-pvtz.gbs 
    atoms 11-24 entry H          line    40 file /home1/07844/xy3866/miniconda3/envs/p4env/share/psi4/basis/aug-cc-pvtz.gbs 


         ---------------------------------------------------------
                                   SCF
               by Justin Turney, Rob Parrish, Andy Simmonett
                          and Daniel G. A. Smith
                              RHF Reference
                       32 Threads,  30517 MiB Core
         ---------------------------------------------------------

  ==> Geometry <==

    Molecular point group: c1
    Full point group: C1

    Geometry (in Angstrom), charge = 0, multiplicity = 1:

       Center              X                  Y                   Z               Mass       
    ------------   -----------------  -----------------  -----------------  -----------------
         S           -0.263575544653    -0.399312686633     0.149249333768    31.972071174400
         O           -1.534704544653     0.604123313367    -0.117323666232    15.994914619570
         O           -0.319738544653    -1.484429686633    -0.832702666232    15.994914619570
         O           -0.184890544653    -0.718321686633     1.575780333768    15.994914619570
         C            2.393251455347     0.337809313367     0.205757333768    12.000000000000
         C            1.005228455347     0.785112313367    -0.258931666232    12.000000000000
         C            2.869115455347    -0.928130686633    -0.505460666232    12.000000000000
         C            3.372110455347     1.490618313367    -0.018630666232    12.000000000000
         C           -2.827852544653    -0.076529686633    -0.118239666232    12.000000000000
         C           -3.871085544653     1.006705313367    -0.257997666232    12.000000000000
         H            2.329423455347     0.137429313367     1.281839333768     1.007825032230
         H            0.963157455347     0.927179313367    -1.343460666232     1.007825032230
         H            0.705579455347     1.714670313367     0.234057333768     1.007825032230
         H            2.900228455347    -0.769271686633    -1.588886666232     1.007825032230
         H            2.218948455347    -1.783487686633    -0.311136666232     1.007825032230
         H            3.878917455347    -1.184968686633    -0.171890666232     1.007825032230
         H            3.449194455347     1.730765313367    -1.084500666232     1.007825032230
         H            3.059350455347     2.393801313367     0.514500333768     1.007825032230
         H            4.369559455347     1.215895313367     0.336705333768     1.007825032230
         H           -2.847299544653    -0.782918686633    -0.951863666232     1.007825032230
         H           -2.936386544653    -0.625156686633     0.822241333768     1.007825032230
         H           -3.815471544653     1.701512313367     0.582107333768     1.007825032230
         H           -3.695130744653     1.663448513367    -1.356507266232     1.007825032230
         H           -4.867957544653     0.556896313367    -0.275938666232     1.007825032230

  Running in c1 symmetry.

  Rotational constants: A =      0.08123  B =      0.01988  C =      0.01836 [cm^-1]
  Rotational constants: A =   2435.16372  B =    595.95248  C =    550.44478 [MHz]
  Nuclear repulsion =  721.821600419771926

  Charge       = 0
  Multiplicity = 1
  Electrons    = 90
  Nalpha       = 45
  Nbeta        = 45

  ==> Algorithm <==

  SCF Algorithm Type is DF.
  DIIS enabled.
  MOM disabled.
  Fractional occupation disabled.
  Guess Type is SAD.
  Energy threshold   = 1.00e-10
  Density threshold  = 1.00e-10
  Integral threshold = 1.00e-12

  ==> Primary Basis <==

  Basis Set: AUG-CC-PVTZ
    Blend: AUG-CC-PVTZ
    Number of shells: 268
    Number of basis functions: 786
    Number of Cartesian functions: 904
    Spherical Harmonics?: true
    Max angular momentum: 3

   => Loading Basis Set <=

    Name: (AUG-CC-PVTZ AUX)
    Role: JKFIT
    Keyword: DF_BASIS_SCF
    atoms 1     entry S          line   730 file /home1/07844/xy3866/miniconda3/envs/p4env/share/psi4/basis/aug-cc-pvtz-jkfit.gbs 
    atoms 2-4   entry O          line   286 file /home1/07844/xy3866/miniconda3/envs/p4env/share/psi4/basis/aug-cc-pvtz-jkfit.gbs 
    atoms 5-10  entry C          line   162 file /home1/07844/xy3866/miniconda3/envs/p4env/share/psi4/basis/aug-cc-pvtz-jkfit.gbs 
    atoms 11-24 entry H          line    70 file /home1/07844/xy3866/miniconda3/envs/p4env/share/psi4/basis/aug-cc-pvtz-jkfit.gbs 

  ==> Integral Setup <==

  DFHelper Memory: AOs need 6.996 GiB; user supplied 22.352 GiB. Using in-core AOs.

  ==> MemDFJK: Density-Fitted J/K Matrices <==

    J tasked:                   Yes
    K tasked:                   Yes
    wK tasked:                   No
    OpenMP threads:              32
    Memory [MiB]:             22888
    Algorithm:                 Core
    Schwarz Cutoff:           1E-12
    Mask sparsity (%):      15.6427
    Fitting Condition:        1E-10

   => Auxiliary Basis Set <=

  Basis Set: (AUG-CC-PVTZ AUX)
    Blend: AUG-CC-PVTZ-JKFIT
    Number of shells: 508
    Number of basis functions: 1726
    Number of Cartesian functions: 2129
    Spherical Harmonics?: true
    Max angular momentum: 4

  Minimum eigenvalue in the overlap matrix is 2.8330602573E-06.
  Reciprocal condition number of the overlap matrix is 1.3724652174E-07.
    Using symmetric orthogonalization.

  ==> Pre-Iterations <==

  SCF Guess: Superposition of Atomic Densities via on-the-fly atomic UHF (no occupation information).

   -------------------------
    Irrep   Nso     Nmo    
   -------------------------
     A        786     786 
   -------------------------
    Total     786     786
   -------------------------

  ==> Iterations <==

                           Total Energy        Delta E     RMS |[F,P]|

   @DF-RHF iter SAD:  -857.22127143059470   -8.57221e+02   0.00000e+00 
   @DF-RHF iter   1:  -857.14027206043704    8.09994e-02   1.23242e-03 DIIS
   @DF-RHF iter   2:  -857.45799994228275   -3.17728e-01   7.85163e-04 DIIS
   @DF-RHF iter   3:  -857.59945073956078   -1.41451e-01   1.31423e-04 DIIS
   @DF-RHF iter   4:  -857.60546797478355   -6.01724e-03   4.98777e-05 DIIS
   @DF-RHF iter   5:  -857.60641113801353   -9.43163e-04   1.15742e-05 DIIS
   @DF-RHF iter   6:  -857.60645958509963   -4.84471e-05   3.61744e-06 DIIS
   @DF-RHF iter   7:  -857.60646549525109   -5.91015e-06   1.10215e-06 DIIS
   @DF-RHF iter   8:  -857.60646602946542   -5.34214e-07   3.59190e-07 DIIS
   @DF-RHF iter   9:  -857.60646610436379   -7.48984e-08   1.10396e-07 DIIS
   @DF-RHF iter  10:  -857.60646611421055   -9.84676e-09   3.03483e-08 DIIS
   @DF-RHF iter  11:  -857.60646611499192   -7.81370e-10   9.71780e-09 DIIS
   @DF-RHF iter  12:  -857.60646611506445   -7.25322e-11   3.44249e-09 DIIS
   @DF-RHF iter  13:  -857.60646611507457   -1.01181e-11   1.06381e-09 DIIS
   @DF-RHF iter  14:  -857.60646611507241    2.16005e-12   4.39270e-10 DIIS
   @DF-RHF iter  15:  -857.60646611507434   -1.93268e-12   1.71322e-10 DIIS
   @DF-RHF iter  16:  -857.60646611507298    1.36424e-12   5.07773e-11 DIIS
  Energy and wave function converged.


  ==> Post-Iterations <==

    Orbital Energies [Eh]
    ---------------------

    Doubly Occupied:                                                      

       1A    -92.214205     2A    -20.615567     3A    -20.554070  
       4A    -20.553972     5A    -11.304687     6A    -11.278315  
       7A    -11.255777     8A    -11.251648     9A    -11.229620  
      10A    -11.218752    11A     -9.178466    12A     -6.863921  
      13A     -6.862475    14A     -6.862302    15A     -1.481544  
      16A     -1.375642    17A     -1.337847    18A     -1.121094  
      19A     -1.048561    20A     -0.994981    21A     -0.942461  
      22A     -0.870857    23A     -0.828629    24A     -0.788228  
      25A     -0.725852    26A     -0.692670    27A     -0.690283  
      28A     -0.655003    29A     -0.635043    30A     -0.616327  
      31A     -0.604668    32A     -0.587184    33A     -0.567305  
      34A     -0.556127    35A     -0.553479    36A     -0.543494  
      37A     -0.522773    38A     -0.509754    39A     -0.500776  
      40A     -0.492565    41A     -0.487765    42A     -0.484344  
      43A     -0.481020    44A     -0.463445    45A     -0.453908  

    Virtual:                                                              

      46A      0.026168    47A      0.029889    48A      0.036780  
      49A      0.037226    50A      0.046048    51A      0.048259  
      52A      0.049276    53A      0.057881    54A      0.060330  
      55A      0.064318    56A      0.070777    57A      0.072643  
      58A      0.074329    59A      0.083329    60A      0.104634  
      61A      0.111142    62A      0.115239    63A      0.115921  
      64A      0.121636    65A      0.128112    66A      0.129460  
      67A      0.130938    68A      0.132545    69A      0.133621  
      70A      0.139234    71A      0.139466    72A      0.143577  
      73A      0.146921    74A      0.155698    75A      0.156932  
      76A      0.163171    77A      0.167945    78A      0.170741  
      79A      0.177760    80A      0.182785    81A      0.185108  
      82A      0.193016    83A      0.201913    84A      0.205493  
      85A      0.208639    86A      0.217048    87A      0.222335  
      88A      0.227276    89A      0.229439    90A      0.240060  
      91A      0.242799    92A      0.247603    93A      0.252752  
      94A      0.255980    95A      0.259390    96A      0.261480  
      97A      0.267460    98A      0.278018    99A      0.282123  
     100A      0.285694   101A      0.288236   102A      0.290762  
     103A      0.295068   104A      0.299222   105A      0.306346  
     106A      0.308741   107A      0.316428   108A      0.317538  
     109A      0.322576   110A      0.325462   111A      0.329154  
     112A      0.334415   113A      0.338559   114A      0.342143  
     115A      0.349621   116A      0.350460   117A      0.354336  
     118A      0.356429   119A      0.362535   120A      0.363366  
     121A      0.370294   122A      0.370773   123A      0.377078  
     124A      0.381515   125A      0.385060   126A      0.387152  
     127A      0.391250   128A      0.393464   129A      0.396535  
     130A      0.403306   131A      0.409500   132A      0.411198  
     133A      0.413367   134A      0.417879   135A      0.423979  
     136A      0.427774   137A      0.430419   138A      0.434884  
     139A      0.443621   140A      0.444127   141A      0.448575  
     142A      0.450593   143A      0.453109   144A      0.455797  
     145A      0.457035   146A      0.461517   147A      0.464443  
     148A      0.468410   149A      0.473890   150A      0.478828  
     151A      0.484868   152A      0.488157   153A      0.492333  
     154A      0.494831   155A      0.497937   156A      0.502607  
     157A      0.506766   158A      0.510034   159A      0.518141  
     160A      0.524199   161A      0.526785   162A      0.531349  
     163A      0.535457   164A      0.536769   165A      0.544284  
     166A      0.550140   167A      0.552838   168A      0.556424  
     169A      0.567704   170A      0.567959   171A      0.573283  
     172A      0.577951   173A      0.581806   174A      0.589045  
     175A      0.589459   176A      0.595090   177A      0.602149  
     178A      0.608626   179A      0.616237   180A      0.619846  
     181A      0.620167   182A      0.621922   183A      0.627195  
     184A      0.631592   185A      0.642703   186A      0.646806  
     187A      0.655073   188A      0.657339   189A      0.669091  
     190A      0.674577   191A      0.677017   192A      0.686610  
     193A      0.696052   194A      0.700177   195A      0.710898  
     196A      0.724651   197A      0.730326   198A      0.737764  
     199A      0.755773   200A      0.763691   201A      0.773334  
     202A      0.776775   203A      0.782827   204A      0.791776  
     205A      0.797629   206A      0.801176   207A      0.805748  
     208A      0.810687   209A      0.815794   210A      0.821802  
     211A      0.827342   212A      0.831165   213A      0.837503  
     214A      0.845580   215A      0.852774   216A      0.857827  
     217A      0.859631   218A      0.866305   219A      0.870569  
     220A      0.877109   221A      0.881122   222A      0.883728  
     223A      0.886573   224A      0.892533   225A      0.901191  
     226A      0.906113   227A      0.913308   228A      0.913976  
     229A      0.924437   230A      0.926205   231A      0.927423  
     232A      0.932571   233A      0.937312   234A      0.939902  
     235A      0.942964   236A      0.948429   237A      0.952648  
     238A      0.956933   239A      0.965919   240A      0.968072  
     241A      0.971484   242A      0.980947   243A      0.983838  
     244A      0.985882   245A      0.993675   246A      0.998840  
     247A      1.001538   248A      1.007866   249A      1.014321  
     250A      1.021051   251A      1.022688   252A      1.030443  
     253A      1.036086   254A      1.045012   255A      1.049182  
     256A      1.058353   257A      1.060773   258A      1.064917  
     259A      1.069915   260A      1.078814   261A      1.082262  
     262A      1.086832   263A      1.092445   264A      1.097646  
     265A      1.099996   266A      1.104574   267A      1.110898  
     268A      1.117074   269A      1.119440   270A      1.123954  
     271A      1.131118   272A      1.132395   273A      1.139385  
     274A      1.144654   275A      1.148578   276A      1.152024  
     277A      1.159828   278A      1.166480   279A      1.174136  
     280A      1.180963   281A      1.181666   282A      1.188672  
     283A      1.192649   284A      1.201799   285A      1.207833  
     286A      1.214588   287A      1.218025   288A      1.222776  
     289A      1.234803   290A      1.240273   291A      1.242811  
     292A      1.249513   293A      1.252605   294A      1.264031  
     295A      1.266114   296A      1.269491   297A      1.274611  
     298A      1.287620   299A      1.294320   300A      1.302953  
     301A      1.307364   302A      1.310263   303A      1.318325  
     304A      1.323669   305A      1.325293   306A      1.338517  
     307A      1.341222   308A      1.344108   309A      1.356037  
     310A      1.357706   311A      1.374522   312A      1.379413  
     313A      1.384371   314A      1.398974   315A      1.408745  
     316A      1.414862   317A      1.416268   318A      1.424526  
     319A      1.433028   320A      1.439112   321A      1.451114  
     322A      1.453592   323A      1.464132   324A      1.470708  
     325A      1.475960   326A      1.482694   327A      1.490369  
     328A      1.494916   329A      1.502069   330A      1.507567  
     331A      1.525913   332A      1.532458   333A      1.538345  
     334A      1.540907   335A      1.542941   336A      1.548786  
     337A      1.549802   338A      1.556293   339A      1.561262  
     340A      1.565100   341A      1.585476   342A      1.591102  
     343A      1.597062   344A      1.603924   345A      1.610167  
     346A      1.619082   347A      1.633434   348A      1.638865  
     349A      1.645223   350A      1.651814   351A      1.660450  
     352A      1.664011   353A      1.671073   354A      1.675818  
     355A      1.685086   356A      1.687939   357A      1.692565  
     358A      1.695624   359A      1.700619   360A      1.711643  
     361A      1.713995   362A      1.719490   363A      1.725345  
     364A      1.730909   365A      1.732206   366A      1.741038  
     367A      1.743584   368A      1.749602   369A      1.752247  
     370A      1.761349   371A      1.766603   372A      1.777570  
     373A      1.778717   374A      1.783158   375A      1.788280  
     376A      1.811809   377A      1.814547   378A      1.821165  
     379A      1.827804   380A      1.837007   381A      1.853419  
     382A      1.854343   383A      1.857401   384A      1.870686  
     385A      1.873715   386A      1.885785   387A      1.887957  
     388A      1.895696   389A      1.910309   390A      1.911594  
     391A      1.916017   392A      1.920794   393A      1.928510  
     394A      1.940418   395A      1.947157   396A      1.958727  
     397A      1.973271   398A      1.975743   399A      1.981631  
     400A      1.989238   401A      1.992965   402A      2.006714  
     403A      2.010669   404A      2.026665   405A      2.036637  
     406A      2.037756   407A      2.045959   408A      2.053221  
     409A      2.060119   410A      2.079071   411A      2.081591  
     412A      2.096493   413A      2.101279   414A      2.111027  
     415A      2.118608   416A      2.129240   417A      2.136660  
     418A      2.152581   419A      2.166698   420A      2.170189  
     421A      2.178957   422A      2.197165   423A      2.206105  
     424A      2.215090   425A      2.221561   426A      2.230199  
     427A      2.239011   428A      2.249829   429A      2.255946  
     430A      2.258648   431A      2.267641   432A      2.274575  
     433A      2.287633   434A      2.292501   435A      2.293279  
     436A      2.298997   437A      2.310424   438A      2.321486  
     439A      2.328737   440A      2.343758   441A      2.357082  
     442A      2.377422   443A      2.380131   444A      2.383361  
     445A      2.394385   446A      2.404503   447A      2.409327  
     448A      2.421920   449A      2.442461   450A      2.446865  
     451A      2.453471   452A      2.471031   453A      2.475863  
     454A      2.482248   455A      2.496983   456A      2.511013  
     457A      2.518102   458A      2.520946   459A      2.533332  
     460A      2.541090   461A      2.564117   462A      2.578710  
     463A      2.590717   464A      2.602383   465A      2.614025  
     466A      2.615844   467A      2.631450   468A      2.644375  
     469A      2.654999   470A      2.658971   471A      2.690069  
     472A      2.695811   473A      2.713850   474A      2.722158  
     475A      2.744055   476A      2.760384   477A      2.770271  
     478A      2.793442   479A      2.807702   480A      2.834053  
     481A      2.839404   482A      2.850459   483A      2.875176  
     484A      2.879458   485A      2.899285   486A      2.904392  
     487A      2.912609   488A      2.939226   489A      2.954145  
     490A      2.974848   491A      3.000281   492A      3.008246  
     493A      3.044799   494A      3.057216   495A      3.069977  
     496A      3.090823   497A      3.106850   498A      3.134909  
     499A      3.158151   500A      3.181283   501A      3.204600  
     502A      3.224194   503A      3.268193   504A      3.280567  
     505A      3.306307   506A      3.325264   507A      3.360134  
     508A      3.365002   509A      3.393143   510A      3.414896  
     511A      3.416988   512A      3.422920   513A      3.440132  
     514A      3.448697   515A      3.464490   516A      3.469576  
     517A      3.487257   518A      3.493724   519A      3.501849  
     520A      3.515538   521A      3.522469   522A      3.551253  
     523A      3.557171   524A      3.572458   525A      3.586230  
     526A      3.599151   527A      3.604757   528A      3.625565  
     529A      3.630957   530A      3.637646   531A      3.657527  
     532A      3.667242   533A      3.671577   534A      3.686162  
     535A      3.695195   536A      3.701220   537A      3.705141  
     538A      3.731088   539A      3.733552   540A      3.739636  
     541A      3.756533   542A      3.762412   543A      3.774404  
     544A      3.778251   545A      3.782158   546A      3.789667  
     547A      3.802832   548A      3.805438   549A      3.813859  
     550A      3.816706   551A      3.816831   552A      3.842220  
     553A      3.846726   554A      3.859129   555A      3.875154  
     556A      3.886900   557A      3.890587   558A      3.905094  
     559A      3.916231   560A      3.924500   561A      3.926487  
     562A      3.937662   563A      3.948073   564A      3.959573  
     565A      3.960529   566A      3.974277   567A      3.978984  
     568A      3.981553   569A      3.996542   570A      4.010620  
     571A      4.018926   572A      4.026655   573A      4.034779  
     574A      4.041562   575A      4.048199   576A      4.055194  
     577A      4.066646   578A      4.072516   579A      4.081029  
     580A      4.093069   581A      4.111477   582A      4.125300  
     583A      4.128072   584A      4.165169   585A      4.172492  
     586A      4.184803   587A      4.190880   588A      4.200908  
     589A      4.218937   590A      4.225822   591A      4.229354  
     592A      4.252389   593A      4.266570   594A      4.269063  
     595A      4.271059   596A      4.276286   597A      4.279864  
     598A      4.296304   599A      4.308131   600A      4.327184  
     601A      4.345674   602A      4.359606   603A      4.371287  
     604A      4.382853   605A      4.388874   606A      4.412668  
     607A      4.419549   608A      4.427225   609A      4.436115  
     610A      4.449465   611A      4.456898   612A      4.467023  
     613A      4.487928   614A      4.501096   615A      4.523003  
     616A      4.529872   617A      4.556424   618A      4.570207  
     619A      4.584043   620A      4.617024   621A      4.623964  
     622A      4.634436   623A      4.654916   624A      4.664492  
     625A      4.678917   626A      4.688822   627A      4.704872  
     628A      4.722077   629A      4.730662   630A      4.735861  
     631A      4.743095   632A      4.758147   633A      4.778222  
     634A      4.781311   635A      4.792991   636A      4.801872  
     637A      4.833648   638A      4.836335   639A      4.857467  
     640A      4.871410   641A      4.880201   642A      4.884001  
     643A      4.899081   644A      4.916726   645A      4.933805  
     646A      4.943509   647A      4.946234   648A      4.959768  
     649A      4.977437   650A      4.988790   651A      4.997303  
     652A      5.015023   653A      5.016222   654A      5.047052  
     655A      5.054751   656A      5.065640   657A      5.076449  
     658A      5.101774   659A      5.107171   660A      5.114201  
     661A      5.128555   662A      5.143360   663A      5.155282  
     664A      5.173422   665A      5.203909   666A      5.212705  
     667A      5.224515   668A      5.256881   669A      5.262352  
     670A      5.267321   671A      5.279878   672A      5.294908  
     673A      5.302836   674A      5.312519   675A      5.328377  
     676A      5.332161   677A      5.346600   678A      5.354317  
     679A      5.355541   680A      5.373530   681A      5.388435  
     682A      5.403538   683A      5.424921   684A      5.430864  
     685A      5.455285   686A      5.458158   687A      5.471376  
     688A      5.484095   689A      5.497382   690A      5.507591  
     691A      5.516702   692A      5.544897   693A      5.561755  
     694A      5.590336   695A      5.611574   696A      5.618151  
     697A      5.632610   698A      5.643799   699A      5.659135  
     700A      5.684943   701A      5.697169   702A      5.715194  
     703A      5.760085   704A      5.768244   705A      5.774549  
     706A      5.803517   707A      5.806117   708A      5.875189  
     709A      5.896990   710A      5.928361   711A      5.947019  
     712A      5.953053   713A      5.958969   714A      5.990112  
     715A      6.010162   716A      6.028605   717A      6.079346  
     718A      6.086477   719A      6.106686   720A      6.133664  
     721A      6.143494   722A      6.164731   723A      6.218917  
     724A      6.264945   725A      6.277914   726A      6.322985  
     727A      6.329071   728A      6.339698   729A      6.399576  
     730A      6.412965   731A      6.524623   732A      6.547967  
     733A      6.724690   734A      6.732157   735A      6.749403  
     736A      6.758736   737A      6.793617   738A      6.808265  
     739A      6.836277   740A      6.837800   741A      6.852000  
     742A      6.872955   743A      6.894413   744A      6.914789  
     745A      6.926769   746A      6.943807   747A      6.950696  
     748A      6.969868   749A      6.992844   750A      7.010160  
     751A      7.031653   752A      7.058300   753A      7.072856  
     754A      7.085600   755A      7.119619   756A      7.175268  
     757A      7.204861   758A      7.221647   759A      7.248847  
     760A      7.343502   761A      7.372720   762A      7.393559  
     763A      7.398642   764A      7.430520   765A      7.486743  
     766A      7.556979   767A      7.634531   768A      7.654661  
     769A      7.735869   770A      7.781726   771A      7.811049  
     772A      7.822566   773A      7.839970   774A      7.901818  
     775A      8.154489   776A      8.261335   777A     13.398052  
     778A     13.752098   779A     14.003696   780A     15.641786  
     781A     17.265874   782A     17.868966   783A     18.187296  
     784A     18.264340   785A     18.321626   786A     19.496583  

    Final Occupation by Irrep:
              A 
    DOCC [    45 ]

  @DF-RHF Final Energy:  -857.60646611507298

   => Energetics <=

    Nuclear Repulsion Energy =            721.8216004197719258
    One-Electron Energy =               -2611.1413261952579887
    Two-Electron Energy =                1031.7132596604128594
    Total Energy =                       -857.6064661150730899

Computation Completed

*** tstop() called on c401-011.stampede2.tacc.utexas.edu at Sun Feb 28 15:44:11 2021
Module time:
	user time   =     981.66 seconds =      16.36 minutes
	system time =      62.57 seconds =       1.04 minutes
	total time  =         56 seconds =       0.93 minutes
Total time:
	user time   =     981.66 seconds =      16.36 minutes
	system time =      62.57 seconds =       1.04 minutes
	total time  =         56 seconds =       0.93 minutes
   => Loading Basis Set <=

    Name: (AUG-CC-PVTZ AUX)
    Role: RIFIT
    Keyword: DF_BASIS_MP2
    atoms 1     entry S          line   666 file /home1/07844/xy3866/miniconda3/envs/p4env/share/psi4/basis/aug-cc-pvtz-ri.gbs 
    atoms 2-4   entry O          line   264 file /home1/07844/xy3866/miniconda3/envs/p4env/share/psi4/basis/aug-cc-pvtz-ri.gbs 
    atoms 5-10  entry C          line   148 file /home1/07844/xy3866/miniconda3/envs/p4env/share/psi4/basis/aug-cc-pvtz-ri.gbs 
    atoms 11-24 entry H          line    30 file /home1/07844/xy3866/miniconda3/envs/p4env/share/psi4/basis/aug-cc-pvtz-ri.gbs 


*** tstart() called on c401-011.stampede2.tacc.utexas.edu
*** at Sun Feb 28 15:44:12 2021


  //>>>>>>>>>>>>>>>>>>>>>>>>>>>>>>>>>>>//
  //               DFMP2               //
  //<<<<<<<<<<<<<<<<<<<<<<<<<<<<<<<<<<<//

	 --------------------------------------------------------
	                          DF-MP2                         
	      2nd-Order Density-Fitted Moller-Plesset Theory     
	              RMP2 Wavefunction,  32 Threads             
	                                                         
	        Rob Parrish, Justin Turney, Andy Simmonett,      
	           Ed Hohenstein, and C. David Sherrill          
	 --------------------------------------------------------

   => Auxiliary Basis Set <=

  Basis Set: (AUG-CC-PVTZ AUX)
    Blend: AUG-CC-PVTZ-RI
    Number of shells: 485
    Number of basis functions: 1745
    Number of Cartesian functions: 2185
    Spherical Harmonics?: true
    Max angular momentum: 4

	 --------------------------------------------------------
	                 NBF =   786, NAUX =  1745
	 --------------------------------------------------------
	   CLASS    FOCC     OCC    AOCC    AVIR     VIR    FVIR
	   PAIRS       0      45      45     741     741       0
	 --------------------------------------------------------

  DFHelper Memory: AOs need 7.370 GiB; user supplied 22.352 GiB. Using in-core AOs.


         ------------------------------------------------------------
                                     CPHF                           
                                  Rob Parrish                       
         ------------------------------------------------------------

  ==> Geometry <==

    Molecular point group: c1
    Full point group: C1

    Geometry (in Angstrom), charge = 0, multiplicity = 1:

       Center              X                  Y                   Z               Mass       
    ------------   -----------------  -----------------  -----------------  -----------------
         S           -0.263575544653    -0.399312686633     0.149249333768    31.972071174400
         O           -1.534704544653     0.604123313367    -0.117323666232    15.994914619570
         O           -0.319738544653    -1.484429686633    -0.832702666232    15.994914619570
         O           -0.184890544653    -0.718321686633     1.575780333768    15.994914619570
         C            2.393251455347     0.337809313367     0.205757333768    12.000000000000
         C            1.005228455347     0.785112313367    -0.258931666232    12.000000000000
         C            2.869115455347    -0.928130686633    -0.505460666232    12.000000000000
         C            3.372110455347     1.490618313367    -0.018630666232    12.000000000000
         C           -2.827852544653    -0.076529686633    -0.118239666232    12.000000000000
         C           -3.871085544653     1.006705313367    -0.257997666232    12.000000000000
         H            2.329423455347     0.137429313367     1.281839333768     1.007825032230
         H            0.963157455347     0.927179313367    -1.343460666232     1.007825032230
         H            0.705579455347     1.714670313367     0.234057333768     1.007825032230
         H            2.900228455347    -0.769271686633    -1.588886666232     1.007825032230
         H            2.218948455347    -1.783487686633    -0.311136666232     1.007825032230
         H            3.878917455347    -1.184968686633    -0.171890666232     1.007825032230
         H            3.449194455347     1.730765313367    -1.084500666232     1.007825032230
         H            3.059350455347     2.393801313367     0.514500333768     1.007825032230
         H            4.369559455347     1.215895313367     0.336705333768     1.007825032230
         H           -2.847299544653    -0.782918686633    -0.951863666232     1.007825032230
         H           -2.936386544653    -0.625156686633     0.822241333768     1.007825032230
         H           -3.815471544653     1.701512313367     0.582107333768     1.007825032230
         H           -3.695130744653     1.663448513367    -1.356507266232     1.007825032230
         H           -4.867957544653     0.556896313367    -0.275938666232     1.007825032230

  Nuclear repulsion =  721.821600419771926
  Reference energy  = -857.606466115072976

  ==> Basis Set <==

  Basis Set: AUG-CC-PVTZ
    Blend: AUG-CC-PVTZ
    Number of shells: 268
    Number of basis functions: 786
    Number of Cartesian functions: 904
    Spherical Harmonics?: true
    Max angular momentum: 3

  ==> CGRSolver (by Rob Parrish) <==

   Number of roots    =         1
   Preconditioning    =    JACOBI
   Convergence cutoff =     1E-06
   Maximum iterations =       100

  ==> CPHFRHamiltonian (by Rob Parrish) <== 

  ==> MemDFJK: Density-Fitted J/K Matrices <==

    J tasked:                   Yes
    K tasked:                   Yes
    wK tasked:                   No
    OpenMP threads:              32
    Memory [MiB]:             22888
    Algorithm:                 Core
    Schwarz Cutoff:           1E-12
    Mask sparsity (%):      10.9295
    Fitting Condition:        1E-10

   => Auxiliary Basis Set <=

  Basis Set: (AUG-CC-PVTZ AUX)
    Blend: AUG-CC-PVTZ-JKFIT
    Number of shells: 508
    Number of basis functions: 1726
    Number of Cartesian functions: 2129
    Spherical Harmonics?: true
    Max angular momentum: 4

  ==> CPHF Iterations <==

  => Iterations <=

             Iter  Converged  Remaining    Residual
  CGR           1          0          1   1.098E-01
  CGR           2          0          1   2.904E-02
  CGR           3          0          1   1.167E-02
  CGR           4          0          1   3.768E-03
  CGR           5          0          1   1.460E-03
  CGR           6          0          1   3.582E-04
  CGR           7          0          1   1.384E-04
  CGR           8          0          1   4.417E-05
  CGR           9          0          1   1.140E-05
  CGR          10          0          1   3.463E-06
  CGR          11          0          1   1.184E-06
  CGR          12          1          0   3.680E-07

    CGRSolver converged.

	-----------------------------------------------------------
	 ==================> DF-MP2 Energies <==================== 
	-----------------------------------------------------------
	 Reference Energy          =    -857.6064661150729762 [Eh]
	 Singles Energy            =      -0.0000000000000000 [Eh]
	 Same-Spin Energy          =      -0.5252071965624193 [Eh]
	 Opposite-Spin Energy      =      -1.6822698375727985 [Eh]
	 Correlation Energy        =      -2.2074770341352177 [Eh]
	 Total Energy              =    -859.8139431492081712 [Eh]
	-----------------------------------------------------------
	 ================> DF-SCS-MP2 Energies <================== 
	-----------------------------------------------------------
	 SCS Same-Spin Scale       =       0.3333333333333333 [-]
	 SCS Opposite-Spin Scale   =       1.2000000000000000 [-]
	 SCS Same-Spin Energy      =      -0.1750690655208064 [Eh]
	 SCS Opposite-Spin Energy  =      -2.0187238050873582 [Eh]
	 SCS Correlation Energy    =      -2.1937928706081644 [Eh]
	 SCS Total Energy          =    -859.8002589856811255 [Eh]
	-----------------------------------------------------------



Properties will be evaluated at   0.000000,  -0.000000,  -0.000000 [a0]

Properties computed using the MP2 density matrix

  Nuclear Dipole Moment: [e a0]
     X:     5.3382      Y:     6.4464      Z:    -3.0986

  Electronic Dipole Moment: [e a0]
     X:    -5.3547      Y:    -5.4089      Z:     2.7235

  Dipole Moment: [e a0]
     X:    -0.0166      Y:     1.0375      Z:    -0.3751     Total:     1.1033

  Dipole Moment: [D]
     X:    -0.0421      Y:     2.6370      Z:    -0.9535     Total:     2.8044


*** tstop() called on c401-011.stampede2.tacc.utexas.edu at Sun Feb 28 15:50:17 2021
Module time:
	user time   =    3316.16 seconds =      55.27 minutes
	system time =      95.52 seconds =       1.59 minutes
	total time  =        365 seconds =       6.08 minutes
Total time:
	user time   =    4299.00 seconds =      71.65 minutes
	system time =     158.12 seconds =       2.64 minutes
	total time  =        422 seconds =       7.03 minutes

    Psi4 stopped on: Sunday, 28 February 2021 03:50PM
    Psi4 wall time for execution: 0:07:03.18

*** Psi4 exiting successfully. Buy a developer a beer!
