
    -----------------------------------------------------------------------
          Psi4: An Open-Source Ab Initio Electronic Structure Package
                               Psi4 1.4a3.dev225 

                         Git: Rev {master} 7105e37 


    D. G. A. Smith, L. A. Burns, A. C. Simmonett, R. M. Parrish,
    M. C. Schieber, R. Galvelis, P. Kraus, H. Kruse, R. Di Remigio,
    A. Alenaizan, A. M. James, S. Lehtola, J. P. Misiewicz, M. Scheurer,
    R. A. Shaw, J. B. Schriber, Y. Xie, Z. L. Glick, D. A. Sirianni,
    J. S. O'Brien, J. M. Waldrop, A. Kumar, E. G. Hohenstein,
    B. P. Pritchard, B. R. Brooks, H. F. Schaefer III, A. Yu. Sokolov,
    K. Patkowski, A. E. DePrince III, U. Bozkaya, R. A. King,
    F. A. Evangelista, J. M. Turney, T. D. Crawford, C. D. Sherrill,
    J. Chem. Phys. 152(18) 184108 (2020). https://doi.org/10.1063/5.0006002

                            Additional Code Authors
    E. T. Seidl, C. L. Janssen, E. F. Valeev, M. L. Leininger,
    J. F. Gonthier, R. M. Richard, H. R. McAlexander, M. Saitow, X. Wang,
    P. Verma, and M. H. Lechner

             Previous Authors, Complete List of Code Contributors,
                       and Citations for Specific Modules
    https://github.com/psi4/psi4/blob/master/codemeta.json
    https://github.com/psi4/psi4/graphs/contributors
    http://psicode.org/psi4manual/master/introduction.html#citing-psifour

    -----------------------------------------------------------------------


    Psi4 started on: Thursday, 01 April 2021 11:14PM

    Process ID: 155782
    Host:       c451-101.stampede2.tacc.utexas.edu
    PSIDATADIR: /home1/07844/xy3866/miniconda3/envs/p4env/share/psi4
    Memory:     500.0 MiB
    Threads:    8
    
  ==> Input File <==

--------------------------------------------------------------------------
#psi4
#
memory 32 gb

molecule  {
0 1
  S       -0.2946600    -0.4360860     0.1655790
  O       -1.5657890     0.5673500    -0.1009940
  O       -0.3508230    -1.5212030    -0.8163730
  O       -0.2159750    -0.7550950     1.5921100
  C        2.3621670     0.3010360     0.2220870
  C        0.9741440     0.7483390    -0.2426020
  C        2.8380310    -0.9649040    -0.4891310
  C        3.3410260     1.4538450    -0.0023010
  C       -2.8589370    -0.1133030    -0.1019100
  C       -3.9021700     0.9699320    -0.2416680
  H        2.2983390     0.1006560     1.2981690
  H        0.9320730     0.8904060    -1.3271310
  H        0.6744950     1.6778970     0.2503870
  H        2.8691440    -0.8060450    -1.5725570
  H        2.1878640    -1.8202610    -0.2948070
  H        3.8478330    -1.2217420    -0.1555610
  H        3.4181100     1.6939920    -1.0681710
  H        3.0282660     2.3570280     0.5308300
  H        4.3384750     1.1791220     0.3530350
  H       -2.8783840    -0.8196920    -0.9355340
  H       -2.9674710    -0.6619300     0.8385710
  H       -3.8465560     1.6647390     0.5984370
  H       -3.7534550     1.5250040    -1.1701160
  H       -4.9446111     0.4995613    -0.2604291
units angstrom
no_reorient  #important for SAPT in psi4, default
symmetry c1  #important for SAPT in psi4, default
}

set PROPERTIES_ORIGIN ["COM"]
properties('MP2/aug-cc-pvtz', properties = ['dipole'])
--------------------------------------------------------------------------

  Memory set to  29.802 GiB by Python driver.
    SCF Algorithm Type (re)set to DF.

*** tstart() called on c451-101.stampede2.tacc.utexas.edu
*** at Thu Apr  1 23:14:50 2021

   => Loading Basis Set <=

    Name: AUG-CC-PVTZ
    Role: ORBITAL
    Keyword: BASIS
    atoms 1     entry S          line   906 file /home1/07844/xy3866/miniconda3/envs/p4env/share/psi4/basis/aug-cc-pvtz.gbs 
    atoms 2-4   entry O          line   331 file /home1/07844/xy3866/miniconda3/envs/p4env/share/psi4/basis/aug-cc-pvtz.gbs 
    atoms 5-10  entry C          line   239 file /home1/07844/xy3866/miniconda3/envs/p4env/share/psi4/basis/aug-cc-pvtz.gbs 
    atoms 11-24 entry H          line    40 file /home1/07844/xy3866/miniconda3/envs/p4env/share/psi4/basis/aug-cc-pvtz.gbs 


         ---------------------------------------------------------
                                   SCF
               by Justin Turney, Rob Parrish, Andy Simmonett
                          and Daniel G. A. Smith
                              RHF Reference
                        8 Threads,  30517 MiB Core
         ---------------------------------------------------------

  ==> Geometry <==

    Molecular point group: c1
    Full point group: C1

    Geometry (in Angstrom), charge = 0, multiplicity = 1:

       Center              X                  Y                   Z               Mass       
    ------------   -----------------  -----------------  -----------------  -----------------
         S           -0.263133681355    -0.398570878525     0.148222239451    31.972071174400
         O           -1.534262681355     0.604865121475    -0.118350760549    15.994914619570
         O           -0.319296681355    -1.483687878525    -0.833729760549    15.994914619570
         O           -0.184448681355    -0.717579878525     1.574753239451    15.994914619570
         C            2.393693318645     0.338551121475     0.204730239451    12.000000000000
         C            1.005670318645     0.785854121475    -0.259958760549    12.000000000000
         C            2.869557318645    -0.927388878525    -0.506487760549    12.000000000000
         C            3.372552318645     1.491360121475    -0.019657760549    12.000000000000
         C           -2.827410681355    -0.075787878525    -0.119266760549    12.000000000000
         C           -3.870643681355     1.007447121475    -0.259024760549    12.000000000000
         H            2.329865318645     0.138171121475     1.280812239451     1.007825032230
         H            0.963599318645     0.927921121475    -1.344487760549     1.007825032230
         H            0.706021318645     1.715412121475     0.233030239451     1.007825032230
         H            2.900670318645    -0.768529878525    -1.589913760549     1.007825032230
         H            2.219390318645    -1.782745878525    -0.312163760549     1.007825032230
         H            3.879359318645    -1.184226878525    -0.172917760549     1.007825032230
         H            3.449636318645     1.731507121475    -1.085527760549     1.007825032230
         H            3.059792318645     2.394543121475     0.513473239451     1.007825032230
         H            4.370001318645     1.216637121475     0.335678239451     1.007825032230
         H           -2.846857681355    -0.782176878525    -0.952890760549     1.007825032230
         H           -2.935944681355    -0.624414878525     0.821214239451     1.007825032230
         H           -3.815029681355     1.702254121475     0.581080239451     1.007825032230
         H           -3.721928681355     1.562519121475    -1.187472760549     1.007825032230
         H           -4.913084781355     0.537076421475    -0.277785860549     1.007825032230

  Running in c1 symmetry.

  Rotational constants: A =      0.08154  B =      0.01987  C =      0.01836 [cm^-1]
  Rotational constants: A =   2444.44336  B =    595.79419  C =    550.27060 [MHz]
  Nuclear repulsion =  722.346621432457596

  Charge       = 0
  Multiplicity = 1
  Electrons    = 90
  Nalpha       = 45
  Nbeta        = 45

  ==> Algorithm <==

  SCF Algorithm Type is DF.
  DIIS enabled.
  MOM disabled.
  Fractional occupation disabled.
  Guess Type is SAD.
  Energy threshold   = 1.00e-10
  Density threshold  = 1.00e-10
  Integral threshold = 1.00e-12

  ==> Primary Basis <==

  Basis Set: AUG-CC-PVTZ
    Blend: AUG-CC-PVTZ
    Number of shells: 268
    Number of basis functions: 786
    Number of Cartesian functions: 904
    Spherical Harmonics?: true
    Max angular momentum: 3

   => Loading Basis Set <=

    Name: (AUG-CC-PVTZ AUX)
    Role: JKFIT
    Keyword: DF_BASIS_SCF
    atoms 1     entry S          line   730 file /home1/07844/xy3866/miniconda3/envs/p4env/share/psi4/basis/aug-cc-pvtz-jkfit.gbs 
    atoms 2-4   entry O          line   286 file /home1/07844/xy3866/miniconda3/envs/p4env/share/psi4/basis/aug-cc-pvtz-jkfit.gbs 
    atoms 5-10  entry C          line   162 file /home1/07844/xy3866/miniconda3/envs/p4env/share/psi4/basis/aug-cc-pvtz-jkfit.gbs 
    atoms 11-24 entry H          line    70 file /home1/07844/xy3866/miniconda3/envs/p4env/share/psi4/basis/aug-cc-pvtz-jkfit.gbs 

  ==> Integral Setup <==

  DFHelper Memory: AOs need 6.883 GiB; user supplied 22.352 GiB. Using in-core AOs.

  ==> MemDFJK: Density-Fitted J/K Matrices <==

    J tasked:                   Yes
    K tasked:                   Yes
    wK tasked:                   No
    OpenMP threads:               8
    Memory [MiB]:             22888
    Algorithm:                 Core
    Schwarz Cutoff:           1E-12
    Mask sparsity (%):      15.6683
    Fitting Condition:        1E-10

   => Auxiliary Basis Set <=

  Basis Set: (AUG-CC-PVTZ AUX)
    Blend: AUG-CC-PVTZ-JKFIT
    Number of shells: 508
    Number of basis functions: 1726
    Number of Cartesian functions: 2129
    Spherical Harmonics?: true
    Max angular momentum: 4

  Minimum eigenvalue in the overlap matrix is 2.8275565963E-06.
  Reciprocal condition number of the overlap matrix is 1.3696606908E-07.
    Using symmetric orthogonalization.

  ==> Pre-Iterations <==

  SCF Guess: Superposition of Atomic Densities via on-the-fly atomic UHF (no occupation information).

   -------------------------
    Irrep   Nso     Nmo    
   -------------------------
     A        786     786 
   -------------------------
    Total     786     786
   -------------------------

  ==> Iterations <==

                           Total Energy        Delta E     RMS |[F,P]|

   @DF-RHF iter SAD:  -857.29233702414911   -8.57292e+02   0.00000e+00 
   @DF-RHF iter   1:  -857.15816363458998    1.34173e-01   1.23652e-03 DIIS
   @DF-RHF iter   2:  -857.47659049158005   -3.18427e-01   7.84402e-04 DIIS
   @DF-RHF iter   3:  -857.61745141080337   -1.40861e-01   1.32130e-04 DIIS
   @DF-RHF iter   4:  -857.62345364918963   -6.00224e-03   4.96969e-05 DIIS
   @DF-RHF iter   5:  -857.62438867233084   -9.35023e-04   1.16378e-05 DIIS
   @DF-RHF iter   6:  -857.62443708053775   -4.84082e-05   3.64192e-06 DIIS
   @DF-RHF iter   7:  -857.62444303523046   -5.95469e-06   1.10393e-06 DIIS
   @DF-RHF iter   8:  -857.62444357866309   -5.43433e-07   3.67392e-07 DIIS
   @DF-RHF iter   9:  -857.62444365740430   -7.87412e-08   1.13741e-07 DIIS
   @DF-RHF iter  10:  -857.62444366793159   -1.05273e-08   3.10387e-08 DIIS
   @DF-RHF iter  11:  -857.62444366875468   -8.23093e-10   9.94447e-09 DIIS
   @DF-RHF iter  12:  -857.62444366883244   -7.77618e-11   3.45488e-09 DIIS
   @DF-RHF iter  13:  -857.62444366884370   -1.12550e-11   1.01727e-09 DIIS
   @DF-RHF iter  14:  -857.62444366884188    1.81899e-12   3.51402e-10 DIIS
   @DF-RHF iter  15:  -857.62444366884267   -7.95808e-13   1.42602e-10 DIIS
   @DF-RHF iter  16:  -857.62444366884222    4.54747e-13   4.95751e-11 DIIS
  Energy and wave function converged.


  ==> Post-Iterations <==

    Orbital Energies [Eh]
    ---------------------

    Doubly Occupied:                                                      

       1A    -92.214091     2A    -20.615245     3A    -20.553891  
       4A    -20.553754     5A    -11.302345     6A    -11.278317  
       7A    -11.251629     8A    -11.239033     9A    -11.229641  
      10A    -11.218729    11A     -9.178336    12A     -6.863794  
      13A     -6.862344    14A     -6.862169    15A     -1.481302  
      16A     -1.375404    17A     -1.337624    18A     -1.121084  
      19A     -1.050267    20A     -0.996027    21A     -0.942458  
      22A     -0.874663    23A     -0.830705    24A     -0.788128  
      25A     -0.724850    26A     -0.693163    27A     -0.690884  
      28A     -0.657015    29A     -0.635248    30A     -0.616227  
      31A     -0.606409    32A     -0.586376    33A     -0.564981  
      34A     -0.559186    35A     -0.551052    36A     -0.542964  
      37A     -0.535825    38A     -0.510191    39A     -0.500215  
      40A     -0.497095    41A     -0.490629    42A     -0.485589  
      43A     -0.482705    44A     -0.463547    45A     -0.453678  

    Virtual:                                                              

      46A      0.025999    47A      0.030042    48A      0.036741  
      49A      0.037245    50A      0.046012    51A      0.048042  
      52A      0.049302    53A      0.057950    54A      0.060306  
      55A      0.064526    56A      0.070686    57A      0.072865  
      58A      0.074048    59A      0.083302    60A      0.104796  
      61A      0.111372    62A      0.115097    63A      0.115850  
      64A      0.122659    65A      0.128364    66A      0.129496  
      67A      0.131362    68A      0.132447    69A      0.133711  
      70A      0.139084    71A      0.139764    72A      0.143479  
      73A      0.147128    74A      0.155885    75A      0.156920  
      76A      0.163116    77A      0.167940    78A      0.171047  
      79A      0.177969    80A      0.182873    81A      0.186604  
      82A      0.193112    83A      0.203923    84A      0.206041  
      85A      0.216260    86A      0.217678    87A      0.222125  
      88A      0.227439    89A      0.230042    90A      0.240282  
      91A      0.242533    92A      0.248685    93A      0.252878  
      94A      0.256444    95A      0.259672    96A      0.261521  
      97A      0.267573    98A      0.280463    99A      0.283570  
     100A      0.285434   101A      0.288435   102A      0.290796  
     103A      0.295794   104A      0.299771   105A      0.308017  
     106A      0.308350   107A      0.316124   108A      0.317644  
     109A      0.323249   110A      0.325696   111A      0.329322  
     112A      0.334328   113A      0.339148   114A      0.342456  
     115A      0.349319   116A      0.350277   117A      0.355220  
     118A      0.356927   119A      0.362332   120A      0.365398  
     121A      0.370853   122A      0.371152   123A      0.377389  
     124A      0.382366   125A      0.385420   126A      0.388139  
     127A      0.391672   128A      0.394434   129A      0.399874  
     130A      0.405475   131A      0.408662   132A      0.414543  
     133A      0.418286   134A      0.420309   135A      0.427150  
     136A      0.429342   137A      0.434744   138A      0.436381  
     139A      0.443226   140A      0.444925   141A      0.449015  
     142A      0.451505   143A      0.454284   144A      0.456486  
     145A      0.457809   146A      0.462582   147A      0.465966  
     148A      0.469037   149A      0.474546   150A      0.478385  
     151A      0.484947   152A      0.487204   153A      0.491936  
     154A      0.494894   155A      0.498125   156A      0.502784  
     157A      0.507848   158A      0.510670   159A      0.519653  
     160A      0.525740   161A      0.526375   162A      0.532250  
     163A      0.537452   164A      0.537713   165A      0.544884  
     166A      0.551348   167A      0.553777   168A      0.557545  
     169A      0.567201   170A      0.569169   171A      0.573742  
     172A      0.578530   173A      0.581582   174A      0.589600  
     175A      0.590042   176A      0.596051   177A      0.601640  
     178A      0.608559   179A      0.615522   180A      0.619375  
     181A      0.621173   182A      0.621993   183A      0.626910  
     184A      0.631801   185A      0.644464   186A      0.647531  
     187A      0.655022   188A      0.657704   189A      0.668665  
     190A      0.674685   191A      0.677638   192A      0.686489  
     193A      0.695362   194A      0.699946   195A      0.711143  
     196A      0.728189   197A      0.730450   198A      0.738205  
     199A      0.755772   200A      0.763718   201A      0.775453  
     202A      0.778733   203A      0.784567   204A      0.791433  
     205A      0.801094   206A      0.802194   207A      0.807018  
     208A      0.812736   209A      0.817762   210A      0.819565  
     211A      0.828404   212A      0.834448   213A      0.839334  
     214A      0.846069   215A      0.852235   216A      0.858694  
     217A      0.861109   218A      0.866756   219A      0.871568  
     220A      0.881734   221A      0.883124   222A      0.887135  
     223A      0.890179   224A      0.901093   225A      0.903932  
     226A      0.907274   227A      0.912164   228A      0.915772  
     229A      0.923560   230A      0.925545   231A      0.927982  
     232A      0.934996   233A      0.939679   234A      0.941820  
     235A      0.944277   236A      0.948285   237A      0.954730  
     238A      0.958968   239A      0.966805   240A      0.971135  
     241A      0.973813   242A      0.980113   243A      0.983948  
     244A      0.987708   245A      0.993433   246A      0.999384  
     247A      1.001796   248A      1.008659   249A      1.015104  
     250A      1.023139   251A      1.023822   252A      1.030872  
     253A      1.036835   254A      1.045573   255A      1.051881  
     256A      1.058236   257A      1.060148   258A      1.065613  
     259A      1.070197   260A      1.080833   261A      1.084563  
     262A      1.088017   263A      1.095150   264A      1.099917  
     265A      1.102710   266A      1.107000   267A      1.114351  
     268A      1.119648   269A      1.123983   270A      1.125020  
     271A      1.132817   272A      1.138106   273A      1.143922  
     274A      1.145964   275A      1.151488   276A      1.153777  
     277A      1.162475   278A      1.167994   279A      1.172850  
     280A      1.180490   281A      1.185449   282A      1.190097  
     283A      1.194806   284A      1.206819   285A      1.210323  
     286A      1.214588   287A      1.219014   288A      1.226941  
     289A      1.234823   290A      1.239030   291A      1.246485  
     292A      1.250698   293A      1.257697   294A      1.264052  
     295A      1.267310   296A      1.271404   297A      1.274183  
     298A      1.290203   299A      1.298532   300A      1.303370  
     301A      1.309790   302A      1.312851   303A      1.324412  
     304A      1.326882   305A      1.327250   306A      1.339387  
     307A      1.341457   308A      1.348178   309A      1.358543  
     310A      1.362702   311A      1.376018   312A      1.379993  
     313A      1.385985   314A      1.398886   315A      1.408825  
     316A      1.412747   317A      1.420576   318A      1.426866  
     319A      1.436718   320A      1.441479   321A      1.450614  
     322A      1.455926   323A      1.463892   324A      1.470703  
     325A      1.477919   326A      1.484596   327A      1.491089  
     328A      1.494427   329A      1.505454   330A      1.510108  
     331A      1.529612   332A      1.532755   333A      1.538449  
     334A      1.542036   335A      1.544900   336A      1.546999  
     337A      1.552549   338A      1.559712   339A      1.565748  
     340A      1.569393   341A      1.588132   342A      1.596370  
     343A      1.601106   344A      1.611508   345A      1.619529  
     346A      1.626775   347A      1.639997   348A      1.644360  
     349A      1.652572   350A      1.655200   351A      1.664029  
     352A      1.669457   353A      1.673540   354A      1.679216  
     355A      1.686891   356A      1.689857   357A      1.694711  
     358A      1.698437   359A      1.706989   360A      1.715565  
     361A      1.716167   362A      1.718958   363A      1.725979  
     364A      1.728993   365A      1.735422   366A      1.742838  
     367A      1.745889   368A      1.751371   369A      1.755798  
     370A      1.761634   371A      1.765977   372A      1.776937  
     373A      1.783015   374A      1.786466   375A      1.800303  
     376A      1.814859   377A      1.819082   378A      1.826776  
     379A      1.837151   380A      1.847972   381A      1.853818  
     382A      1.857247   383A      1.861857   384A      1.868990  
     385A      1.872494   386A      1.886634   387A      1.890668  
     388A      1.902403   389A      1.912515   390A      1.914584  
     391A      1.918212   392A      1.929773   393A      1.934528  
     394A      1.944488   395A      1.956870   396A      1.969200  
     397A      1.975790   398A      1.978731   399A      1.983042  
     400A      1.991610   401A      2.001028   402A      2.012590  
     403A      2.017188   404A      2.030441   405A      2.031168  
     406A      2.038568   407A      2.045499   408A      2.054864  
     409A      2.070654   410A      2.081513   411A      2.082224  
     412A      2.099488   413A      2.101609   414A      2.111881  
     415A      2.121520   416A      2.137356   417A      2.147894  
     418A      2.159038   419A      2.168904   420A      2.179912  
     421A      2.197757   422A      2.204180   423A      2.212898  
     424A      2.225471   425A      2.232487   426A      2.234531  
     427A      2.240005   428A      2.250358   429A      2.256015  
     430A      2.266793   431A      2.268294   432A      2.280156  
     433A      2.290673   434A      2.293712   435A      2.295632  
     436A      2.306968   437A      2.312752   438A      2.324023  
     439A      2.340028   440A      2.344754   441A      2.359137  
     442A      2.377594   443A      2.380746   444A      2.389749  
     445A      2.394983   446A      2.406819   447A      2.412193  
     448A      2.420957   449A      2.446501   450A      2.448924  
     451A      2.452217   452A      2.472355   453A      2.476616  
     454A      2.481077   455A      2.497187   456A      2.510394  
     457A      2.519847   458A      2.521980   459A      2.535207  
     460A      2.541110   461A      2.564202   462A      2.578050  
     463A      2.592020   464A      2.603470   465A      2.612752  
     466A      2.621136   467A      2.636047   468A      2.644808  
     469A      2.655943   470A      2.660160   471A      2.686349  
     472A      2.694983   473A      2.716008   474A      2.720567  
     475A      2.744969   476A      2.761174   477A      2.775031  
     478A      2.794681   479A      2.798054   480A      2.834013  
     481A      2.840652   482A      2.852609   483A      2.874405  
     484A      2.878912   485A      2.902065   486A      2.905260  
     487A      2.914492   488A      2.941069   489A      2.954687  
     490A      2.973373   491A      2.995110   492A      3.008541  
     493A      3.044689   494A      3.061334   495A      3.072751  
     496A      3.092407   497A      3.125312   498A      3.138665  
     499A      3.164090   500A      3.182516   501A      3.209048  
     502A      3.219075   503A      3.257547   504A      3.277931  
     505A      3.303441   506A      3.332261   507A      3.360975  
     508A      3.366208   509A      3.393575   510A      3.413128  
     511A      3.416300   512A      3.433828   513A      3.446183  
     514A      3.456114   515A      3.464488   516A      3.478783  
     517A      3.489241   518A      3.494471   519A      3.499684  
     520A      3.515795   521A      3.527720   522A      3.550810  
     523A      3.559476   524A      3.581931   525A      3.589043  
     526A      3.593774   527A      3.614412   528A      3.629551  
     529A      3.636962   530A      3.643124   531A      3.659426  
     532A      3.672409   533A      3.676226   534A      3.682788  
     535A      3.690953   536A      3.698963   537A      3.709935  
     538A      3.729321   539A      3.733767   540A      3.747094  
     541A      3.759203   542A      3.774506   543A      3.775287  
     544A      3.778894   545A      3.790183   546A      3.793982  
     547A      3.802463   548A      3.808144   549A      3.813387  
     550A      3.820417   551A      3.837980   552A      3.845306  
     553A      3.857227   554A      3.859711   555A      3.885506  
     556A      3.887930   557A      3.896908   558A      3.911690  
     559A      3.922149   560A      3.927319   561A      3.932909  
     562A      3.939856   563A      3.953937   564A      3.958896  
     565A      3.960845   566A      3.973470   567A      3.982753  
     568A      3.985754   569A      3.999676   570A      4.010166  
     571A      4.023021   572A      4.035494   573A      4.037410  
     574A      4.046950   575A      4.053076   576A      4.059046  
     577A      4.073853   578A      4.079976   579A      4.091587  
     580A      4.113340   581A      4.115339   582A      4.127770  
     583A      4.149988   584A      4.172665   585A      4.174283  
     586A      4.188698   587A      4.199061   588A      4.214640  
     589A      4.224616   590A      4.227776   591A      4.239610  
     592A      4.254333   593A      4.268557   594A      4.272122  
     595A      4.277582   596A      4.284357   597A      4.287047  
     598A      4.310035   599A      4.322143   600A      4.342267  
     601A      4.345968   602A      4.371027   603A      4.373515  
     604A      4.397881   605A      4.407218   606A      4.416055  
     607A      4.428159   608A      4.450218   609A      4.459084  
     610A      4.465374   611A      4.472887   612A      4.484985  
     613A      4.504451   614A      4.520660   615A      4.535488  
     616A      4.553123   617A      4.566145   618A      4.586007  
     619A      4.619022   620A      4.630335   621A      4.640897  
     622A      4.647619   623A      4.662051   624A      4.679846  
     625A      4.681230   626A      4.704908   627A      4.726887  
     628A      4.733679   629A      4.744053   630A      4.753406  
     631A      4.775380   632A      4.779767   633A      4.792073  
     634A      4.796729   635A      4.812635   636A      4.821652  
     637A      4.844475   638A      4.855961   639A      4.867606  
     640A      4.880777   641A      4.881107   642A      4.890502  
     643A      4.915362   644A      4.925125   645A      4.938691  
     646A      4.943876   647A      4.954819   648A      4.969766  
     649A      4.990335   650A      4.993493   651A      5.021129  
     652A      5.022264   653A      5.042391   654A      5.061884  
     655A      5.068266   656A      5.096448   657A      5.107422  
     658A      5.111363   659A      5.122974   660A      5.139860  
     661A      5.149511   662A      5.166788   663A      5.171616  
     664A      5.183152   665A      5.204894   666A      5.214336  
     667A      5.244312   668A      5.264948   669A      5.273838  
     670A      5.285396   671A      5.303315   672A      5.313638  
     673A      5.323301   674A      5.329537   675A      5.342238  
     676A      5.350597   677A      5.353527   678A      5.365480  
     679A      5.373405   680A      5.384110   681A      5.394710  
     682A      5.424602   683A      5.433089   684A      5.449735  
     685A      5.459865   686A      5.461231   687A      5.472200  
     688A      5.487476   689A      5.516641   690A      5.535285  
     691A      5.555175   692A      5.566650   693A      5.568190  
     694A      5.596586   695A      5.613911   696A      5.629316  
     697A      5.657176   698A      5.685490   699A      5.694932  
     700A      5.723380   701A      5.729779   702A      5.755036  
     703A      5.760612   704A      5.773341   705A      5.803783  
     706A      5.806128   707A      5.875559   708A      5.897396  
     709A      5.928381   710A      5.947655   711A      5.954535  
     712A      5.956625   713A      5.979928   714A      5.991349  
     715A      6.028871   716A      6.072867   717A      6.089223  
     718A      6.096938   719A      6.118940   720A      6.155844  
     721A      6.164825   722A      6.184807   723A      6.218837  
     724A      6.265028   725A      6.277992   726A      6.323318  
     727A      6.329250   728A      6.355165   729A      6.399387  
     730A      6.419454   731A      6.536469   732A      6.698338  
     733A      6.726238   734A      6.744339   735A      6.752286  
     736A      6.769313   737A      6.805723   738A      6.819429  
     739A      6.836855   740A      6.838919   741A      6.852073  
     742A      6.873425   743A      6.894501   744A      6.915552  
     745A      6.927583   746A      6.944628   747A      6.951201  
     748A      6.970630   749A      6.994146   750A      7.010245  
     751A      7.032083   752A      7.058550   753A      7.072619  
     754A      7.086458   755A      7.120062   756A      7.175109  
     757A      7.204723   758A      7.220347   759A      7.254470  
     760A      7.344153   761A      7.372784   762A      7.394116  
     763A      7.400591   764A      7.431083   765A      7.489259  
     766A      7.558893   767A      7.634200   768A      7.654305  
     769A      7.736374   770A      7.782415   771A      7.811623  
     772A      7.822523   773A      7.840349   774A      7.903484  
     775A      8.153838   776A      8.259645   777A     13.400911  
     778A     13.755848   779A     14.003896   780A     15.643437  
     781A     17.655392   782A     17.869508   783A     18.212830  
     784A     18.313133   785A     18.394395   786A     19.497140  

    Final Occupation by Irrep:
              A 
    DOCC [    45 ]

  @DF-RHF Final Energy:  -857.62444366884222

   => Energetics <=

    Nuclear Repulsion Energy =            722.3466214324575958
    One-Electron Energy =               -2612.2045144947246627
    Two-Electron Energy =                1032.2334493934249622
    Total Energy =                       -857.6244436688421047

Computation Completed

*** tstop() called on c451-101.stampede2.tacc.utexas.edu at Thu Apr  1 23:17:43 2021
Module time:
	user time   =     622.43 seconds =      10.37 minutes
	system time =      13.77 seconds =       0.23 minutes
	total time  =        173 seconds =       2.88 minutes
Total time:
	user time   =     622.43 seconds =      10.37 minutes
	system time =      13.77 seconds =       0.23 minutes
	total time  =        173 seconds =       2.88 minutes
   => Loading Basis Set <=

    Name: (AUG-CC-PVTZ AUX)
    Role: RIFIT
    Keyword: DF_BASIS_MP2
    atoms 1     entry S          line   666 file /home1/07844/xy3866/miniconda3/envs/p4env/share/psi4/basis/aug-cc-pvtz-ri.gbs 
    atoms 2-4   entry O          line   264 file /home1/07844/xy3866/miniconda3/envs/p4env/share/psi4/basis/aug-cc-pvtz-ri.gbs 
    atoms 5-10  entry C          line   148 file /home1/07844/xy3866/miniconda3/envs/p4env/share/psi4/basis/aug-cc-pvtz-ri.gbs 
    atoms 11-24 entry H          line    30 file /home1/07844/xy3866/miniconda3/envs/p4env/share/psi4/basis/aug-cc-pvtz-ri.gbs 


*** tstart() called on c451-101.stampede2.tacc.utexas.edu
*** at Thu Apr  1 23:17:44 2021


  //>>>>>>>>>>>>>>>>>>>>>>>>>>>>>>>>>>>//
  //               DFMP2               //
  //<<<<<<<<<<<<<<<<<<<<<<<<<<<<<<<<<<<//

	 --------------------------------------------------------
	                          DF-MP2                         
	      2nd-Order Density-Fitted Moller-Plesset Theory     
	              RMP2 Wavefunction,   8 Threads             
	                                                         
	        Rob Parrish, Justin Turney, Andy Simmonett,      
	           Ed Hohenstein, and C. David Sherrill          
	 --------------------------------------------------------

   => Auxiliary Basis Set <=

  Basis Set: (AUG-CC-PVTZ AUX)
    Blend: AUG-CC-PVTZ-RI
    Number of shells: 485
    Number of basis functions: 1745
    Number of Cartesian functions: 2185
    Spherical Harmonics?: true
    Max angular momentum: 4

	 --------------------------------------------------------
	                 NBF =   786, NAUX =  1745
	 --------------------------------------------------------
	   CLASS    FOCC     OCC    AOCC    AVIR     VIR    FVIR
	   PAIRS       0      45      45     741     741       0
	 --------------------------------------------------------

  DFHelper Memory: AOs need 7.260 GiB; user supplied 22.352 GiB. Using in-core AOs.


         ------------------------------------------------------------
                                     CPHF                           
                                  Rob Parrish                       
         ------------------------------------------------------------

  ==> Geometry <==

    Molecular point group: c1
    Full point group: C1

    Geometry (in Angstrom), charge = 0, multiplicity = 1:

       Center              X                  Y                   Z               Mass       
    ------------   -----------------  -----------------  -----------------  -----------------
         S           -0.263133681355    -0.398570878525     0.148222239451    31.972071174400
         O           -1.534262681355     0.604865121475    -0.118350760549    15.994914619570
         O           -0.319296681355    -1.483687878525    -0.833729760549    15.994914619570
         O           -0.184448681355    -0.717579878525     1.574753239451    15.994914619570
         C            2.393693318645     0.338551121475     0.204730239451    12.000000000000
         C            1.005670318645     0.785854121475    -0.259958760549    12.000000000000
         C            2.869557318645    -0.927388878525    -0.506487760549    12.000000000000
         C            3.372552318645     1.491360121475    -0.019657760549    12.000000000000
         C           -2.827410681355    -0.075787878525    -0.119266760549    12.000000000000
         C           -3.870643681355     1.007447121475    -0.259024760549    12.000000000000
         H            2.329865318645     0.138171121475     1.280812239451     1.007825032230
         H            0.963599318645     0.927921121475    -1.344487760549     1.007825032230
         H            0.706021318645     1.715412121475     0.233030239451     1.007825032230
         H            2.900670318645    -0.768529878525    -1.589913760549     1.007825032230
         H            2.219390318645    -1.782745878525    -0.312163760549     1.007825032230
         H            3.879359318645    -1.184226878525    -0.172917760549     1.007825032230
         H            3.449636318645     1.731507121475    -1.085527760549     1.007825032230
         H            3.059792318645     2.394543121475     0.513473239451     1.007825032230
         H            4.370001318645     1.216637121475     0.335678239451     1.007825032230
         H           -2.846857681355    -0.782176878525    -0.952890760549     1.007825032230
         H           -2.935944681355    -0.624414878525     0.821214239451     1.007825032230
         H           -3.815029681355     1.702254121475     0.581080239451     1.007825032230
         H           -3.721928681355     1.562519121475    -1.187472760549     1.007825032230
         H           -4.913084781355     0.537076421475    -0.277785860549     1.007825032230

  Nuclear repulsion =  722.346621432457596
  Reference energy  = -857.624443668842218

  ==> Basis Set <==

  Basis Set: AUG-CC-PVTZ
    Blend: AUG-CC-PVTZ
    Number of shells: 268
    Number of basis functions: 786
    Number of Cartesian functions: 904
    Spherical Harmonics?: true
    Max angular momentum: 3

  ==> CGRSolver (by Rob Parrish) <==

   Number of roots    =         1
   Preconditioning    =    JACOBI
   Convergence cutoff =     1E-06
   Maximum iterations =       100

  ==> CPHFRHamiltonian (by Rob Parrish) <== 

  ==> MemDFJK: Density-Fitted J/K Matrices <==

    J tasked:                   Yes
    K tasked:                   Yes
    wK tasked:                   No
    OpenMP threads:               8
    Memory [MiB]:             22888
    Algorithm:                 Core
    Schwarz Cutoff:           1E-12
    Mask sparsity (%):      10.9246
    Fitting Condition:        1E-10

   => Auxiliary Basis Set <=

  Basis Set: (AUG-CC-PVTZ AUX)
    Blend: AUG-CC-PVTZ-JKFIT
    Number of shells: 508
    Number of basis functions: 1726
    Number of Cartesian functions: 2129
    Spherical Harmonics?: true
    Max angular momentum: 4

  ==> CPHF Iterations <==

  => Iterations <=

             Iter  Converged  Remaining    Residual
  CGR           1          0          1   1.099E-01
  CGR           2          0          1   2.900E-02
  CGR           3          0          1   1.166E-02
  CGR           4          0          1   3.780E-03
  CGR           5          0          1   1.462E-03
  CGR           6          0          1   3.554E-04
  CGR           7          0          1   1.357E-04
  CGR           8          0          1   4.407E-05
  CGR           9          0          1   1.140E-05
  CGR          10          0          1   3.425E-06
  CGR          11          0          1   1.166E-06
  CGR          12          1          0   3.669E-07

    CGRSolver converged.

	-----------------------------------------------------------
	 ==================> DF-MP2 Energies <==================== 
	-----------------------------------------------------------
	 Reference Energy          =    -857.6244436688422184 [Eh]
	 Singles Energy            =      -0.0000000000000000 [Eh]
	 Same-Spin Energy          =      -0.5252665604424723 [Eh]
	 Opposite-Spin Energy      =      -1.6811029358183487 [Eh]
	 Correlation Energy        =      -2.2063694962608209 [Eh]
	 Total Energy              =    -859.8308131651029953 [Eh]
	-----------------------------------------------------------
	 ================> DF-SCS-MP2 Energies <================== 
	-----------------------------------------------------------
	 SCS Same-Spin Scale       =       0.3333333333333333 [-]
	 SCS Opposite-Spin Scale   =       1.2000000000000000 [-]
	 SCS Same-Spin Energy      =      -0.1750888534808241 [Eh]
	 SCS Opposite-Spin Energy  =      -2.0173235229820183 [Eh]
	 SCS Correlation Energy    =      -2.1924123764628423 [Eh]
	 SCS Total Energy          =    -859.8168560453050304 [Eh]
	-----------------------------------------------------------



Properties will be evaluated at   0.000000,   0.000000,  -0.000000 [a0]

Properties computed using the MP2 density matrix

  Nuclear Dipole Moment: [e a0]
     X:     5.2757      Y:     6.3416      Z:    -2.9535

  Electronic Dipole Moment: [e a0]
     X:    -5.2899      Y:    -5.2739      Z:     2.5432

  Dipole Moment: [e a0]
     X:    -0.0141      Y:     1.0676      Z:    -0.4103     Total:     1.1438

  Dipole Moment: [D]
     X:    -0.0359      Y:     2.7136      Z:    -1.0430     Total:     2.9073


*** tstop() called on c451-101.stampede2.tacc.utexas.edu at Thu Apr  1 23:25:32 2021
Module time:
	user time   =    2680.96 seconds =      44.68 minutes
	system time =      38.30 seconds =       0.64 minutes
	total time  =        468 seconds =       7.80 minutes
Total time:
	user time   =    3304.56 seconds =      55.08 minutes
	system time =      52.10 seconds =       0.87 minutes
	total time  =        642 seconds =      10.70 minutes

    Psi4 stopped on: Thursday, 01 April 2021 11:25PM
    Psi4 wall time for execution: 0:10:46.72

*** Psi4 exiting successfully. Buy a developer a beer!
