
    -----------------------------------------------------------------------
          Psi4: An Open-Source Ab Initio Electronic Structure Package
                               Psi4 1.4a3.dev225 

                         Git: Rev {master} 7105e37 


    D. G. A. Smith, L. A. Burns, A. C. Simmonett, R. M. Parrish,
    M. C. Schieber, R. Galvelis, P. Kraus, H. Kruse, R. Di Remigio,
    A. Alenaizan, A. M. James, S. Lehtola, J. P. Misiewicz, M. Scheurer,
    R. A. Shaw, J. B. Schriber, Y. Xie, Z. L. Glick, D. A. Sirianni,
    J. S. O'Brien, J. M. Waldrop, A. Kumar, E. G. Hohenstein,
    B. P. Pritchard, B. R. Brooks, H. F. Schaefer III, A. Yu. Sokolov,
    K. Patkowski, A. E. DePrince III, U. Bozkaya, R. A. King,
    F. A. Evangelista, J. M. Turney, T. D. Crawford, C. D. Sherrill,
    J. Chem. Phys. 152(18) 184108 (2020). https://doi.org/10.1063/5.0006002

                            Additional Code Authors
    E. T. Seidl, C. L. Janssen, E. F. Valeev, M. L. Leininger,
    J. F. Gonthier, R. M. Richard, H. R. McAlexander, M. Saitow, X. Wang,
    P. Verma, and M. H. Lechner

             Previous Authors, Complete List of Code Contributors,
                       and Citations for Specific Modules
    https://github.com/psi4/psi4/blob/master/codemeta.json
    https://github.com/psi4/psi4/graphs/contributors
    http://psicode.org/psi4manual/master/introduction.html#citing-psifour

    -----------------------------------------------------------------------


    Psi4 started on: Monday, 01 March 2021 07:44AM

    Process ID: 163272
    Host:       c401-011.stampede2.tacc.utexas.edu
    PSIDATADIR: /home1/07844/xy3866/miniconda3/envs/p4env/share/psi4
    Memory:     500.0 MiB
    Threads:    32
    
  ==> Input File <==

--------------------------------------------------------------------------
#psi4
#
memory 32 gb

molecule  {
0 1
  S       -0.2946600    -0.4360860     0.1655790
  O       -1.5657890     0.5673500    -0.1009940
  O       -0.3508230    -1.5212030    -0.8163730
  O       -0.2159750    -0.7550950     1.5921100
  C        2.3621670     0.3010360     0.2220870
  C        0.9741440     0.7483390    -0.2426020
  C        2.8380310    -0.9649040    -0.4891310
  C        3.3410260     1.4538450    -0.0023010
  C       -2.8589370    -0.1133030    -0.1019100
  C       -3.9021700     0.9699320    -0.2416680
  H        2.2983390     0.1006560     1.2981690
  H        0.9320730     0.8904060    -1.3271310
  H        0.6744950     1.6778970     0.2503870
  H        2.8691440    -0.8060450    -1.5725570
  H        2.1878640    -1.8202610    -0.2948070
  H        3.8478330    -1.2217420    -0.1555610
  H        3.4110723     1.6720669    -0.9708583
  H        3.0282660     2.3570280     0.5308300
  H        4.3384750     1.1791220     0.3530350
  H       -2.8783840    -0.8196920    -0.9355340
  H       -2.9674710    -0.6619300     0.8385710
  H       -3.8465560     1.6647390     0.5984370
  H       -3.7534550     1.5250040    -1.1701160
  H       -4.8990420     0.5201230    -0.2596090
units angstrom
no_reorient  #important for SAPT in psi4, default
symmetry c1  #important for SAPT in psi4, default
}

set PROPERTIES_ORIGIN ["COM"]
properties('MP2/aug-cc-pvtz', properties = ['dipole'])
--------------------------------------------------------------------------

  Memory set to  29.802 GiB by Python driver.
    SCF Algorithm Type (re)set to DF.

*** tstart() called on c401-011.stampede2.tacc.utexas.edu
*** at Mon Mar  1 07:44:15 2021

   => Loading Basis Set <=

    Name: AUG-CC-PVTZ
    Role: ORBITAL
    Keyword: BASIS
    atoms 1     entry S          line   906 file /home1/07844/xy3866/miniconda3/envs/p4env/share/psi4/basis/aug-cc-pvtz.gbs 
    atoms 2-4   entry O          line   331 file /home1/07844/xy3866/miniconda3/envs/p4env/share/psi4/basis/aug-cc-pvtz.gbs 
    atoms 5-10  entry C          line   239 file /home1/07844/xy3866/miniconda3/envs/p4env/share/psi4/basis/aug-cc-pvtz.gbs 
    atoms 11-24 entry H          line    40 file /home1/07844/xy3866/miniconda3/envs/p4env/share/psi4/basis/aug-cc-pvtz.gbs 


         ---------------------------------------------------------
                                   SCF
               by Justin Turney, Rob Parrish, Andy Simmonett
                          and Daniel G. A. Smith
                              RHF Reference
                       32 Threads,  30517 MiB Core
         ---------------------------------------------------------

  ==> Geometry <==

    Molecular point group: c1
    Full point group: C1

    Geometry (in Angstrom), charge = 0, multiplicity = 1:

       Center              X                  Y                   Z               Mass       
    ------------   -----------------  -----------------  -----------------  -----------------
         S           -0.263367521057    -0.398562604311     0.147626690244    31.972071174400
         O           -1.534496521057     0.604873395689    -0.118946309756    15.994914619570
         O           -0.319530521057    -1.483679604311    -0.834325309756    15.994914619570
         O           -0.184682521057    -0.717571604311     1.574157690244    15.994914619570
         C            2.393459478943     0.338559395689     0.204134690244    12.000000000000
         C            1.005436478943     0.785862395689    -0.260554309756    12.000000000000
         C            2.869323478943    -0.927380604311    -0.507083309756    12.000000000000
         C            3.372318478943     1.491368395689    -0.020253309756    12.000000000000
         C           -2.827644521057    -0.075779604311    -0.119862309756    12.000000000000
         C           -3.870877521057     1.007455395689    -0.259620309756    12.000000000000
         H            2.329631478943     0.138179395689     1.280216690244     1.007825032230
         H            0.963365478943     0.927929395689    -1.345083309756     1.007825032230
         H            0.705787478943     1.715420395689     0.232434690244     1.007825032230
         H            2.900436478943    -0.768521604311    -1.590509309756     1.007825032230
         H            2.219156478943    -1.782737604311    -0.312759309756     1.007825032230
         H            3.879125478943    -1.184218604311    -0.173513309756     1.007825032230
         H            3.442364778943     1.709590295689    -0.988810609756     1.007825032230
         H            3.059558478943     2.394551395689     0.512877690244     1.007825032230
         H            4.369767478943     1.216645395689     0.335082690244     1.007825032230
         H           -2.847091521057    -0.782168604311    -0.953486309756     1.007825032230
         H           -2.936178521057    -0.624406604311     0.820618690244     1.007825032230
         H           -3.815263521057     1.702262395689     0.580484690244     1.007825032230
         H           -3.722162521057     1.562527395689    -1.188068309756     1.007825032230
         H           -4.867749521057     0.557646395689    -0.277561309756     1.007825032230

  Running in c1 symmetry.

  Rotational constants: A =      0.08164  B =      0.01989  C =      0.01837 [cm^-1]
  Rotational constants: A =   2447.49477  B =    596.28687  C =    550.60155 [MHz]
  Nuclear repulsion =  723.035504565797055

  Charge       = 0
  Multiplicity = 1
  Electrons    = 90
  Nalpha       = 45
  Nbeta        = 45

  ==> Algorithm <==

  SCF Algorithm Type is DF.
  DIIS enabled.
  MOM disabled.
  Fractional occupation disabled.
  Guess Type is SAD.
  Energy threshold   = 1.00e-10
  Density threshold  = 1.00e-10
  Integral threshold = 1.00e-12

  ==> Primary Basis <==

  Basis Set: AUG-CC-PVTZ
    Blend: AUG-CC-PVTZ
    Number of shells: 268
    Number of basis functions: 786
    Number of Cartesian functions: 904
    Spherical Harmonics?: true
    Max angular momentum: 3

   => Loading Basis Set <=

    Name: (AUG-CC-PVTZ AUX)
    Role: JKFIT
    Keyword: DF_BASIS_SCF
    atoms 1     entry S          line   730 file /home1/07844/xy3866/miniconda3/envs/p4env/share/psi4/basis/aug-cc-pvtz-jkfit.gbs 
    atoms 2-4   entry O          line   286 file /home1/07844/xy3866/miniconda3/envs/p4env/share/psi4/basis/aug-cc-pvtz-jkfit.gbs 
    atoms 5-10  entry C          line   162 file /home1/07844/xy3866/miniconda3/envs/p4env/share/psi4/basis/aug-cc-pvtz-jkfit.gbs 
    atoms 11-24 entry H          line    70 file /home1/07844/xy3866/miniconda3/envs/p4env/share/psi4/basis/aug-cc-pvtz-jkfit.gbs 

  ==> Integral Setup <==

  DFHelper Memory: AOs need 6.998 GiB; user supplied 22.352 GiB. Using in-core AOs.

  ==> MemDFJK: Density-Fitted J/K Matrices <==

    J tasked:                   Yes
    K tasked:                   Yes
    wK tasked:                   No
    OpenMP threads:              32
    Memory [MiB]:             22888
    Algorithm:                 Core
    Schwarz Cutoff:           1E-12
    Mask sparsity (%):      15.6139
    Fitting Condition:        1E-10

   => Auxiliary Basis Set <=

  Basis Set: (AUG-CC-PVTZ AUX)
    Blend: AUG-CC-PVTZ-JKFIT
    Number of shells: 508
    Number of basis functions: 1726
    Number of Cartesian functions: 2129
    Spherical Harmonics?: true
    Max angular momentum: 4

  Minimum eigenvalue in the overlap matrix is 2.8670036248E-06.
  Reciprocal condition number of the overlap matrix is 1.3856484359E-07.
    Using symmetric orthogonalization.

  ==> Pre-Iterations <==

  SCF Guess: Superposition of Atomic Densities via on-the-fly atomic UHF (no occupation information).

   -------------------------
    Irrep   Nso     Nmo    
   -------------------------
     A        786     786 
   -------------------------
    Total     786     786
   -------------------------

  ==> Iterations <==

                           Total Energy        Delta E     RMS |[F,P]|

   @DF-RHF iter SAD:  -857.35444493933585   -8.57354e+02   0.00000e+00 
   @DF-RHF iter   1:  -857.15051835077929    2.03927e-01   1.24467e-03 DIIS
   @DF-RHF iter   2:  -857.47221473502543   -3.21696e-01   7.85898e-04 DIIS
   @DF-RHF iter   3:  -857.61335451930768   -1.41140e-01   1.33878e-04 DIIS
   @DF-RHF iter   4:  -857.61942095676454   -6.06644e-03   4.97444e-05 DIIS
   @DF-RHF iter   5:  -857.62036196697215   -9.41010e-04   1.17496e-05 DIIS
   @DF-RHF iter   6:  -857.62041103868671   -4.90717e-05   3.67526e-06 DIIS
   @DF-RHF iter   7:  -857.62041711463075   -6.07594e-06   1.11426e-06 DIIS
   @DF-RHF iter   8:  -857.62041766771711   -5.53086e-07   3.70875e-07 DIIS
   @DF-RHF iter   9:  -857.62041774848376   -8.07667e-08   1.14561e-07 DIIS
   @DF-RHF iter  10:  -857.62041775919113   -1.07074e-08   3.13561e-08 DIIS
   @DF-RHF iter  11:  -857.62041776003355   -8.42419e-10   1.01393e-08 DIIS
   @DF-RHF iter  12:  -857.62041776011120   -7.76481e-11   3.52143e-09 DIIS
   @DF-RHF iter  13:  -857.62041776012347   -1.22782e-11   1.01267e-09 DIIS
   @DF-RHF iter  14:  -857.62041776012404   -5.68434e-13   3.21235e-10 DIIS
   @DF-RHF iter  15:  -857.62041776012370    3.41061e-13   1.13706e-10 DIIS
   @DF-RHF iter  16:  -857.62041776012211    1.59162e-12   4.55015e-11 DIIS
  Energy and wave function converged.


  ==> Post-Iterations <==

    Orbital Energies [Eh]
    ---------------------

    Doubly Occupied:                                                      

       1A    -92.213713     2A    -20.614806     3A    -20.553578  
       4A    -20.553399     5A    -11.301847     6A    -11.277985  
       7A    -11.250382     8A    -11.232990     9A    -11.218490  
      10A    -11.216853    11A     -9.177959    12A     -6.863415  
      13A     -6.861970    14A     -6.861794    15A     -1.480917  
      16A     -1.374975    17A     -1.337289    18A     -1.121812  
      19A     -1.051848    20A     -0.998719    21A     -0.948078  
      22A     -0.877813    23A     -0.831675    24A     -0.790702  
      25A     -0.725203    26A     -0.692768    27A     -0.690789  
      28A     -0.657169    29A     -0.636969    30A     -0.616306  
      31A     -0.606609    32A     -0.588401    33A     -0.570913  
      34A     -0.562952    35A     -0.556877    36A     -0.545459  
      37A     -0.537180    38A     -0.509584    39A     -0.499876  
      40A     -0.496956    41A     -0.489961    42A     -0.485311  
      43A     -0.484594    44A     -0.463218    45A     -0.453230  

    Virtual:                                                              

      46A      0.025976    47A      0.029989    48A      0.036713  
      49A      0.037238    50A      0.045957    51A      0.047999  
      52A      0.049293    53A      0.058051    54A      0.060242  
      55A      0.064568    56A      0.070756    57A      0.072858  
      58A      0.073960    59A      0.083432    60A      0.104766  
      61A      0.111508    62A      0.115200    63A      0.116226  
      64A      0.122826    65A      0.128548    66A      0.129698  
      67A      0.131357    68A      0.132328    69A      0.133862  
      70A      0.139076    71A      0.139812    72A      0.143426  
      73A      0.146997    74A      0.156414    75A      0.157207  
      76A      0.163339    77A      0.168223    78A      0.170788  
      79A      0.178062    80A      0.182873    81A      0.186933  
      82A      0.193291    83A      0.204097    84A      0.206681  
      85A      0.216584    86A      0.218852    87A      0.222551  
      88A      0.227546    89A      0.230507    90A      0.240093  
      91A      0.243772    92A      0.249544    93A      0.253256  
      94A      0.257007    95A      0.260218    96A      0.262972  
      97A      0.268069    98A      0.280475    99A      0.284237  
     100A      0.287077   101A      0.288717   102A      0.290950  
     103A      0.296449   104A      0.301007   105A      0.308395  
     106A      0.309218   107A      0.316945   108A      0.318421  
     109A      0.323873   110A      0.326038   111A      0.329066  
     112A      0.335234   113A      0.339855   114A      0.342420  
     115A      0.349958   116A      0.351379   117A      0.356704  
     118A      0.357499   119A      0.362784   120A      0.365025  
     121A      0.370901   122A      0.371648   123A      0.377530  
     124A      0.382892   125A      0.385554   126A      0.388473  
     127A      0.393088   128A      0.395117   129A      0.400108  
     130A      0.405898   131A      0.409955   132A      0.414612  
     133A      0.418866   134A      0.423585   135A      0.429131  
     136A      0.430770   137A      0.436475   138A      0.436946  
     139A      0.444050   140A      0.444938   141A      0.449476  
     142A      0.451976   143A      0.454680   144A      0.457346  
     145A      0.458443   146A      0.464052   147A      0.466365  
     148A      0.472347   149A      0.475538   150A      0.479834  
     151A      0.486025   152A      0.488514   153A      0.492305  
     154A      0.495551   155A      0.499065   156A      0.504143  
     157A      0.510723   158A      0.511168   159A      0.519429  
     160A      0.526431   161A      0.528108   162A      0.533372  
     163A      0.538593   164A      0.540193   165A      0.545629  
     166A      0.551941   167A      0.554143   168A      0.557745  
     169A      0.567779   170A      0.569498   171A      0.574727  
     172A      0.579235   173A      0.582216   174A      0.590547  
     175A      0.590681   176A      0.596597   177A      0.602141  
     178A      0.611876   179A      0.616124   180A      0.619415  
     181A      0.622115   182A      0.622950   183A      0.628960  
     184A      0.632768   185A      0.645031   186A      0.647665  
     187A      0.655987   188A      0.658104   189A      0.669665  
     190A      0.674842   191A      0.679308   192A      0.687414  
     193A      0.696346   194A      0.699633   195A      0.711605  
     196A      0.728154   197A      0.731668   198A      0.738252  
     199A      0.755968   200A      0.765093   201A      0.777118  
     202A      0.778834   203A      0.786889   204A      0.792844  
     205A      0.801714   206A      0.804328   207A      0.807304  
     208A      0.813439   209A      0.818967   210A      0.820215  
     211A      0.828903   212A      0.835173   213A      0.840708  
     214A      0.846700   215A      0.852046   216A      0.859130  
     217A      0.861455   218A      0.866929   219A      0.872742  
     220A      0.881874   221A      0.884514   222A      0.888411  
     223A      0.892296   224A      0.902069   225A      0.905183  
     226A      0.908293   227A      0.916111   228A      0.918201  
     229A      0.925619   230A      0.926914   231A      0.931499  
     232A      0.935812   233A      0.941674   234A      0.943331  
     235A      0.946150   236A      0.952645   237A      0.955947  
     238A      0.961379   239A      0.966878   240A      0.971654  
     241A      0.976169   242A      0.983792   243A      0.987031  
     244A      0.989051   245A      0.994621   246A      1.002599  
     247A      1.003550   248A      1.009218   249A      1.016297  
     250A      1.024100   251A      1.026282   252A      1.031423  
     253A      1.037533   254A      1.046418   255A      1.054477  
     256A      1.060480   257A      1.060787   258A      1.067487  
     259A      1.071080   260A      1.081732   261A      1.086226  
     262A      1.089525   263A      1.097361   264A      1.101775  
     265A      1.104530   266A      1.109479   267A      1.117113  
     268A      1.121028   269A      1.125432   270A      1.127523  
     271A      1.134365   272A      1.138333   273A      1.145805  
     274A      1.147446   275A      1.153225   276A      1.156233  
     277A      1.163172   278A      1.170623   279A      1.174733  
     280A      1.181303   281A      1.188192   282A      1.192322  
     283A      1.195927   284A      1.207402   285A      1.212719  
     286A      1.218296   287A      1.220968   288A      1.228224  
     289A      1.237855   290A      1.241816   291A      1.248299  
     292A      1.254588   293A      1.259064   294A      1.269249  
     295A      1.271158   296A      1.271966   297A      1.275674  
     298A      1.292925   299A      1.298974   300A      1.308609  
     301A      1.312123   302A      1.314979   303A      1.325076  
     304A      1.328235   305A      1.331363   306A      1.339676  
     307A      1.345895   308A      1.350411   309A      1.362221  
     310A      1.364059   311A      1.378847   312A      1.383687  
     313A      1.385943   314A      1.401374   315A      1.409770  
     316A      1.415098   317A      1.420581   318A      1.433888  
     319A      1.436802   320A      1.440740   321A      1.451075  
     322A      1.458168   323A      1.465737   324A      1.468593  
     325A      1.478823   326A      1.485292   327A      1.492218  
     328A      1.496275   329A      1.506587   330A      1.512877  
     331A      1.531697   332A      1.534771   333A      1.540806  
     334A      1.543011   335A      1.547460   336A      1.550105  
     337A      1.552845   338A      1.562330   339A      1.566389  
     340A      1.570974   341A      1.590449   342A      1.597522  
     343A      1.602670   344A      1.613768   345A      1.621693  
     346A      1.630592   347A      1.641107   348A      1.647817  
     349A      1.654752   350A      1.659369   351A      1.666809  
     352A      1.670659   353A      1.675559   354A      1.680603  
     355A      1.691203   356A      1.692251   357A      1.696418  
     358A      1.701674   359A      1.709584   360A      1.712055  
     361A      1.720190   362A      1.721619   363A      1.729342  
     364A      1.731153   365A      1.736610   366A      1.746241  
     367A      1.749554   368A      1.753970   369A      1.757292  
     370A      1.764122   371A      1.768184   372A      1.778437  
     373A      1.785271   374A      1.790000   375A      1.802124  
     376A      1.814904   377A      1.820970   378A      1.829226  
     379A      1.840519   380A      1.850580   381A      1.857978  
     382A      1.860900   383A      1.865315   384A      1.871713  
     385A      1.875194   386A      1.890569   387A      1.891618  
     388A      1.906500   389A      1.913154   390A      1.919004  
     391A      1.925205   392A      1.934764   393A      1.937852  
     394A      1.948401   395A      1.959681   396A      1.970451  
     397A      1.976884   398A      1.982231   399A      1.984827  
     400A      1.995372   401A      2.006816   402A      2.016682  
     403A      2.020150   404A      2.034483   405A      2.039478  
     406A      2.043759   407A      2.053060   408A      2.057868  
     409A      2.075678   410A      2.084021   411A      2.086103  
     412A      2.102876   413A      2.106079   414A      2.116768  
     415A      2.126640   416A      2.140559   417A      2.151062  
     418A      2.161742   419A      2.179611   420A      2.182239  
     421A      2.197605   422A      2.206331   423A      2.217059  
     424A      2.229365   425A      2.237893   426A      2.240648  
     427A      2.253542   428A      2.258330   429A      2.264740  
     430A      2.268993   431A      2.275806   432A      2.280973  
     433A      2.290307   434A      2.298122   435A      2.303948  
     436A      2.307340   437A      2.317920   438A      2.334674  
     439A      2.342531   440A      2.346704   441A      2.359307  
     442A      2.381001   443A      2.391519   444A      2.393985  
     445A      2.401789   446A      2.413824   447A      2.414752  
     448A      2.431908   449A      2.448145   450A      2.451321  
     451A      2.453064   452A      2.473411   453A      2.479016  
     454A      2.483204   455A      2.498919   456A      2.508767  
     457A      2.522878   458A      2.531103   459A      2.535164  
     460A      2.546362   461A      2.566275   462A      2.584578  
     463A      2.595023   464A      2.610125   465A      2.615644  
     466A      2.623248   467A      2.634907   468A      2.644903  
     469A      2.657933   470A      2.661819   471A      2.694099  
     472A      2.698239   473A      2.715295   474A      2.722363  
     475A      2.746903   476A      2.758817   477A      2.774193  
     478A      2.795273   479A      2.802823   480A      2.834974  
     481A      2.844020   482A      2.852838   483A      2.873152  
     484A      2.880807   485A      2.899610   486A      2.906773  
     487A      2.916696   488A      2.944797   489A      2.954701  
     490A      2.975355   491A      2.986397   492A      3.008443  
     493A      3.044354   494A      3.061510   495A      3.073035  
     496A      3.093757   497A      3.114730   498A      3.138700  
     499A      3.163031   500A      3.181323   501A      3.205391  
     502A      3.217352   503A      3.254333   504A      3.275343  
     505A      3.304032   506A      3.333241   507A      3.363884  
     508A      3.366713   509A      3.394531   510A      3.403291  
     511A      3.419056   512A      3.430751   513A      3.440852  
     514A      3.451017   515A      3.457806   516A      3.481556  
     517A      3.490458   518A      3.494183   519A      3.505484  
     520A      3.523663   521A      3.530680   522A      3.553576  
     523A      3.558966   524A      3.577355   525A      3.592256  
     526A      3.597048   527A      3.617392   528A      3.634110  
     529A      3.638255   530A      3.646704   531A      3.666546  
     532A      3.674748   533A      3.679854   534A      3.687329  
     535A      3.696661   536A      3.705636   537A      3.714346  
     538A      3.728971   539A      3.739781   540A      3.748786  
     541A      3.760170   542A      3.773499   543A      3.774963  
     544A      3.784269   545A      3.793804   546A      3.798687  
     547A      3.802879   548A      3.813150   549A      3.819280  
     550A      3.825214   551A      3.837638   552A      3.850367  
     553A      3.859039   554A      3.861182   555A      3.884797  
     556A      3.893715   557A      3.898881   558A      3.913099  
     559A      3.927332   560A      3.937355   561A      3.939879  
     562A      3.951390   563A      3.956013   564A      3.961081  
     565A      3.963024   566A      3.982387   567A      3.983096  
     568A      3.990569   569A      4.005260   570A      4.017257  
     571A      4.023269   572A      4.036107   573A      4.049978  
     574A      4.053396   575A      4.057325   576A      4.065335  
     577A      4.082037   578A      4.087832   579A      4.095058  
     580A      4.115150   581A      4.122553   582A      4.138298  
     583A      4.153760   584A      4.171726   585A      4.178976  
     586A      4.191993   587A      4.212789   588A      4.221865  
     589A      4.227439   590A      4.235451   591A      4.247323  
     592A      4.265231   593A      4.272184   594A      4.278144  
     595A      4.282887   596A      4.291947   597A      4.292801  
     598A      4.327279   599A      4.334718   600A      4.349955  
     601A      4.354825   602A      4.375372   603A      4.382439  
     604A      4.417240   605A      4.419322   606A      4.426481  
     607A      4.437342   608A      4.460323   609A      4.468658  
     610A      4.478995   611A      4.491178   612A      4.497647  
     613A      4.510814   614A      4.530018   615A      4.545699  
     616A      4.574800   617A      4.588917   618A      4.596964  
     619A      4.630020   620A      4.651670   621A      4.660513  
     622A      4.667035   623A      4.680575   624A      4.690088  
     625A      4.701057   626A      4.728175   627A      4.736164  
     628A      4.741948   629A      4.755408   630A      4.769291  
     631A      4.783810   632A      4.786786   633A      4.803204  
     634A      4.822648   635A      4.836702   636A      4.843839  
     637A      4.855179   638A      4.863933   639A      4.886411  
     640A      4.894021   641A      4.901971   642A      4.907573  
     643A      4.925334   644A      4.942821   645A      4.949295  
     646A      4.953365   647A      4.959727   648A      4.977955  
     649A      5.003981   650A      5.011986   651A      5.036236  
     652A      5.049396   653A      5.059957   654A      5.075681  
     655A      5.087596   656A      5.110029   657A      5.121641  
     658A      5.127461   659A      5.134839   660A      5.156964  
     661A      5.174549   662A      5.177874   663A      5.186336  
     664A      5.210407   665A      5.220938   666A      5.244113  
     667A      5.253281   668A      5.276508   669A      5.293128  
     670A      5.299639   671A      5.319999   672A      5.323197  
     673A      5.336053   674A      5.345456   675A      5.357651  
     676A      5.363699   677A      5.381034   678A      5.384969  
     679A      5.397601   680A      5.409907   681A      5.417035  
     682A      5.449809   683A      5.460058   684A      5.465117  
     685A      5.471908   686A      5.492127   687A      5.506656  
     688A      5.511041   689A      5.535257   690A      5.548879  
     691A      5.568242   692A      5.580273   693A      5.585343  
     694A      5.618374   695A      5.624050   696A      5.659402  
     697A      5.687488   698A      5.703406   699A      5.735989  
     700A      5.741914   701A      5.768104   702A      5.771536  
     703A      5.777350   704A      5.790499   705A      5.836617  
     706A      5.851927   707A      5.897067   708A      5.906810  
     709A      5.964321   710A      5.969727   711A      5.989912  
     712A      6.003393   713A      6.005082   714A      6.017299  
     715A      6.059848   716A      6.084962   717A      6.115139  
     718A      6.142122   719A      6.159210   720A      6.184046  
     721A      6.217601   722A      6.241549   723A      6.269047  
     724A      6.283778   725A      6.339333   726A      6.362425  
     727A      6.387227   728A      6.409014   729A      6.421432  
     730A      6.505638   731A      6.542410   732A      6.701969  
     733A      6.735098   734A      6.746872   735A      6.753910  
     736A      6.791165   737A      6.806459   738A      6.822981  
     739A      6.840589   740A      6.857020   741A      6.864922  
     742A      6.874968   743A      6.894326   744A      6.917663  
     745A      6.928737   746A      6.949100   747A      6.954525  
     748A      6.973816   749A      6.994732   750A      7.010860  
     751A      7.033031   752A      7.059394   753A      7.073243  
     754A      7.087279   755A      7.120433   756A      7.176611  
     757A      7.205390   758A      7.221589   759A      7.255623  
     760A      7.344688   761A      7.373384   762A      7.394499  
     763A      7.400834   764A      7.431532   765A      7.490915  
     766A      7.560084   767A      7.634736   768A      7.655106  
     769A      7.736574   770A      7.783229   771A      7.811991  
     772A      7.823177   773A      7.840800   774A      7.904009  
     775A      8.157344   776A      8.261771   777A     13.404609  
     778A     13.763272   779A     14.007958   780A     15.649144  
     781A     17.818548   782A     17.900175   783A     18.305913  
     784A     18.494985   785A     18.631390   786A     19.810555  

    Final Occupation by Irrep:
              A 
    DOCC [    45 ]

  @DF-RHF Final Energy:  -857.62041776012211

   => Energetics <=

    Nuclear Repulsion Energy =            723.0355045657970550
    One-Electron Energy =               -2613.5451779342906775
    Two-Electron Energy =                1032.8892556083715135
    Total Energy =                       -857.6204177601221090

Computation Completed

*** tstop() called on c401-011.stampede2.tacc.utexas.edu at Mon Mar  1 07:45:11 2021
Module time:
	user time   =     986.61 seconds =      16.44 minutes
	system time =      57.33 seconds =       0.96 minutes
	total time  =         56 seconds =       0.93 minutes
Total time:
	user time   =     986.61 seconds =      16.44 minutes
	system time =      57.33 seconds =       0.96 minutes
	total time  =         56 seconds =       0.93 minutes
   => Loading Basis Set <=

    Name: (AUG-CC-PVTZ AUX)
    Role: RIFIT
    Keyword: DF_BASIS_MP2
    atoms 1     entry S          line   666 file /home1/07844/xy3866/miniconda3/envs/p4env/share/psi4/basis/aug-cc-pvtz-ri.gbs 
    atoms 2-4   entry O          line   264 file /home1/07844/xy3866/miniconda3/envs/p4env/share/psi4/basis/aug-cc-pvtz-ri.gbs 
    atoms 5-10  entry C          line   148 file /home1/07844/xy3866/miniconda3/envs/p4env/share/psi4/basis/aug-cc-pvtz-ri.gbs 
    atoms 11-24 entry H          line    30 file /home1/07844/xy3866/miniconda3/envs/p4env/share/psi4/basis/aug-cc-pvtz-ri.gbs 


*** tstart() called on c401-011.stampede2.tacc.utexas.edu
*** at Mon Mar  1 07:45:12 2021


  //>>>>>>>>>>>>>>>>>>>>>>>>>>>>>>>>>>>//
  //               DFMP2               //
  //<<<<<<<<<<<<<<<<<<<<<<<<<<<<<<<<<<<//

	 --------------------------------------------------------
	                          DF-MP2                         
	      2nd-Order Density-Fitted Moller-Plesset Theory     
	              RMP2 Wavefunction,  32 Threads             
	                                                         
	        Rob Parrish, Justin Turney, Andy Simmonett,      
	           Ed Hohenstein, and C. David Sherrill          
	 --------------------------------------------------------

   => Auxiliary Basis Set <=

  Basis Set: (AUG-CC-PVTZ AUX)
    Blend: AUG-CC-PVTZ-RI
    Number of shells: 485
    Number of basis functions: 1745
    Number of Cartesian functions: 2185
    Spherical Harmonics?: true
    Max angular momentum: 4

	 --------------------------------------------------------
	                 NBF =   786, NAUX =  1745
	 --------------------------------------------------------
	   CLASS    FOCC     OCC    AOCC    AVIR     VIR    FVIR
	   PAIRS       0      45      45     741     741       0
	 --------------------------------------------------------

  DFHelper Memory: AOs need 7.373 GiB; user supplied 22.352 GiB. Using in-core AOs.


         ------------------------------------------------------------
                                     CPHF                           
                                  Rob Parrish                       
         ------------------------------------------------------------

  ==> Geometry <==

    Molecular point group: c1
    Full point group: C1

    Geometry (in Angstrom), charge = 0, multiplicity = 1:

       Center              X                  Y                   Z               Mass       
    ------------   -----------------  -----------------  -----------------  -----------------
         S           -0.263367521057    -0.398562604311     0.147626690244    31.972071174400
         O           -1.534496521057     0.604873395689    -0.118946309756    15.994914619570
         O           -0.319530521057    -1.483679604311    -0.834325309756    15.994914619570
         O           -0.184682521057    -0.717571604311     1.574157690244    15.994914619570
         C            2.393459478943     0.338559395689     0.204134690244    12.000000000000
         C            1.005436478943     0.785862395689    -0.260554309756    12.000000000000
         C            2.869323478943    -0.927380604311    -0.507083309756    12.000000000000
         C            3.372318478943     1.491368395689    -0.020253309756    12.000000000000
         C           -2.827644521057    -0.075779604311    -0.119862309756    12.000000000000
         C           -3.870877521057     1.007455395689    -0.259620309756    12.000000000000
         H            2.329631478943     0.138179395689     1.280216690244     1.007825032230
         H            0.963365478943     0.927929395689    -1.345083309756     1.007825032230
         H            0.705787478943     1.715420395689     0.232434690244     1.007825032230
         H            2.900436478943    -0.768521604311    -1.590509309756     1.007825032230
         H            2.219156478943    -1.782737604311    -0.312759309756     1.007825032230
         H            3.879125478943    -1.184218604311    -0.173513309756     1.007825032230
         H            3.442364778943     1.709590295689    -0.988810609756     1.007825032230
         H            3.059558478943     2.394551395689     0.512877690244     1.007825032230
         H            4.369767478943     1.216645395689     0.335082690244     1.007825032230
         H           -2.847091521057    -0.782168604311    -0.953486309756     1.007825032230
         H           -2.936178521057    -0.624406604311     0.820618690244     1.007825032230
         H           -3.815263521057     1.702262395689     0.580484690244     1.007825032230
         H           -3.722162521057     1.562527395689    -1.188068309756     1.007825032230
         H           -4.867749521057     0.557646395689    -0.277561309756     1.007825032230

  Nuclear repulsion =  723.035504565797055
  Reference energy  = -857.620417760122109

  ==> Basis Set <==

  Basis Set: AUG-CC-PVTZ
    Blend: AUG-CC-PVTZ
    Number of shells: 268
    Number of basis functions: 786
    Number of Cartesian functions: 904
    Spherical Harmonics?: true
    Max angular momentum: 3

  ==> CGRSolver (by Rob Parrish) <==

   Number of roots    =         1
   Preconditioning    =    JACOBI
   Convergence cutoff =     1E-06
   Maximum iterations =       100

  ==> CPHFRHamiltonian (by Rob Parrish) <== 

  ==> MemDFJK: Density-Fitted J/K Matrices <==

    J tasked:                   Yes
    K tasked:                   Yes
    wK tasked:                   No
    OpenMP threads:              32
    Memory [MiB]:             22888
    Algorithm:                 Core
    Schwarz Cutoff:           1E-12
    Mask sparsity (%):      10.8903
    Fitting Condition:        1E-10

   => Auxiliary Basis Set <=

  Basis Set: (AUG-CC-PVTZ AUX)
    Blend: AUG-CC-PVTZ-JKFIT
    Number of shells: 508
    Number of basis functions: 1726
    Number of Cartesian functions: 2129
    Spherical Harmonics?: true
    Max angular momentum: 4

  ==> CPHF Iterations <==

  => Iterations <=

             Iter  Converged  Remaining    Residual
  CGR           1          0          1   1.100E-01
  CGR           2          0          1   2.890E-02
  CGR           3          0          1   1.164E-02
  CGR           4          0          1   3.784E-03
  CGR           5          0          1   1.459E-03
  CGR           6          0          1   3.546E-04
  CGR           7          0          1   1.342E-04
  CGR           8          0          1   4.389E-05
  CGR           9          0          1   1.134E-05
  CGR          10          0          1   3.423E-06
  CGR          11          0          1   1.164E-06
  CGR          12          1          0   3.591E-07

    CGRSolver converged.

	-----------------------------------------------------------
	 ==================> DF-MP2 Energies <==================== 
	-----------------------------------------------------------
	 Reference Energy          =    -857.6204177601221090 [Eh]
	 Singles Energy            =      -0.0000000000000000 [Eh]
	 Same-Spin Energy          =      -0.5253229124757005 [Eh]
	 Opposite-Spin Energy      =      -1.6803593384601587 [Eh]
	 Correlation Energy        =      -2.2056822509358591 [Eh]
	 Total Energy              =    -859.8261000110579744 [Eh]
	-----------------------------------------------------------
	 ================> DF-SCS-MP2 Energies <================== 
	-----------------------------------------------------------
	 SCS Same-Spin Scale       =       0.3333333333333333 [-]
	 SCS Opposite-Spin Scale   =       1.2000000000000000 [-]
	 SCS Same-Spin Energy      =      -0.1751076374919002 [Eh]
	 SCS Opposite-Spin Energy  =      -2.0164312061521903 [Eh]
	 SCS Correlation Energy    =      -2.1915388436440906 [Eh]
	 SCS Total Energy          =    -859.8119566037662480 [Eh]
	-----------------------------------------------------------



Properties will be evaluated at  -0.000000,   0.000000,   0.000000 [a0]

Properties computed using the MP2 density matrix

  Nuclear Dipole Moment: [e a0]
     X:     5.3088      Y:     6.3404      Z:    -2.8693

  Electronic Dipole Moment: [e a0]
     X:    -5.3296      Y:    -5.2665      Z:     2.4405

  Dipole Moment: [e a0]
     X:    -0.0208      Y:     1.0739      Z:    -0.4289     Total:     1.1566

  Dipole Moment: [D]
     X:    -0.0529      Y:     2.7296      Z:    -1.0901     Total:     2.9397


*** tstop() called on c401-011.stampede2.tacc.utexas.edu at Mon Mar  1 07:51:15 2021
Module time:
	user time   =    3318.13 seconds =      55.30 minutes
	system time =      83.80 seconds =       1.40 minutes
	total time  =        363 seconds =       6.05 minutes
Total time:
	user time   =    4305.93 seconds =      71.77 minutes
	system time =     141.15 seconds =       2.35 minutes
	total time  =        420 seconds =       7.00 minutes

    Psi4 stopped on: Monday, 01 March 2021 07:51AM
    Psi4 wall time for execution: 0:07:01.49

*** Psi4 exiting successfully. Buy a developer a beer!
