18974596                                                                
Freq      RMP2-FC                                                     6-31G(d)            
Number of atoms                            I               15
Info1-9                                    I   N=           9
          27          25        1002           0           0         100
           6           2           1
Charge                                     I                0
Multiplicity                               I                1
Number of electrons                        I               60
Number of alpha electrons                  I               30
Number of beta electrons                   I               30
Number of basis functions                  I              125
Number of independent functions            I              125
Number of point charges in /Mol/           I                0
Number of translation vectors              I                0
Atomic numbers                             I   N=          15
          16           6           6           6           6           6
           6           1           1           1           1           1
           1           1           1
Nuclear charges                            R   N=          15
  1.60000000E+01  6.00000000E+00  6.00000000E+00  6.00000000E+00  6.00000000E+00
  6.00000000E+00  6.00000000E+00  1.00000000E+00  1.00000000E+00  1.00000000E+00
  1.00000000E+00  1.00000000E+00  1.00000000E+00  1.00000000E+00  1.00000000E+00
Current cartesian coordinates              R   N=          45
  3.44028221E+00  1.21202429E-01 -6.40696901E-01 -2.38586426E+00 -1.20331875E-01
  1.12666740E-01  1.64619043E+00 -2.41526573E+00  8.21105351E-01 -1.07073177E+00
 -2.30957851E+00  1.89848794E-02 -1.09176084E+00  2.25263006E+00  6.56282347E-01
 -5.15702867E+00  1.81445669E-02 -5.03323963E-01  1.41441860E+00  2.57955468E+00
  2.41419377E-01  1.83663933E+00 -2.24033821E+00  2.87905517E+00  2.54273473E+00
 -4.18102192E+00  2.35749274E-01 -1.99498977E+00 -4.06122397E+00 -5.36363712E-01
 -2.21490469E+00  3.88950945E+00  1.19678903E+00 -5.49792876E+00  1.22776626E+00
 -2.14774808E+00 -6.21780111E+00  8.22568558E-01  1.08284695E+00 -5.92452602E+00
 -1.85776314E+00 -9.03934300E-01  2.29492000E+00  4.43034490E+00  3.61947692E-01
Force Field                                I                0
Int Atom Types                             I   N=          15
           0           0           0           0           0           0
           0           0           0           0           0           0
           0           0           0
MM charges                                 R   N=          15
  0.00000000E+00  0.00000000E+00  0.00000000E+00  0.00000000E+00  0.00000000E+00
  0.00000000E+00  0.00000000E+00  0.00000000E+00  0.00000000E+00  0.00000000E+00
  0.00000000E+00  0.00000000E+00  0.00000000E+00  0.00000000E+00  0.00000000E+00
Integer atomic weights                     I   N=          15
          32          12          12          12          12          12
          12           1           1           1           1           1
           1           1           1
Real atomic weights                        R   N=          15
  3.19720718E+01  1.20000000E+01  1.20000000E+01  1.20000000E+01  1.20000000E+01
  1.20000000E+01  1.20000000E+01  1.00782504E+00  1.00782504E+00  1.00782504E+00
  1.00782504E+00  1.00782504E+00  1.00782504E+00  1.00782504E+00  1.00782504E+00
Atom fragment info                         I   N=          15
           0           0           0           0           0           0
           0           0           0           0           0           0
           0           0           0
Atom residue num                           I   N=          15
           0           0           0           0           0           0
           0           0           0           0           0           0
           0           0           0
Nuclear spins                              I   N=          15
           0           0           0           0           0           0
           0           1           1           1           1           1
           1           1           1
Nuclear ZEff                               R   N=          15
 -1.36000000E+01 -3.60000000E+00 -3.60000000E+00 -3.60000000E+00 -3.60000000E+00
 -3.60000000E+00 -3.60000000E+00 -1.00000000E+00 -1.00000000E+00 -1.00000000E+00
 -1.00000000E+00 -1.00000000E+00 -1.00000000E+00 -1.00000000E+00 -1.00000000E+00
Nuclear QMom                               R   N=          15
  0.00000000E+00  0.00000000E+00  0.00000000E+00  0.00000000E+00  0.00000000E+00
  0.00000000E+00  0.00000000E+00  0.00000000E+00  0.00000000E+00  0.00000000E+00
  0.00000000E+00  0.00000000E+00  0.00000000E+00  0.00000000E+00  0.00000000E+00
Nuclear GFac                               R   N=          15
  0.00000000E+00  0.00000000E+00  0.00000000E+00  0.00000000E+00  0.00000000E+00
  0.00000000E+00  0.00000000E+00  2.79284600E+00  2.79284600E+00  2.79284600E+00
  2.79284600E+00  2.79284600E+00  2.79284600E+00  2.79284600E+00  2.79284600E+00
MicOpt                                     I   N=          15
          -1          -1          -1          -1          -1          -1
          -1          -1          -1          -1          -1          -1
          -1          -1          -1
Number of contracted shells                I               45
Number of primitive shells                 I              115
Pure/Cartesian d shells                    I                1
Pure/Cartesian f shells                    I                0
Highest angular momentum                   I                2
Largest degree of contraction              I                6
Shell types                                I   N=          45
           0          -1          -1          -1           2           0
          -1          -1           2           0          -1          -1
           2           0          -1          -1           2           0
          -1          -1           2           0          -1          -1
           2           0          -1          -1           2           0
           0           0           0           0           0           0
           0           0           0           0           0           0
           0           0           0
Number of primitives per shell             I   N=          45
           6           6           3           1           1           6
           3           1           1           6           3           1
           1           6           3           1           1           6
           3           1           1           6           3           1
           1           6           3           1           1           3
           1           3           1           3           1           3
           1           3           1           3           1           3
           1           3           1
Shell to atom map                          I   N=          45
           1           1           1           1           1           2
           2           2           2           3           3           3
           3           4           4           4           4           5
           5           5           5           6           6           6
           6           7           7           7           7           8
           8           9           9          10          10          11
          11          12          12          13          13          14
          14          15          15
Primitive exponents                        R   N=         115
  2.19171000E+04  3.30149000E+03  7.54146000E+02  2.12711000E+02  6.79896000E+01
  2.30515000E+01  4.23735000E+02  1.00710000E+02  3.21599000E+01  1.18079000E+01
  4.63110000E+00  1.87025000E+00  2.61584000E+00  9.22167000E-01  3.41287000E-01
  1.17167000E-01  6.50000000E-01  3.04752488E+03  4.57369518E+02  1.03948685E+02
  2.92101553E+01  9.28666296E+00  3.16392696E+00  7.86827235E+00  1.88128854E+00
  5.44249258E-01  1.68714478E-01  8.00000000E-01  3.04752488E+03  4.57369518E+02
  1.03948685E+02  2.92101553E+01  9.28666296E+00  3.16392696E+00  7.86827235E+00
  1.88128854E+00  5.44249258E-01  1.68714478E-01  8.00000000E-01  3.04752488E+03
  4.57369518E+02  1.03948685E+02  2.92101553E+01  9.28666296E+00  3.16392696E+00
  7.86827235E+00  1.88128854E+00  5.44249258E-01  1.68714478E-01  8.00000000E-01
  3.04752488E+03  4.57369518E+02  1.03948685E+02  2.92101553E+01  9.28666296E+00
  3.16392696E+00  7.86827235E+00  1.88128854E+00  5.44249258E-01  1.68714478E-01
  8.00000000E-01  3.04752488E+03  4.57369518E+02  1.03948685E+02  2.92101553E+01
  9.28666296E+00  3.16392696E+00  7.86827235E+00  1.88128854E+00  5.44249258E-01
  1.68714478E-01  8.00000000E-01  3.04752488E+03  4.57369518E+02  1.03948685E+02
  2.92101553E+01  9.28666296E+00  3.16392696E+00  7.86827235E+00  1.88128854E+00
  5.44249258E-01  1.68714478E-01  8.00000000E-01  1.87311370E+01  2.82539436E+00
  6.40121692E-01  1.61277759E-01  1.87311370E+01  2.82539436E+00  6.40121692E-01
  1.61277759E-01  1.87311370E+01  2.82539436E+00  6.40121692E-01  1.61277759E-01
  1.87311370E+01  2.82539436E+00  6.40121692E-01  1.61277759E-01  1.87311370E+01
  2.82539436E+00  6.40121692E-01  1.61277759E-01  1.87311370E+01  2.82539436E+00
  6.40121692E-01  1.61277759E-01  1.87311370E+01  2.82539436E+00  6.40121692E-01
  1.61277759E-01  1.87311370E+01  2.82539436E+00  6.40121692E-01  1.61277759E-01
Contraction coefficients                   R   N=         115
  1.86924085E-03  1.42303065E-02  6.96962317E-02  2.38487108E-01  4.83307220E-01
  3.38074154E-01 -2.37677050E-03 -3.16930067E-02 -1.13317024E-01  5.60900118E-02
  5.92255124E-01  4.55006095E-01 -2.50373114E-01  6.69567631E-02  1.05450627E+00
  1.00000000E+00  1.00000000E+00  1.83473713E-03  1.40373228E-02  6.88426223E-02
  2.32184443E-01  4.67941348E-01  3.62311985E-01 -1.19332420E-01 -1.60854152E-01
  1.14345644E+00  1.00000000E+00  1.00000000E+00  1.83473713E-03  1.40373228E-02
  6.88426223E-02  2.32184443E-01  4.67941348E-01  3.62311985E-01 -1.19332420E-01
 -1.60854152E-01  1.14345644E+00  1.00000000E+00  1.00000000E+00  1.83473713E-03
  1.40373228E-02  6.88426223E-02  2.32184443E-01  4.67941348E-01  3.62311985E-01
 -1.19332420E-01 -1.60854152E-01  1.14345644E+00  1.00000000E+00  1.00000000E+00
  1.83473713E-03  1.40373228E-02  6.88426223E-02  2.32184443E-01  4.67941348E-01
  3.62311985E-01 -1.19332420E-01 -1.60854152E-01  1.14345644E+00  1.00000000E+00
  1.00000000E+00  1.83473713E-03  1.40373228E-02  6.88426223E-02  2.32184443E-01
  4.67941348E-01  3.62311985E-01 -1.19332420E-01 -1.60854152E-01  1.14345644E+00
  1.00000000E+00  1.00000000E+00  1.83473713E-03  1.40373228E-02  6.88426223E-02
  2.32184443E-01  4.67941348E-01  3.62311985E-01 -1.19332420E-01 -1.60854152E-01
  1.14345644E+00  1.00000000E+00  1.00000000E+00  3.34946043E-02  2.34726953E-01
  8.13757326E-01  1.00000000E+00  3.34946043E-02  2.34726953E-01  8.13757326E-01
  1.00000000E+00  3.34946043E-02  2.34726953E-01  8.13757326E-01  1.00000000E+00
  3.34946043E-02  2.34726953E-01  8.13757326E-01  1.00000000E+00  3.34946043E-02
  2.34726953E-01  8.13757326E-01  1.00000000E+00  3.34946043E-02  2.34726953E-01
  8.13757326E-01  1.00000000E+00  3.34946043E-02  2.34726953E-01  8.13757326E-01
  1.00000000E+00  3.34946043E-02  2.34726953E-01  8.13757326E-01  1.00000000E+00
P(S=P) Contraction coefficients            R   N=         115
  0.00000000E+00  0.00000000E+00  0.00000000E+00  0.00000000E+00  0.00000000E+00
  0.00000000E+00  4.06100998E-03  3.06812999E-02  1.30451999E-01  3.27204999E-01
  4.52850998E-01  2.56041999E-01 -1.45104895E-02  3.10262776E-01  7.54482456E-01
  1.00000000E+00  0.00000000E+00  0.00000000E+00  0.00000000E+00  0.00000000E+00
  0.00000000E+00  0.00000000E+00  0.00000000E+00  6.89990666E-02  3.16423961E-01
  7.44308291E-01  1.00000000E+00  0.00000000E+00  0.00000000E+00  0.00000000E+00
  0.00000000E+00  0.00000000E+00  0.00000000E+00  0.00000000E+00  6.89990666E-02
  3.16423961E-01  7.44308291E-01  1.00000000E+00  0.00000000E+00  0.00000000E+00
  0.00000000E+00  0.00000000E+00  0.00000000E+00  0.00000000E+00  0.00000000E+00
  6.89990666E-02  3.16423961E-01  7.44308291E-01  1.00000000E+00  0.00000000E+00
  0.00000000E+00  0.00000000E+00  0.00000000E+00  0.00000000E+00  0.00000000E+00
  0.00000000E+00  6.89990666E-02  3.16423961E-01  7.44308291E-01  1.00000000E+00
  0.00000000E+00  0.00000000E+00  0.00000000E+00  0.00000000E+00  0.00000000E+00
  0.00000000E+00  0.00000000E+00  6.89990666E-02  3.16423961E-01  7.44308291E-01
  1.00000000E+00  0.00000000E+00  0.00000000E+00  0.00000000E+00  0.00000000E+00
  0.00000000E+00  0.00000000E+00  0.00000000E+00  6.89990666E-02  3.16423961E-01
  7.44308291E-01  1.00000000E+00  0.00000000E+00  0.00000000E+00  0.00000000E+00
  0.00000000E+00  0.00000000E+00  0.00000000E+00  0.00000000E+00  0.00000000E+00
  0.00000000E+00  0.00000000E+00  0.00000000E+00  0.00000000E+00  0.00000000E+00
  0.00000000E+00  0.00000000E+00  0.00000000E+00  0.00000000E+00  0.00000000E+00
  0.00000000E+00  0.00000000E+00  0.00000000E+00  0.00000000E+00  0.00000000E+00
  0.00000000E+00  0.00000000E+00  0.00000000E+00  0.00000000E+00  0.00000000E+00
  0.00000000E+00  0.00000000E+00  0.00000000E+00  0.00000000E+00  0.00000000E+00
Coordinates of each shell                  R   N=         135
  3.44028221E+00  1.21202429E-01 -6.40696901E-01  3.44028221E+00  1.21202429E-01
 -6.40696901E-01  3.44028221E+00  1.21202429E-01 -6.40696901E-01  3.44028221E+00
  1.21202429E-01 -6.40696901E-01  3.44028221E+00  1.21202429E-01 -6.40696901E-01
 -2.38586426E+00 -1.20331875E-01  1.12666740E-01 -2.38586426E+00 -1.20331875E-01
  1.12666740E-01 -2.38586426E+00 -1.20331875E-01  1.12666740E-01 -2.38586426E+00
 -1.20331875E-01  1.12666740E-01  1.64619043E+00 -2.41526573E+00  8.21105351E-01
  1.64619043E+00 -2.41526573E+00  8.21105351E-01  1.64619043E+00 -2.41526573E+00
  8.21105351E-01  1.64619043E+00 -2.41526573E+00  8.21105351E-01 -1.07073177E+00
 -2.30957851E+00  1.89848794E-02 -1.07073177E+00 -2.30957851E+00  1.89848794E-02
 -1.07073177E+00 -2.30957851E+00  1.89848794E-02 -1.07073177E+00 -2.30957851E+00
  1.89848794E-02 -1.09176084E+00  2.25263006E+00  6.56282347E-01 -1.09176084E+00
  2.25263006E+00  6.56282347E-01 -1.09176084E+00  2.25263006E+00  6.56282347E-01
 -1.09176084E+00  2.25263006E+00  6.56282347E-01 -5.15702867E+00  1.81445669E-02
 -5.03323963E-01 -5.15702867E+00  1.81445669E-02 -5.03323963E-01 -5.15702867E+00
  1.81445669E-02 -5.03323963E-01 -5.15702867E+00  1.81445669E-02 -5.03323963E-01
  1.41441860E+00  2.57955468E+00  2.41419377E-01  1.41441860E+00  2.57955468E+00
  2.41419377E-01  1.41441860E+00  2.57955468E+00  2.41419377E-01  1.41441860E+00
  2.57955468E+00  2.41419377E-01  1.83663933E+00 -2.24033821E+00  2.87905517E+00
  1.83663933E+00 -2.24033821E+00  2.87905517E+00  2.54273473E+00 -4.18102192E+00
  2.35749274E-01  2.54273473E+00 -4.18102192E+00  2.35749274E-01 -1.99498977E+00
 -4.06122397E+00 -5.36363712E-01 -1.99498977E+00 -4.06122397E+00 -5.36363712E-01
 -2.21490469E+00  3.88950945E+00  1.19678903E+00 -2.21490469E+00  3.88950945E+00
  1.19678903E+00 -5.49792876E+00  1.22776626E+00 -2.14774808E+00 -5.49792876E+00
  1.22776626E+00 -2.14774808E+00 -6.21780111E+00  8.22568558E-01  1.08284695E+00
 -6.21780111E+00  8.22568558E-01  1.08284695E+00 -5.92452602E+00 -1.85776314E+00
 -9.03934300E-01 -5.92452602E+00 -1.85776314E+00 -9.03934300E-01  2.29492000E+00
  4.43034490E+00  3.61947692E-01  2.29492000E+00  4.43034490E+00  3.61947692E-01
Constraint Structure                       R   N=          45
  3.44028221E+00  1.21202429E-01 -6.40696901E-01 -2.38586426E+00 -1.20331875E-01
  1.12666740E-01  1.64619043E+00 -2.41526573E+00  8.21105351E-01 -1.07073177E+00
 -2.30957851E+00  1.89848794E-02 -1.09176084E+00  2.25263006E+00  6.56282347E-01
 -5.15702867E+00  1.81445669E-02 -5.03323963E-01  1.41441860E+00  2.57955468E+00
  2.41419377E-01  1.83663933E+00 -2.24033821E+00  2.87905517E+00  2.54273473E+00
 -4.18102192E+00  2.35749274E-01 -1.99498977E+00 -4.06122397E+00 -5.36363712E-01
 -2.21490469E+00  3.88950945E+00  1.19678903E+00 -5.49792876E+00  1.22776626E+00
 -2.14774808E+00 -6.21780111E+00  8.22568558E-01  1.08284695E+00 -5.92452602E+00
 -1.85776314E+00 -9.03934300E-01  2.29492000E+00  4.43034490E+00  3.61947692E-01
Num ILSW                                   I              100
ILSW                                       I   N=         100
           0           1           0           0           2           0
           0           0           0           0           0          -1
           0           0           0           0           0           0
           0           0           0           0           1           0
           1           0           0           0           0           0
           0           0      100000           0          -1           0
           0           0           0           0           0           0
           0           0           0           1           1           0
           0           0           1           0           0           0
           0           0           4          40           0           0
           0           0           0           0           0           0
           0           0           0           0           0           0
           0           0           0           0           0           0
           0           0           0           0           0           0
           0           0           0           0           0           0
           0           0           0           0           0           0
           0           0           0           0
Num RLSW                                   I               40
RLSW                                       R   N=          40
  1.00000000E+00  1.00000000E+00  1.00000000E+00  1.00000000E+00  1.00000000E+00
  0.00000000E+00  0.00000000E+00  1.00000000E+00  0.00000000E+00  0.00000000E+00
  0.00000000E+00  0.00000000E+00  1.00000000E+00  0.00000000E+00  0.00000000E+00
  0.00000000E+00  0.00000000E+00  1.00000000E+00  0.00000000E+00  0.00000000E+00
  0.00000000E+00  0.00000000E+00  1.00000000E+00  0.00000000E+00  0.00000000E+00
  0.00000000E+00  0.00000000E+00  1.00000000E+00  0.00000000E+00  0.00000000E+00
  0.00000000E+00  0.00000000E+00  0.00000000E+00  0.00000000E+00  0.00000000E+00
  0.00000000E+00  0.00000000E+00  0.00000000E+00  1.00000000E+00  1.00000000E+00
MxBond                                     I                4
NBond                                      I   N=          15
           2           3           4           3           3           4
           3           1           1           1           1           1
           1           1           1
IBond                                      I   N=          60
           3           7           0           0           4           5
           6           0           1           4           8           9
           2           3          10           0           2           7
          11           0           2          12          13          14
           1           5          15           0           3           0
           0           0           3           0           0           0
           4           0           0           0           5           0
           0           0           6           0           0           0
           6           0           0           0           6           0
           0           0           7           0           0           0
RBond                                      R   N=          60
  1.00000000E+00  1.00000000E+00  0.00000000E+00  0.00000000E+00  2.00000000E+00
  1.00000000E+00  1.00000000E+00  0.00000000E+00  1.00000000E+00  1.00000000E+00
  1.00000000E+00  1.00000000E+00  2.00000000E+00  1.00000000E+00  1.00000000E+00
  0.00000000E+00  1.00000000E+00  2.00000000E+00  1.00000000E+00  0.00000000E+00
  1.00000000E+00  1.00000000E+00  1.00000000E+00  1.00000000E+00  1.00000000E+00
  2.00000000E+00  1.00000000E+00  0.00000000E+00  1.00000000E+00  0.00000000E+00
  0.00000000E+00  0.00000000E+00  1.00000000E+00  0.00000000E+00  0.00000000E+00
  0.00000000E+00  1.00000000E+00  0.00000000E+00  0.00000000E+00  0.00000000E+00
  1.00000000E+00  0.00000000E+00  0.00000000E+00  0.00000000E+00  1.00000000E+00
  0.00000000E+00  0.00000000E+00  0.00000000E+00  1.00000000E+00  0.00000000E+00
  0.00000000E+00  0.00000000E+00  1.00000000E+00  0.00000000E+00  0.00000000E+00
  0.00000000E+00  1.00000000E+00  0.00000000E+00  0.00000000E+00  0.00000000E+00
Virial Ratio                               R      2.000848841244860E+00
SCF Energy                                 R     -6.293405898839238E+02
MP2 Energy                                 R     -6.302349842790153E+02
Total Energy                               R     -6.302349842790153E+02
Post-SCF wavefunction norm                 R      1.633209277266043E+00
RMS Force                                  R      1.138937225498715E-06
RMS Density                                R      2.081631977881785E-09
External E-field                           R   N=          35
  0.00000000E+00  0.00000000E+00  0.00000000E+00  0.00000000E+00  0.00000000E+00
  0.00000000E+00  0.00000000E+00  0.00000000E+00  0.00000000E+00  0.00000000E+00
  0.00000000E+00  0.00000000E+00  0.00000000E+00  0.00000000E+00  0.00000000E+00
  0.00000000E+00  0.00000000E+00  0.00000000E+00  0.00000000E+00  0.00000000E+00
  0.00000000E+00  0.00000000E+00  0.00000000E+00  0.00000000E+00  0.00000000E+00
  0.00000000E+00  0.00000000E+00  0.00000000E+00  0.00000000E+00  0.00000000E+00
  0.00000000E+00  0.00000000E+00  0.00000000E+00  0.00000000E+00  0.00000000E+00
IOpCl                                      I                0
IROHF                                      I                0
Alpha Orbital Energies                     R   N=         125
 -9.19434199E+01 -1.12661685E+01 -1.12623529E+01 -1.12424948E+01 -1.12371010E+01
 -1.12318399E+01 -1.12262589E+01 -8.95398830E+00 -6.63685751E+00 -6.63550393E+00
 -6.63359003E+00 -1.14197623E+00 -1.04477577E+00 -1.01992138E+00 -9.34216298E-01
 -8.46498625E-01 -8.00847707E-01 -6.73588376E-01 -6.60406189E-01 -6.16745583E-01
 -6.02319011E-01 -5.74147819E-01 -5.68119230E-01 -5.32783085E-01 -5.15073091E-01
 -4.74992086E-01 -4.57007107E-01 -4.35847893E-01 -3.49308987E-01 -2.90633854E-01
  1.13056072E-01  2.01368791E-01  2.25067567E-01  2.35802753E-01  2.55452915E-01
  2.64612291E-01  2.79223644E-01  3.04916251E-01  3.13991522E-01  3.37625258E-01
  3.43687324E-01  3.58700157E-01  4.19353889E-01  4.24404930E-01  4.89473719E-01
  5.03381659E-01  5.36157043E-01  5.51228562E-01  5.82079519E-01  6.34029870E-01
  6.38909153E-01  6.95837231E-01  7.19892339E-01  7.45119796E-01  7.82612795E-01
  7.87941453E-01  8.13773558E-01  8.19708982E-01  8.55663794E-01  8.83804249E-01
  9.03200013E-01  9.41189484E-01  9.64189568E-01  9.92777176E-01  1.01089473E+00
  1.04158541E+00  1.06454657E+00  1.10401686E+00  1.11178040E+00  1.11611399E+00
  1.14427142E+00  1.15012803E+00  1.15968231E+00  1.18594090E+00  1.19793473E+00
  1.21206031E+00  1.22852535E+00  1.26135370E+00  1.28836953E+00  1.30071840E+00
  1.32959781E+00  1.36737856E+00  1.38877358E+00  1.41596797E+00  1.47310105E+00
  1.58601437E+00  1.59994020E+00  1.70624684E+00  1.72325324E+00  1.79285896E+00
  1.80384985E+00  1.85486906E+00  2.05663474E+00  2.06788047E+00  2.13850695E+00
  2.17406919E+00  2.19616133E+00  2.22441688E+00  2.24076249E+00  2.30814123E+00
  2.35116443E+00  2.40185414E+00  2.47902580E+00  2.49693807E+00  2.52035539E+00
  2.56672483E+00  2.59083821E+00  2.65456422E+00  2.68794358E+00  2.70403419E+00
  2.74893960E+00  2.86185539E+00  2.88756894E+00  2.99492772E+00  3.04200464E+00
  3.06875313E+00  3.32140258E+00  3.48849158E+00  4.35650998E+00  4.54224788E+00
  4.55999652E+00  4.64526544E+00  4.71138967E+00  4.74971290E+00  4.99188647E+00
Alpha MO coefficients                      R   N=       15625
  9.96254235E-01  1.42533701E-02 -8.59647864E-05 -4.68339330E-07  4.60147992E-05
 -2.00097005E-02  1.57917395E-04  1.58702150E-05 -8.16586093E-05  2.62187297E-03
 -1.76543326E-04 -3.24236052E-05  1.25952406E-04  6.88876521E-03  6.89220942E-03
  6.89481324E-03 -1.70911865E-06  2.43760047E-06  1.25299467E-06  5.80113707E-07
  6.32327837E-06 -7.81146214E-06 -1.58270136E-06 -8.19669719E-06  2.66308610E-04
  3.10881445E-04  2.66192029E-04  1.07134191E-04 -9.29826210E-06  8.19190863E-06
  1.33183719E-06  8.64748387E-06  4.76078833E-06  5.21748132E-07 -1.97146927E-05
 -2.00378161E-05  4.66941769E-05  7.05703315E-05 -4.05843603E-05  6.70271332E-04
 -1.99143278E-04 -8.47454607E-05 -5.73328747E-05 -2.18311960E-05 -5.42661442E-05
 -4.48668182E-05 -1.38314625E-05  1.89689339E-05  8.21724594E-07  8.23071757E-06
  5.40861882E-05 -1.94891001E-05 -1.72859457E-05 -1.84676693E-05 -4.70722430E-04
 -3.67615221E-04 -2.10705184E-05 -1.91535867E-05 -2.01702542E-05  5.19744400E-06
  7.62066657E-06 -1.02539019E-05  1.88830636E-08 -3.41707202E-06  1.25958095E-05
  6.74908754E-05 -1.56482132E-05 -1.09414316E-05 -6.33987173E-08 -5.74882694E-04
 -8.82876705E-05  4.81833745E-04  1.38851607E-04 -1.44875455E-05  1.11903710E-05
  1.68871585E-05  1.19364143E-05  1.14092699E-05 -6.46960213E-06 -2.65509046E-06
 -1.28058856E-05  6.72369059E-06 -4.33355554E-06  4.54153923E-06  1.85560231E-04
  5.80838377E-05 -4.11134029E-05 -9.91070804E-06  6.04318350E-07 -2.59839690E-06
 -4.94804460E-06 -5.86126790E-06  3.32360441E-07 -3.24307900E-06  1.54407143E-05
  1.13929810E-04  3.20598287E-05 -4.24086619E-05 -1.08967474E-05 -2.88119345E-05
 -6.22657093E-05 -2.38010636E-04 -6.44858569E-05  1.53457243E-05 -8.63853144E-06
 -5.01722122E-06  5.22788699E-05  6.13822494E-06 -9.22136354E-06 -2.39550637E-05
 -2.16323832E-04 -4.30385181E-05 -2.19506220E-04  5.83751799E-06  2.38113669E-06
 -2.59562688E-05 -1.37389367E-04 -7.37820345E-06 -7.27187667E-06 -3.03651626E-06
  6.04821115E-06 -2.10153427E-06 -3.78609980E-05  1.11070718E-05  1.28528762E-05
 -7.14966792E-06 -3.89002740E-05  1.34854235E-05 -1.20080984E-05 -1.73345573E-06
  2.49307056E-04 -2.08931900E-04  2.71279886E-04  6.72863341E-05  3.71249389E-03
 -1.69259454E-03  9.92275061E-04  7.33699313E-04 -1.96846630E-04 -2.82765102E-04
 -2.16312003E-04  5.33937665E-05 -7.33792943E-06 -7.31618161E-05  2.15876471E-04
 -6.82745415E-05 -3.05168056E-05 -4.12324262E-05  1.25238080E-05 -4.83393771E-04
 -4.31818274E-05 -4.08540907E-04 -1.11349131E-04  6.87030532E-05  6.46177791E-06
 -1.08172142E-05  3.41177024E-05 -2.17810398E-05  1.27703769E-05 -1.09656397E-03
 -6.84432722E-05 -1.95906905E-05 -1.19539981E-04 -3.81783885E-05 -4.26732548E-04
 -5.03264631E-04  3.16710731E-04  4.23301535E-04 -1.92303421E-05  2.48361414E-05
 -1.78681921E-05 -5.53994207E-05  1.38147419E-05  2.47483913E-06 -1.23086606E-04
  1.02977538E-04  7.85997941E-06  4.79329159E-06 -1.27140568E-05 -7.95868185E-04
 -2.13543901E-04 -3.88292718E-04 -8.08838769E-05  3.27673617E-05  3.52546642E-05
  3.29020501E-05 -2.96166371E-05 -2.09355041E-05  4.36063635E-06  2.50943077E-02
  3.66637104E-04 -1.69079154E-04  3.31410166E-05  3.24580962E-05  4.29737472E-03
  1.75798677E-03 -7.48809161E-04 -4.93849197E-04 -3.02868392E-04 -2.92343066E-04
 -1.47431532E-04 -2.03686614E-05  3.30416143E-05 -2.10704442E-05  1.08142291E-05
 -2.39728151E-05  8.53967882E-06 -9.93595834E-07 -1.30552689E-05  1.57781003E-04
  7.16596056E-05  1.64545972E-04  1.17341030E-04 -2.44944332E-06 -1.24686726E-05
  8.65515391E-06  2.15313263E-05  3.24468549E-06  1.87533466E-05  9.95431439E-01
  2.74155515E-02  3.22441111E-04 -4.76589213E-04 -1.10445352E-04 -1.31099774E-02
  2.68781516E-04  1.95914292E-03  2.53767309E-04 -1.46469516E-03 -1.83344605E-03
 -2.14811907E-03  1.77811563E-04 -1.40814723E-04  3.39291481E-05 -7.35524574E-05
 -2.47634184E-04  3.44366215E-05  5.23727204E-04  1.19104870E-06 -1.31128956E-04
  1.10164275E-05  2.69520044E-04  3.44887633E-06 -2.53457992E-05 -3.94528183E-05
 -1.29444710E-05  6.86540498E-06  6.18636505E-05 -1.61720470E-04  1.38426043E-03
  3.81627432E-06 -8.22142935E-06  3.90848923E-05  5.26114421E-05 -2.96443525E-05
  4.62408537E-04 -3.54787191E-04 -4.83663358E-04  2.73712116E-04  2.41913148E-03
 -9.34240459E-04 -8.30609253E-04  5.80954903E-04 -8.68989581E-05 -6.38428554E-05
 -1.26130781E-04  2.49571227E-05 -3.76213199E-05  1.37704595E-05  1.59451072E-04
 -3.67305759E-05 -7.04789864E-05  2.23669052E-05 -5.22919633E-05 -8.73792568E-04
  2.32237385E-04 -8.23260449E-04  1.44757705E-04  3.09747465E-05  9.56383769E-05
 -5.98236883E-06 -4.52270583E-05  2.50894190E-05  1.97692653E-05  9.95801098E-01
  2.82518999E-02  9.95229901E-05  4.13149258E-04 -2.92947011E-04 -1.56180947E-02
  7.28934405E-04 -7.99094004E-04  6.21962340E-04 -1.63153395E-03 -1.70371804E-03
 -1.60687864E-03 -1.40153693E-04  5.03383737E-05  1.37861607E-04  1.07534849E-02
  4.27974172E-04  1.45717887E-05  1.95006451E-05 -1.72578255E-05  3.40288464E-03
  2.11975336E-03 -3.36519979E-04  4.81104861E-04 -4.58601045E-04 -1.42392708E-04
 -1.64739523E-04  6.27612461E-05 -1.01596849E-04  1.02680899E-05 -1.89406837E-04
 -1.60606957E-04 -7.68727756E-05  9.85568024E-05 -1.99483241E-05  1.01140690E-03
  1.58478758E-04 -6.11067442E-04 -1.80264033E-04 -1.03014410E-05 -4.59807018E-05
 -1.06594031E-04  3.22826398E-05  4.56801804E-06 -3.20586816E-06 -1.51759106E-05
 -1.20188444E-04 -4.89252803E-06 -6.09370706E-07  1.93080742E-05  7.99262930E-04
  4.59243567E-04  1.32073941E-04 -3.51511811E-05 -1.91232676E-07 -3.97471418E-05
 -4.93393408E-05  9.34607939E-06  6.26907952E-06 -4.41549749E-06  1.09000804E-03
 -3.40568309E-05  1.65948347E-05  9.99223040E-05 -3.86110921E-06 -7.06247654E-04
 -3.49218611E-05 -1.21303990E-04  1.00417925E-04 -5.27862968E-05  5.33995053E-05
 -6.88783828E-05  3.42279015E-06 -2.87925546E-05 -5.99919604E-05  2.18155287E-04
  2.29157551E-03  1.49763061E-04  2.20735407E-03 -1.06556989E-04 -7.30776854E-05