448985                                                                  
Freq      RMP2-FC                                                     6-31G(d)            
Number of atoms                            I               21
Info1-9                                    I   N=           9
          33          31        1002           0           0         100
           6           2           1
Charge                                     I                0
Multiplicity                               I                1
Number of electrons                        I               78
Number of alpha electrons                  I               39
Number of beta electrons                   I               39
Number of basis functions                  I              172
Number of independent functions            I              172
Number of point charges in /Mol/           I                0
Number of translation vectors              I                0
Atomic numbers                             I   N=          21
           8           8           8           7           6           6
           6           6           6           6           1           1
           1           1           1           1           1           1
           1           1           1
Nuclear charges                            R   N=          21
  8.00000000E+00  8.00000000E+00  8.00000000E+00  7.00000000E+00  6.00000000E+00
  6.00000000E+00  6.00000000E+00  6.00000000E+00  6.00000000E+00  6.00000000E+00
  1.00000000E+00  1.00000000E+00  1.00000000E+00  1.00000000E+00  1.00000000E+00
  1.00000000E+00  1.00000000E+00  1.00000000E+00  1.00000000E+00  1.00000000E+00
  1.00000000E+00
Current cartesian coordinates              R   N=          63
 -4.05152728E+00 -2.85275302E+00  8.65159475E-01  3.02724253E+00  2.44645921E+00
 -1.09174210E+00 -6.01874363E+00 -1.88904710E-01 -1.85550482E+00  3.11638423E-01
 -5.13196307E-01  4.40878856E-01 -1.89937257E+00  9.61428770E-01 -2.28866345E-01
 -2.49679702E+00  3.01668216E+00  1.72440607E+00  4.83729514E+00 -1.22465387E+00
  9.51522464E-01  2.68030706E+00  4.08634179E-01 -7.38570114E-03 -4.18751355E+00
 -7.11890909E-01 -5.68883562E-01  7.14440161E+00 -1.03156661E+00 -7.63557349E-01
 -1.52604763E+00  1.86351401E+00 -2.04987016E+00  6.46837669E-02 -2.13005072E+00
  1.43100329E+00 -2.87022049E+00  2.16371186E+00  3.56910827E+00 -8.67782994E-01
  4.27373808E+00  1.86833000E+00 -4.14750395E+00  4.11077189E+00  1.13437396E+00
  5.31308543E+00 -5.59586163E-01  2.85707358E+00  4.21706004E+00 -3.19162404E+00
  1.14252357E+00  7.68920359E+00  9.43394138E-01 -9.87880729E-01  8.73429111E+00
 -2.08515282E+00  2.97094000E-02  6.72958098E+00 -1.79381869E+00 -2.63771633E+00
 -5.64351576E+00 -3.75273755E+00  5.70479255E-01
Force Field                                I                0
Int Atom Types                             I   N=          21
           0           0           0           0           0           0
           0           0           0           0           0           0
           0           0           0           0           0           0
           0           0           0
MM charges                                 R   N=          21
  0.00000000E+00  0.00000000E+00  0.00000000E+00  0.00000000E+00  0.00000000E+00
  0.00000000E+00  0.00000000E+00  0.00000000E+00  0.00000000E+00  0.00000000E+00
  0.00000000E+00  0.00000000E+00  0.00000000E+00  0.00000000E+00  0.00000000E+00
  0.00000000E+00  0.00000000E+00  0.00000000E+00  0.00000000E+00  0.00000000E+00
  0.00000000E+00
Integer atomic weights                     I   N=          21
          16          16          16          14          12          12
          12          12          12          12           1           1
           1           1           1           1           1           1
           1           1           1
Real atomic weights                        R   N=          21
  1.59949146E+01  1.59949146E+01  1.59949146E+01  1.40030740E+01  1.20000000E+01
  1.20000000E+01  1.20000000E+01  1.20000000E+01  1.20000000E+01  1.20000000E+01
  1.00782504E+00  1.00782504E+00  1.00782504E+00  1.00782504E+00  1.00782504E+00
  1.00782504E+00  1.00782504E+00  1.00782504E+00  1.00782504E+00  1.00782504E+00
  1.00782504E+00
Atom fragment info                         I   N=          21
           0           0           0           0           0           0
           0           0           0           0           0           0
           0           0           0           0           0           0
           0           0           0
Atom residue num                           I   N=          21
           0           0           0           0           0           0
           0           0           0           0           0           0
           0           0           0           0           0           0
           0           0           0
Nuclear spins                              I   N=          21
           0           0           0           2           0           0
           0           0           0           0           1           1
           1           1           1           1           1           1
           1           1           1
Nuclear ZEff                               R   N=          21
 -5.60000000E+00 -5.60000000E+00 -5.60000000E+00 -4.55000000E+00 -3.60000000E+00
 -3.60000000E+00 -3.60000000E+00 -3.60000000E+00 -3.60000000E+00 -3.60000000E+00
 -1.00000000E+00 -1.00000000E+00 -1.00000000E+00 -1.00000000E+00 -1.00000000E+00
 -1.00000000E+00 -1.00000000E+00 -1.00000000E+00 -1.00000000E+00 -1.00000000E+00
 -1.00000000E+00
Nuclear QMom                               R   N=          21
  0.00000000E+00  0.00000000E+00  0.00000000E+00  2.04400000E+00  0.00000000E+00
  0.00000000E+00  0.00000000E+00  0.00000000E+00  0.00000000E+00  0.00000000E+00
  0.00000000E+00  0.00000000E+00  0.00000000E+00  0.00000000E+00  0.00000000E+00
  0.00000000E+00  0.00000000E+00  0.00000000E+00  0.00000000E+00  0.00000000E+00
  0.00000000E+00
Nuclear GFac                               R   N=          21
  0.00000000E+00  0.00000000E+00  0.00000000E+00  4.03761000E-01  0.00000000E+00
  0.00000000E+00  0.00000000E+00  0.00000000E+00  0.00000000E+00  0.00000000E+00
  2.79284600E+00  2.79284600E+00  2.79284600E+00  2.79284600E+00  2.79284600E+00
  2.79284600E+00  2.79284600E+00  2.79284600E+00  2.79284600E+00  2.79284600E+00
  2.79284600E+00
MicOpt                                     I   N=          21
          -1          -1          -1          -1          -1          -1
          -1          -1          -1          -1          -1          -1
          -1          -1          -1          -1          -1          -1
          -1          -1          -1
Number of contracted shells                I               62
Number of primitive shells                 I              154
Pure/Cartesian d shells                    I                1
Pure/Cartesian f shells                    I                0
Highest angular momentum                   I                2
Largest degree of contraction              I                6
Shell types                                I   N=          62
           0          -1          -1           2           0          -1
          -1           2           0          -1          -1           2
           0          -1          -1           2           0          -1
          -1           2           0          -1          -1           2
           0          -1          -1           2           0          -1
          -1           2           0          -1          -1           2
           0          -1          -1           2           0           0
           0           0           0           0           0           0
           0           0           0           0           0           0
           0           0           0           0           0           0
           0           0
Number of primitives per shell             I   N=          62
           6           3           1           1           6           3
           1           1           6           3           1           1
           6           3           1           1           6           3
           1           1           6           3           1           1
           6           3           1           1           6           3
           1           1           6           3           1           1
           6           3           1           1           3           1
           3           1           3           1           3           1
           3           1           3           1           3           1
           3           1           3           1           3           1
           3           1
Shell to atom map                          I   N=          62
           1           1           1           1           2           2
           2           2           3           3           3           3
           4           4           4           4           5           5
           5           5           6           6           6           6
           7           7           7           7           8           8
           8           8           9           9           9           9
          10          10          10          10          11          11
          12          12          13          13          14          14
          15          15          16          16          17          17
          18          18          19          19          20          20
          21          21
Primitive exponents                        R   N=         154
  5.48467166E+03  8.25234946E+02  1.88046958E+02  5.29645000E+01  1.68975704E+01
  5.79963534E+00  1.55396162E+01  3.59993359E+00  1.01376175E+00  2.70005823E-01
  8.00000000E-01  5.48467166E+03  8.25234946E+02  1.88046958E+02  5.29645000E+01
  1.68975704E+01  5.79963534E+00  1.55396162E+01  3.59993359E+00  1.01376175E+00
  2.70005823E-01  8.00000000E-01  5.48467166E+03  8.25234946E+02  1.88046958E+02
  5.29645000E+01  1.68975704E+01  5.79963534E+00  1.55396162E+01  3.59993359E+00
  1.01376175E+00  2.70005823E-01  8.00000000E-01  4.17351146E+03  6.27457911E+02
  1.42902093E+02  4.02343293E+01  1.28202129E+01  4.39043701E+00  1.16263619E+01
  2.71627981E+00  7.72218397E-01  2.12031498E-01  8.00000000E-01  3.04752488E+03
  4.57369518E+02  1.03948685E+02  2.92101553E+01  9.28666296E+00  3.16392696E+00
  7.86827235E+00  1.88128854E+00  5.44249258E-01  1.68714478E-01  8.00000000E-01
  3.04752488E+03  4.57369518E+02  1.03948685E+02  2.92101553E+01  9.28666296E+00
  3.16392696E+00  7.86827235E+00  1.88128854E+00  5.44249258E-01  1.68714478E-01
  8.00000000E-01  3.04752488E+03  4.57369518E+02  1.03948685E+02  2.92101553E+01
  9.28666296E+00  3.16392696E+00  7.86827235E+00  1.88128854E+00  5.44249258E-01
  1.68714478E-01  8.00000000E-01  3.04752488E+03  4.57369518E+02  1.03948685E+02
  2.92101553E+01  9.28666296E+00  3.16392696E+00  7.86827235E+00  1.88128854E+00
  5.44249258E-01  1.68714478E-01  8.00000000E-01  3.04752488E+03  4.57369518E+02
  1.03948685E+02  2.92101553E+01  9.28666296E+00  3.16392696E+00  7.86827235E+00
  1.88128854E+00  5.44249258E-01  1.68714478E-01  8.00000000E-01  3.04752488E+03
  4.57369518E+02  1.03948685E+02  2.92101553E+01  9.28666296E+00  3.16392696E+00
  7.86827235E+00  1.88128854E+00  5.44249258E-01  1.68714478E-01  8.00000000E-01
  1.87311370E+01  2.82539436E+00  6.40121692E-01  1.61277759E-01  1.87311370E+01
  2.82539436E+00  6.40121692E-01  1.61277759E-01  1.87311370E+01  2.82539436E+00
  6.40121692E-01  1.61277759E-01  1.87311370E+01  2.82539436E+00  6.40121692E-01
  1.61277759E-01  1.87311370E+01  2.82539436E+00  6.40121692E-01  1.61277759E-01
  1.87311370E+01  2.82539436E+00  6.40121692E-01  1.61277759E-01  1.87311370E+01
  2.82539436E+00  6.40121692E-01  1.61277759E-01  1.87311370E+01  2.82539436E+00
  6.40121692E-01  1.61277759E-01  1.87311370E+01  2.82539436E+00  6.40121692E-01
  1.61277759E-01  1.87311370E+01  2.82539436E+00  6.40121692E-01  1.61277759E-01
  1.87311370E+01  2.82539436E+00  6.40121692E-01  1.61277759E-01
Contraction coefficients                   R   N=         154
  1.83107443E-03  1.39501722E-02  6.84450781E-02  2.32714336E-01  4.70192898E-01
  3.58520853E-01 -1.10777550E-01 -1.48026263E-01  1.13076702E+00  1.00000000E+00
  1.00000000E+00  1.83107443E-03  1.39501722E-02  6.84450781E-02  2.32714336E-01
  4.70192898E-01  3.58520853E-01 -1.10777550E-01 -1.48026263E-01  1.13076702E+00
  1.00000000E+00  1.00000000E+00  1.83107443E-03  1.39501722E-02  6.84450781E-02
  2.32714336E-01  4.70192898E-01  3.58520853E-01 -1.10777550E-01 -1.48026263E-01
  1.13076702E+00  1.00000000E+00  1.00000000E+00  1.83477216E-03  1.39946270E-02
  6.85865518E-02  2.32240873E-01  4.69069948E-01  3.60455199E-01 -1.14961182E-01
 -1.69117479E-01  1.14585195E+00  1.00000000E+00  1.00000000E+00  1.83473713E-03
  1.40373228E-02  6.88426223E-02  2.32184443E-01  4.67941348E-01  3.62311985E-01
 -1.19332420E-01 -1.60854152E-01  1.14345644E+00  1.00000000E+00  1.00000000E+00
  1.83473713E-03  1.40373228E-02  6.88426223E-02  2.32184443E-01  4.67941348E-01
  3.62311985E-01 -1.19332420E-01 -1.60854152E-01  1.14345644E+00  1.00000000E+00
  1.00000000E+00  1.83473713E-03  1.40373228E-02  6.88426223E-02  2.32184443E-01
  4.67941348E-01  3.62311985E-01 -1.19332420E-01 -1.60854152E-01  1.14345644E+00
  1.00000000E+00  1.00000000E+00  1.83473713E-03  1.40373228E-02  6.88426223E-02
  2.32184443E-01  4.67941348E-01  3.62311985E-01 -1.19332420E-01 -1.60854152E-01
  1.14345644E+00  1.00000000E+00  1.00000000E+00  1.83473713E-03  1.40373228E-02
  6.88426223E-02  2.32184443E-01  4.67941348E-01  3.62311985E-01 -1.19332420E-01
 -1.60854152E-01  1.14345644E+00  1.00000000E+00  1.00000000E+00  1.83473713E-03
  1.40373228E-02  6.88426223E-02  2.32184443E-01  4.67941348E-01  3.62311985E-01
 -1.19332420E-01 -1.60854152E-01  1.14345644E+00  1.00000000E+00  1.00000000E+00
  3.34946043E-02  2.34726953E-01  8.13757326E-01  1.00000000E+00  3.34946043E-02
  2.34726953E-01  8.13757326E-01  1.00000000E+00  3.34946043E-02  2.34726953E-01
  8.13757326E-01  1.00000000E+00  3.34946043E-02  2.34726953E-01  8.13757326E-01
  1.00000000E+00  3.34946043E-02  2.34726953E-01  8.13757326E-01  1.00000000E+00
  3.34946043E-02  2.34726953E-01  8.13757326E-01  1.00000000E+00  3.34946043E-02
  2.34726953E-01  8.13757326E-01  1.00000000E+00  3.34946043E-02  2.34726953E-01
  8.13757326E-01  1.00000000E+00  3.34946043E-02  2.34726953E-01  8.13757326E-01
  1.00000000E+00  3.34946043E-02  2.34726953E-01  8.13757326E-01  1.00000000E+00
  3.34946043E-02  2.34726953E-01  8.13757326E-01  1.00000000E+00
P(S=P) Contraction coefficients            R   N=         154
  0.00000000E+00  0.00000000E+00  0.00000000E+00  0.00000000E+00  0.00000000E+00
  0.00000000E+00  7.08742682E-02  3.39752839E-01  7.27158577E-01  1.00000000E+00
  0.00000000E+00  0.00000000E+00  0.00000000E+00  0.00000000E+00  0.00000000E+00
  0.00000000E+00  0.00000000E+00  7.08742682E-02  3.39752839E-01  7.27158577E-01
  1.00000000E+00  0.00000000E+00  0.00000000E+00  0.00000000E+00  0.00000000E+00
  0.00000000E+00  0.00000000E+00  0.00000000E+00  7.08742682E-02  3.39752839E-01
  7.27158577E-01  1.00000000E+00  0.00000000E+00  0.00000000E+00  0.00000000E+00
  0.00000000E+00  0.00000000E+00  0.00000000E+00  0.00000000E+00  6.75797439E-02
  3.23907296E-01  7.40895140E-01  1.00000000E+00  0.00000000E+00  0.00000000E+00
  0.00000000E+00  0.00000000E+00  0.00000000E+00  0.00000000E+00  0.00000000E+00
  6.89990666E-02  3.16423961E-01  7.44308291E-01  1.00000000E+00  0.00000000E+00
  0.00000000E+00  0.00000000E+00  0.00000000E+00  0.00000000E+00  0.00000000E+00
  0.00000000E+00  6.89990666E-02  3.16423961E-01  7.44308291E-01  1.00000000E+00
  0.00000000E+00  0.00000000E+00  0.00000000E+00  0.00000000E+00  0.00000000E+00
  0.00000000E+00  0.00000000E+00  6.89990666E-02  3.16423961E-01  7.44308291E-01
  1.00000000E+00  0.00000000E+00  0.00000000E+00  0.00000000E+00  0.00000000E+00
  0.00000000E+00  0.00000000E+00  0.00000000E+00  6.89990666E-02  3.16423961E-01
  7.44308291E-01  1.00000000E+00  0.00000000E+00  0.00000000E+00  0.00000000E+00
  0.00000000E+00  0.00000000E+00  0.00000000E+00  0.00000000E+00  6.89990666E-02
  3.16423961E-01  7.44308291E-01  1.00000000E+00  0.00000000E+00  0.00000000E+00
  0.00000000E+00  0.00000000E+00  0.00000000E+00  0.00000000E+00  0.00000000E+00
  6.89990666E-02  3.16423961E-01  7.44308291E-01  1.00000000E+00  0.00000000E+00
  0.00000000E+00  0.00000000E+00  0.00000000E+00  0.00000000E+00  0.00000000E+00
  0.00000000E+00  0.00000000E+00  0.00000000E+00  0.00000000E+00  0.00000000E+00
  0.00000000E+00  0.00000000E+00  0.00000000E+00  0.00000000E+00  0.00000000E+00
  0.00000000E+00  0.00000000E+00  0.00000000E+00  0.00000000E+00  0.00000000E+00
  0.00000000E+00  0.00000000E+00  0.00000000E+00  0.00000000E+00  0.00000000E+00
  0.00000000E+00  0.00000000E+00  0.00000000E+00  0.00000000E+00  0.00000000E+00
  0.00000000E+00  0.00000000E+00  0.00000000E+00  0.00000000E+00  0.00000000E+00
  0.00000000E+00  0.00000000E+00  0.00000000E+00  0.00000000E+00  0.00000000E+00
  0.00000000E+00  0.00000000E+00  0.00000000E+00  0.00000000E+00
Coordinates of each shell                  R   N=         186
 -4.05152728E+00 -2.85275302E+00  8.65159475E-01 -4.05152728E+00 -2.85275302E+00
  8.65159475E-01 -4.05152728E+00 -2.85275302E+00  8.65159475E-01 -4.05152728E+00
 -2.85275302E+00  8.65159475E-01  3.02724253E+00  2.44645921E+00 -1.09174210E+00
  3.02724253E+00  2.44645921E+00 -1.09174210E+00  3.02724253E+00  2.44645921E+00
 -1.09174210E+00  3.02724253E+00  2.44645921E+00 -1.09174210E+00 -6.01874363E+00
 -1.88904710E-01 -1.85550482E+00 -6.01874363E+00 -1.88904710E-01 -1.85550482E+00
 -6.01874363E+00 -1.88904710E-01 -1.85550482E+00 -6.01874363E+00 -1.88904710E-01
 -1.85550482E+00  3.11638423E-01 -5.13196307E-01  4.40878856E-01  3.11638423E-01
 -5.13196307E-01  4.40878856E-01  3.11638423E-01 -5.13196307E-01  4.40878856E-01
  3.11638423E-01 -5.13196307E-01  4.40878856E-01 -1.89937257E+00  9.61428770E-01
 -2.28866345E-01 -1.89937257E+00  9.61428770E-01 -2.28866345E-01 -1.89937257E+00
  9.61428770E-01 -2.28866345E-01 -1.89937257E+00  9.61428770E-01 -2.28866345E-01
 -2.49679702E+00  3.01668216E+00  1.72440607E+00 -2.49679702E+00  3.01668216E+00
  1.72440607E+00 -2.49679702E+00  3.01668216E+00  1.72440607E+00 -2.49679702E+00
  3.01668216E+00  1.72440607E+00  4.83729514E+00 -1.22465387E+00  9.51522464E-01
  4.83729514E+00 -1.22465387E+00  9.51522464E-01  4.83729514E+00 -1.22465387E+00
  9.51522464E-01  4.83729514E+00 -1.22465387E+00  9.51522464E-01  2.68030706E+00
  4.08634179E-01 -7.38570114E-03  2.68030706E+00  4.08634179E-01 -7.38570114E-03
  2.68030706E+00  4.08634179E-01 -7.38570114E-03  2.68030706E+00  4.08634179E-01
 -7.38570114E-03 -4.18751355E+00 -7.11890909E-01 -5.68883562E-01 -4.18751355E+00
 -7.11890909E-01 -5.68883562E-01 -4.18751355E+00 -7.11890909E-01 -5.68883562E-01
 -4.18751355E+00 -7.11890909E-01 -5.68883562E-01  7.14440161E+00 -1.03156661E+00
 -7.63557349E-01  7.14440161E+00 -1.03156661E+00 -7.63557349E-01  7.14440161E+00
 -1.03156661E+00 -7.63557349E-01  7.14440161E+00 -1.03156661E+00 -7.63557349E-01
 -1.52604763E+00  1.86351401E+00 -2.04987016E+00 -1.52604763E+00  1.86351401E+00
 -2.04987016E+00  6.46837669E-02 -2.13005072E+00  1.43100329E+00  6.46837669E-02
 -2.13005072E+00  1.43100329E+00 -2.87022049E+00  2.16371186E+00  3.56910827E+00
 -2.87022049E+00  2.16371186E+00  3.56910827E+00 -8.67782994E-01  4.27373808E+00
  1.86833000E+00 -8.67782994E-01  4.27373808E+00  1.86833000E+00 -4.14750395E+00
  4.11077189E+00  1.13437396E+00 -4.14750395E+00  4.11077189E+00  1.13437396E+00
  5.31308543E+00 -5.59586163E-01  2.85707358E+00  5.31308543E+00 -5.59586163E-01
  2.85707358E+00  4.21706004E+00 -3.19162404E+00  1.14252357E+00  4.21706004E+00
 -3.19162404E+00  1.14252357E+00  7.68920359E+00  9.43394138E-01 -9.87880729E-01
  7.68920359E+00  9.43394138E-01 -9.87880729E-01  8.73429111E+00 -2.08515282E+00
  2.97094000E-02  8.73429111E+00 -2.08515282E+00  2.97094000E-02  6.72958098E+00
 -1.79381869E+00 -2.63771633E+00  6.72958098E+00 -1.79381869E+00 -2.63771633E+00
 -5.64351576E+00 -3.75273755E+00  5.70479255E-01 -5.64351576E+00 -3.75273755E+00
  5.70479255E-01
Constraint Structure                       R   N=          63
 -4.05152728E+00 -2.85275302E+00  8.65159475E-01  3.02724253E+00  2.44645921E+00
 -1.09174210E+00 -6.01874363E+00 -1.88904710E-01 -1.85550482E+00  3.11638423E-01
 -5.13196307E-01  4.40878856E-01 -1.89937257E+00  9.61428770E-01 -2.28866345E-01
 -2.49679702E+00  3.01668216E+00  1.72440607E+00  4.83729514E+00 -1.22465387E+00
  9.51522464E-01  2.68030706E+00  4.08634179E-01 -7.38570114E-03 -4.18751355E+00
 -7.11890909E-01 -5.68883562E-01  7.14440161E+00 -1.03156661E+00 -7.63557349E-01
 -1.52604763E+00  1.86351401E+00 -2.04987016E+00  6.46837669E-02 -2.13005072E+00
  1.43100329E+00 -2.87022049E+00  2.16371186E+00  3.56910827E+00 -8.67782994E-01
  4.27373808E+00  1.86833000E+00 -4.14750395E+00  4.11077189E+00  1.13437396E+00
  5.31308543E+00 -5.59586163E-01  2.85707358E+00  4.21706004E+00 -3.19162404E+00
  1.14252357E+00  7.68920359E+00  9.43394138E-01 -9.87880729E-01  8.73429111E+00
 -2.08515282E+00  2.97094000E-02  6.72958098E+00 -1.79381869E+00 -2.63771633E+00
 -5.64351576E+00 -3.75273755E+00  5.70479255E-01
Num ILSW                                   I              100
ILSW                                       I   N=         100
           0           1           0           0           2           0
           0           0           0           0           0          -1
           0           0           0           0           0           0
           0           0           0           0           1           0
           1           0           0           0           0           0
           0           0      100000           0          -1           0
           0           0           0           0           0           0
           0           0           0           1           1           0
           0           0           1           0           0           0
           0           0           4          40           0           0
           0           0           0           0           0           0
           0           0           0           0           0           0
           0           0           0           0           0           0
           0           0           0           0           0           0
           0           0           0           0           0           0
           0           0           0           0           0           0
           0           0           0           0
Num RLSW                                   I               40
RLSW                                       R   N=          40
  1.00000000E+00  1.00000000E+00  1.00000000E+00  1.00000000E+00  1.00000000E+00
  0.00000000E+00  0.00000000E+00  1.00000000E+00  0.00000000E+00  0.00000000E+00
  0.00000000E+00  0.00000000E+00  1.00000000E+00  0.00000000E+00  0.00000000E+00
  0.00000000E+00  0.00000000E+00  1.00000000E+00  0.00000000E+00  0.00000000E+00
  0.00000000E+00  0.00000000E+00  1.00000000E+00  0.00000000E+00  0.00000000E+00
  0.00000000E+00  0.00000000E+00  1.00000000E+00  0.00000000E+00  0.00000000E+00
  0.00000000E+00  0.00000000E+00  0.00000000E+00  0.00000000E+00  0.00000000E+00
  0.00000000E+00  0.00000000E+00  0.00000000E+00  1.00000000E+00  1.00000000E+00
MxBond                                     I                4
NBond                                      I   N=          21
           2           1           1           3           4           4
           4           3           3           4           1           1
           1           1           1           1           1           1
           1           1           1
IBond                                      I   N=          84
           9          21           0           0           8           0
           0           0           9           0           0           0
           5           8          12           0           4           6
           9          11           5          13          14          15
           8          10          16          17           2           4
           7           0           1           3           5           0
           7          18          19          20           5           0
           0           0           4           0           0           0
           6           0           0           0           6           0
           0           0           6           0           0           0
           7           0           0           0           7           0
           0           0          10           0           0           0
          10           0           0           0          10           0
           0           0           1           0           0           0
RBond                                      R   N=          84
  1.50000000E+00  1.00000000E+00  0.00000000E+00  0.00000000E+00  2.00000000E+00
  0.00000000E+00  0.00000000E+00  0.00000000E+00  2.00000000E+00  0.00000000E+00
  0.00000000E+00  0.00000000E+00  1.00000000E+00  1.00000000E+00  1.00000000E+00
  0.00000000E+00  1.00000000E+00  1.00000000E+00  1.00000000E+00  1.00000000E+00
  1.00000000E+00  1.00000000E+00  1.00000000E+00  1.00000000E+00  1.00000000E+00
  1.00000000E+00  1.00000000E+00  1.00000000E+00  2.00000000E+00  1.00000000E+00
  1.00000000E+00  0.00000000E+00  1.50000000E+00  2.00000000E+00  1.00000000E+00
  0.00000000E+00  1.00000000E+00  1.00000000E+00  1.00000000E+00  1.00000000E+00
  1.00000000E+00  0.00000000E+00  0.00000000E+00  0.00000000E+00  1.00000000E+00
  0.00000000E+00  0.00000000E+00  0.00000000E+00  1.00000000E+00  0.00000000E+00
  0.00000000E+00  0.00000000E+00  1.00000000E+00  0.00000000E+00  0.00000000E+00
  0.00000000E+00  1.00000000E+00  0.00000000E+00  0.00000000E+00  0.00000000E+00
  1.00000000E+00  0.00000000E+00  0.00000000E+00  0.00000000E+00  1.00000000E+00
  0.00000000E+00  0.00000000E+00  0.00000000E+00  1.00000000E+00  0.00000000E+00
  0.00000000E+00  0.00000000E+00  1.00000000E+00  0.00000000E+00  0.00000000E+00
  0.00000000E+00  1.00000000E+00  0.00000000E+00  0.00000000E+00  0.00000000E+00
  1.00000000E+00  0.00000000E+00  0.00000000E+00  0.00000000E+00
Virial Ratio                               R      2.002724055646953E+00
SCF Energy                                 R     -5.126871906254827E+02
MP2 Energy                                 R     -5.141565701245526E+02
Total Energy                               R     -5.141565701245526E+02
Post-SCF wavefunction norm                 R      1.706197746428089E+00
RMS Force                                  R      2.384358034503947E-07
RMS Density                                R      2.280313483834172E-09
External E-field                           R   N=          35
  0.00000000E+00  0.00000000E+00  0.00000000E+00  0.00000000E+00  0.00000000E+00
  0.00000000E+00  0.00000000E+00  0.00000000E+00  0.00000000E+00  0.00000000E+00
  0.00000000E+00  0.00000000E+00  0.00000000E+00  0.00000000E+00  0.00000000E+00
  0.00000000E+00  0.00000000E+00  0.00000000E+00  0.00000000E+00  0.00000000E+00
  0.00000000E+00  0.00000000E+00  0.00000000E+00  0.00000000E+00  0.00000000E+00
  0.00000000E+00  0.00000000E+00  0.00000000E+00  0.00000000E+00  0.00000000E+00
  0.00000000E+00  0.00000000E+00  0.00000000E+00  0.00000000E+00  0.00000000E+00
IOpCl                                      I                0
IROHF                                      I                0
Alpha Orbital Energies                     R   N=         172
 -2.06387951E+01 -2.05712091E+01 -2.05276268E+01 -1.55974592E+01 -1.14055341E+01
 -1.13577099E+01 -1.12939880E+01 -1.12467634E+01 -1.12321232E+01 -1.12218773E+01
 -1.47345263E+00 -1.37550938E+00 -1.36923625E+00 -1.24191518E+00 -1.07425091E+00
 -1.03574548E+00 -9.26074860E-01 -8.84207484E-01 -8.18908528E-01 -7.90850459E-01
 -7.24608374E-01 -7.08735162E-01 -6.76534995E-01 -6.56969933E-01 -6.38547413E-01
 -6.26641838E-01 -6.04956801E-01 -5.97078702E-01 -5.89873185E-01 -5.49514583E-01
 -5.39031018E-01 -5.32089766E-01 -5.21138392E-01 -5.11917743E-01 -4.93705821E-01
 -4.83258156E-01 -4.63001708E-01 -4.20478776E-01 -3.93237747E-01  1.63382168E-01
  1.89626168E-01  2.04474390E-01  2.30259571E-01  2.62575497E-01  2.68681102E-01
  2.91780934E-01  2.93565852E-01  3.17003146E-01  3.23437186E-01  3.25353767E-01
  3.31483847E-01  3.45217492E-01  3.72101046E-01  3.88378587E-01  4.10033283E-01
  4.19631335E-01  4.54704064E-01  4.77553426E-01  5.39792324E-01  5.61846316E-01
  6.02979167E-01  6.96668094E-01  7.21881847E-01  7.32572478E-01  7.37011655E-01
  7.57488647E-01  7.73643621E-01  7.95588118E-01  8.14646552E-01  8.24370286E-01
  8.62588836E-01  8.88909628E-01  9.07730593E-01  9.30476925E-01  9.31724701E-01
  9.67465521E-01  9.77758686E-01  1.00584372E+00  1.03100433E+00  1.03815918E+00
  1.04461481E+00  1.07289490E+00  1.09683043E+00  1.12146022E+00  1.13166282E+00
  1.14197096E+00  1.15149569E+00  1.16066421E+00  1.16600653E+00  1.17102417E+00
  1.18381660E+00  1.19704481E+00  1.20590404E+00  1.22049802E+00  1.22846851E+00
  1.24335860E+00  1.26242800E+00  1.28141252E+00  1.34006025E+00  1.35011104E+00
  1.37443815E+00  1.38781596E+00  1.43058732E+00  1.51078565E+00  1.51835029E+00
  1.58689975E+00  1.61369910E+00  1.64110098E+00  1.66913314E+00  1.69347862E+00
  1.73279146E+00  1.75650280E+00  1.80427330E+00  1.85431057E+00  1.90486778E+00
  1.93690735E+00  2.00775153E+00  2.01414157E+00  2.04715330E+00  2.05556056E+00
  2.08088088E+00  2.08727724E+00  2.10678470E+00  2.11855227E+00  2.13873169E+00
  2.15173640E+00  2.16945203E+00  2.21050670E+00  2.23185326E+00  2.25752364E+00
  2.26727660E+00  2.28664470E+00  2.31865512E+00  2.35154776E+00  2.35727019E+00
  2.40276049E+00  2.43209713E+00  2.50295493E+00  2.57063747E+00  2.58074349E+00