124355626                                                               
Freq      RMP2-FC                                                     6-31G(d)            
Number of atoms                            I               23
Info1-9                                    I   N=           9
          35          33        1002           0           0         100
           6           2           1
Charge                                     I                0
Multiplicity                               I                1
Number of electrons                        I               70
Number of alpha electrons                  I               35
Number of beta electrons                   I               35
Number of basis functions                  I              163
Number of independent functions            I              163
Number of point charges in /Mol/           I                0
Number of translation vectors              I                0
Atomic numbers                             I   N=          23
           8           6           6           6           6           6
           6           6           6           1           1           1
           1           1           1           1           1           1
           1           1           1           1           1
Nuclear charges                            R   N=          23
  8.00000000E+00  6.00000000E+00  6.00000000E+00  6.00000000E+00  6.00000000E+00
  6.00000000E+00  6.00000000E+00  6.00000000E+00  6.00000000E+00  1.00000000E+00
  1.00000000E+00  1.00000000E+00  1.00000000E+00  1.00000000E+00  1.00000000E+00
  1.00000000E+00  1.00000000E+00  1.00000000E+00  1.00000000E+00  1.00000000E+00
  1.00000000E+00  1.00000000E+00  1.00000000E+00
Current cartesian coordinates              R   N=          69
 -5.13278098E+00  2.60672520E+00 -2.53904761E-01 -5.25955961E+00  1.36316462E-01
  8.31851932E-01 -2.64165325E+00 -9.36288178E-01  8.96331218E-01  6.62981296E+00
 -8.32609457E-01 -7.79200511E-01 -7.03733209E+00 -1.55702764E+00 -6.85154626E-01
 -5.72717274E-01  2.30398298E-01 -1.26796844E-02  4.02186829E+00  2.63508530E-01
 -8.58705409E-01  1.93619767E+00 -8.85221127E-01  4.46766362E-02  8.42938981E+00
  7.61156503E-01  8.34536624E-01 -5.96805566E+00  2.66916683E-01  2.78979617E+00
 -2.47785738E+00 -2.81571499E+00  1.72857792E+00  6.54215686E+00 -2.76462314E+00
 -3.54626158E-02  7.38968915E+00 -9.70008293E-01 -2.70553896E+00 -6.36548066E+00
 -1.66521590E+00 -2.63463928E+00 -7.11035968E+00 -3.46496790E+00  1.08536719E-01
 -8.96228359E+00 -7.92115891E-01 -6.81875561E-01 -7.70783319E-01  2.10687090E+00
 -8.29285002E-01  3.83827315E+00  2.14875290E+00 -1.67869720E+00  2.11100001E+00
 -2.76830819E+00  8.71107219E-01  8.55352680E+00  2.69317869E+00  1.08487644E-01
  1.03350817E+01 -4.15413335E-02  8.41825698E-01  7.75623507E+00  8.57777333E-01
  2.78555032E+00 -6.84493359E+00  3.27379724E+00 -2.67082059E-01
Force Field                                I                0
Int Atom Types                             I   N=          23
           0           0           0           0           0           0
           0           0           0           0           0           0
           0           0           0           0           0           0
           0           0           0           0           0
MM charges                                 R   N=          23
  0.00000000E+00  0.00000000E+00  0.00000000E+00  0.00000000E+00  0.00000000E+00
  0.00000000E+00  0.00000000E+00  0.00000000E+00  0.00000000E+00  0.00000000E+00
  0.00000000E+00  0.00000000E+00  0.00000000E+00  0.00000000E+00  0.00000000E+00
  0.00000000E+00  0.00000000E+00  0.00000000E+00  0.00000000E+00  0.00000000E+00
  0.00000000E+00  0.00000000E+00  0.00000000E+00
Integer atomic weights                     I   N=          23
          16          12          12          12          12          12
          12          12          12           1           1           1
           1           1           1           1           1           1
           1           1           1           1           1
Real atomic weights                        R   N=          23
  1.59949146E+01  1.20000000E+01  1.20000000E+01  1.20000000E+01  1.20000000E+01
  1.20000000E+01  1.20000000E+01  1.20000000E+01  1.20000000E+01  1.00782504E+00
  1.00782504E+00  1.00782504E+00  1.00782504E+00  1.00782504E+00  1.00782504E+00
  1.00782504E+00  1.00782504E+00  1.00782504E+00  1.00782504E+00  1.00782504E+00
  1.00782504E+00  1.00782504E+00  1.00782504E+00
Atom fragment info                         I   N=          23
           0           0           0           0           0           0
           0           0           0           0           0           0
           0           0           0           0           0           0
           0           0           0           0           0
Atom residue num                           I   N=          23
           0           0           0           0           0           0
           0           0           0           0           0           0
           0           0           0           0           0           0
           0           0           0           0           0
Nuclear spins                              I   N=          23
           0           0           0           0           0           0
           0           0           0           1           1           1
           1           1           1           1           1           1
           1           1           1           1           1
Nuclear ZEff                               R   N=          23
 -5.60000000E+00 -3.60000000E+00 -3.60000000E+00 -3.60000000E+00 -3.60000000E+00
 -3.60000000E+00 -3.60000000E+00 -3.60000000E+00 -3.60000000E+00 -1.00000000E+00
 -1.00000000E+00 -1.00000000E+00 -1.00000000E+00 -1.00000000E+00 -1.00000000E+00
 -1.00000000E+00 -1.00000000E+00 -1.00000000E+00 -1.00000000E+00 -1.00000000E+00
 -1.00000000E+00 -1.00000000E+00 -1.00000000E+00
Nuclear QMom                               R   N=          23
  0.00000000E+00  0.00000000E+00  0.00000000E+00  0.00000000E+00  0.00000000E+00
  0.00000000E+00  0.00000000E+00  0.00000000E+00  0.00000000E+00  0.00000000E+00
  0.00000000E+00  0.00000000E+00  0.00000000E+00  0.00000000E+00  0.00000000E+00
  0.00000000E+00  0.00000000E+00  0.00000000E+00  0.00000000E+00  0.00000000E+00
  0.00000000E+00  0.00000000E+00  0.00000000E+00
Nuclear GFac                               R   N=          23
  0.00000000E+00  0.00000000E+00  0.00000000E+00  0.00000000E+00  0.00000000E+00
  0.00000000E+00  0.00000000E+00  0.00000000E+00  0.00000000E+00  2.79284600E+00
  2.79284600E+00  2.79284600E+00  2.79284600E+00  2.79284600E+00  2.79284600E+00
  2.79284600E+00  2.79284600E+00  2.79284600E+00  2.79284600E+00  2.79284600E+00
  2.79284600E+00  2.79284600E+00  2.79284600E+00
MicOpt                                     I   N=          23
          -1          -1          -1          -1          -1          -1
          -1          -1          -1          -1          -1          -1
          -1          -1          -1          -1          -1          -1
          -1          -1          -1          -1          -1
Number of contracted shells                I               64
Number of primitive shells                 I              155
Pure/Cartesian d shells                    I                1
Pure/Cartesian f shells                    I                0
Highest angular momentum                   I                2
Largest degree of contraction              I                6
Shell types                                I   N=          64
           0          -1          -1           2           0          -1
          -1           2           0          -1          -1           2
           0          -1          -1           2           0          -1
          -1           2           0          -1          -1           2
           0          -1          -1           2           0          -1
          -1           2           0          -1          -1           2
           0           0           0           0           0           0
           0           0           0           0           0           0
           0           0           0           0           0           0
           0           0           0           0           0           0
           0           0           0           0
Number of primitives per shell             I   N=          64
           6           3           1           1           6           3
           1           1           6           3           1           1
           6           3           1           1           6           3
           1           1           6           3           1           1
           6           3           1           1           6           3
           1           1           6           3           1           1
           3           1           3           1           3           1
           3           1           3           1           3           1
           3           1           3           1           3           1
           3           1           3           1           3           1
           3           1           3           1
Shell to atom map                          I   N=          64
           1           1           1           1           2           2
           2           2           3           3           3           3
           4           4           4           4           5           5
           5           5           6           6           6           6
           7           7           7           7           8           8
           8           8           9           9           9           9
          10          10          11          11          12          12
          13          13          14          14          15          15
          16          16          17          17          18          18
          19          19          20          20          21          21
          22          22          23          23
Primitive exponents                        R   N=         155
  5.48467166E+03  8.25234946E+02  1.88046958E+02  5.29645000E+01  1.68975704E+01
  5.79963534E+00  1.55396162E+01  3.59993359E+00  1.01376175E+00  2.70005823E-01
  8.00000000E-01  3.04752488E+03  4.57369518E+02  1.03948685E+02  2.92101553E+01
  9.28666296E+00  3.16392696E+00  7.86827235E+00  1.88128854E+00  5.44249258E-01
  1.68714478E-01  8.00000000E-01  3.04752488E+03  4.57369518E+02  1.03948685E+02
  2.92101553E+01  9.28666296E+00  3.16392696E+00  7.86827235E+00  1.88128854E+00
  5.44249258E-01  1.68714478E-01  8.00000000E-01  3.04752488E+03  4.57369518E+02
  1.03948685E+02  2.92101553E+01  9.28666296E+00  3.16392696E+00  7.86827235E+00
  1.88128854E+00  5.44249258E-01  1.68714478E-01  8.00000000E-01  3.04752488E+03
  4.57369518E+02  1.03948685E+02  2.92101553E+01  9.28666296E+00  3.16392696E+00
  7.86827235E+00  1.88128854E+00  5.44249258E-01  1.68714478E-01  8.00000000E-01
  3.04752488E+03  4.57369518E+02  1.03948685E+02  2.92101553E+01  9.28666296E+00
  3.16392696E+00  7.86827235E+00  1.88128854E+00  5.44249258E-01  1.68714478E-01
  8.00000000E-01  3.04752488E+03  4.57369518E+02  1.03948685E+02  2.92101553E+01
  9.28666296E+00  3.16392696E+00  7.86827235E+00  1.88128854E+00  5.44249258E-01
  1.68714478E-01  8.00000000E-01  3.04752488E+03  4.57369518E+02  1.03948685E+02
  2.92101553E+01  9.28666296E+00  3.16392696E+00  7.86827235E+00  1.88128854E+00
  5.44249258E-01  1.68714478E-01  8.00000000E-01  3.04752488E+03  4.57369518E+02
  1.03948685E+02  2.92101553E+01  9.28666296E+00  3.16392696E+00  7.86827235E+00
  1.88128854E+00  5.44249258E-01  1.68714478E-01  8.00000000E-01  1.87311370E+01
  2.82539436E+00  6.40121692E-01  1.61277759E-01  1.87311370E+01  2.82539436E+00
  6.40121692E-01  1.61277759E-01  1.87311370E+01  2.82539436E+00  6.40121692E-01
  1.61277759E-01  1.87311370E+01  2.82539436E+00  6.40121692E-01  1.61277759E-01
  1.87311370E+01  2.82539436E+00  6.40121692E-01  1.61277759E-01  1.87311370E+01
  2.82539436E+00  6.40121692E-01  1.61277759E-01  1.87311370E+01  2.82539436E+00
  6.40121692E-01  1.61277759E-01  1.87311370E+01  2.82539436E+00  6.40121692E-01
  1.61277759E-01  1.87311370E+01  2.82539436E+00  6.40121692E-01  1.61277759E-01
  1.87311370E+01  2.82539436E+00  6.40121692E-01  1.61277759E-01  1.87311370E+01
  2.82539436E+00  6.40121692E-01  1.61277759E-01  1.87311370E+01  2.82539436E+00
  6.40121692E-01  1.61277759E-01  1.87311370E+01  2.82539436E+00  6.40121692E-01
  1.61277759E-01  1.87311370E+01  2.82539436E+00  6.40121692E-01  1.61277759E-01
Contraction coefficients                   R   N=         155
  1.83107443E-03  1.39501722E-02  6.84450781E-02  2.32714336E-01  4.70192898E-01
  3.58520853E-01 -1.10777550E-01 -1.48026263E-01  1.13076702E+00  1.00000000E+00
  1.00000000E+00  1.83473713E-03  1.40373228E-02  6.88426223E-02  2.32184443E-01
  4.67941348E-01  3.62311985E-01 -1.19332420E-01 -1.60854152E-01  1.14345644E+00
  1.00000000E+00  1.00000000E+00  1.83473713E-03  1.40373228E-02  6.88426223E-02
  2.32184443E-01  4.67941348E-01  3.62311985E-01 -1.19332420E-01 -1.60854152E-01
  1.14345644E+00  1.00000000E+00  1.00000000E+00  1.83473713E-03  1.40373228E-02
  6.88426223E-02  2.32184443E-01  4.67941348E-01  3.62311985E-01 -1.19332420E-01
 -1.60854152E-01  1.14345644E+00  1.00000000E+00  1.00000000E+00  1.83473713E-03
  1.40373228E-02  6.88426223E-02  2.32184443E-01  4.67941348E-01  3.62311985E-01
 -1.19332420E-01 -1.60854152E-01  1.14345644E+00  1.00000000E+00  1.00000000E+00
  1.83473713E-03  1.40373228E-02  6.88426223E-02  2.32184443E-01  4.67941348E-01
  3.62311985E-01 -1.19332420E-01 -1.60854152E-01  1.14345644E+00  1.00000000E+00
  1.00000000E+00  1.83473713E-03  1.40373228E-02  6.88426223E-02  2.32184443E-01
  4.67941348E-01  3.62311985E-01 -1.19332420E-01 -1.60854152E-01  1.14345644E+00
  1.00000000E+00  1.00000000E+00  1.83473713E-03  1.40373228E-02  6.88426223E-02
  2.32184443E-01  4.67941348E-01  3.62311985E-01 -1.19332420E-01 -1.60854152E-01
  1.14345644E+00  1.00000000E+00  1.00000000E+00  1.83473713E-03  1.40373228E-02
  6.88426223E-02  2.32184443E-01  4.67941348E-01  3.62311985E-01 -1.19332420E-01
 -1.60854152E-01  1.14345644E+00  1.00000000E+00  1.00000000E+00  3.34946043E-02
  2.34726953E-01  8.13757326E-01  1.00000000E+00  3.34946043E-02  2.34726953E-01
  8.13757326E-01  1.00000000E+00  3.34946043E-02  2.34726953E-01  8.13757326E-01
  1.00000000E+00  3.34946043E-02  2.34726953E-01  8.13757326E-01  1.00000000E+00
  3.34946043E-02  2.34726953E-01  8.13757326E-01  1.00000000E+00  3.34946043E-02
  2.34726953E-01  8.13757326E-01  1.00000000E+00  3.34946043E-02  2.34726953E-01
  8.13757326E-01  1.00000000E+00  3.34946043E-02  2.34726953E-01  8.13757326E-01
  1.00000000E+00  3.34946043E-02  2.34726953E-01  8.13757326E-01  1.00000000E+00
  3.34946043E-02  2.34726953E-01  8.13757326E-01  1.00000000E+00  3.34946043E-02
  2.34726953E-01  8.13757326E-01  1.00000000E+00  3.34946043E-02  2.34726953E-01
  8.13757326E-01  1.00000000E+00  3.34946043E-02  2.34726953E-01  8.13757326E-01
  1.00000000E+00  3.34946043E-02  2.34726953E-01  8.13757326E-01  1.00000000E+00
P(S=P) Contraction coefficients            R   N=         155
  0.00000000E+00  0.00000000E+00  0.00000000E+00  0.00000000E+00  0.00000000E+00
  0.00000000E+00  7.08742682E-02  3.39752839E-01  7.27158577E-01  1.00000000E+00
  0.00000000E+00  0.00000000E+00  0.00000000E+00  0.00000000E+00  0.00000000E+00
  0.00000000E+00  0.00000000E+00  6.89990666E-02  3.16423961E-01  7.44308291E-01
  1.00000000E+00  0.00000000E+00  0.00000000E+00  0.00000000E+00  0.00000000E+00
  0.00000000E+00  0.00000000E+00  0.00000000E+00  6.89990666E-02  3.16423961E-01
  7.44308291E-01  1.00000000E+00  0.00000000E+00  0.00000000E+00  0.00000000E+00
  0.00000000E+00  0.00000000E+00  0.00000000E+00  0.00000000E+00  6.89990666E-02
  3.16423961E-01  7.44308291E-01  1.00000000E+00  0.00000000E+00  0.00000000E+00
  0.00000000E+00  0.00000000E+00  0.00000000E+00  0.00000000E+00  0.00000000E+00
  6.89990666E-02  3.16423961E-01  7.44308291E-01  1.00000000E+00  0.00000000E+00
  0.00000000E+00  0.00000000E+00  0.00000000E+00  0.00000000E+00  0.00000000E+00
  0.00000000E+00  6.89990666E-02  3.16423961E-01  7.44308291E-01  1.00000000E+00
  0.00000000E+00  0.00000000E+00  0.00000000E+00  0.00000000E+00  0.00000000E+00
  0.00000000E+00  0.00000000E+00  6.89990666E-02  3.16423961E-01  7.44308291E-01
  1.00000000E+00  0.00000000E+00  0.00000000E+00  0.00000000E+00  0.00000000E+00
  0.00000000E+00  0.00000000E+00  0.00000000E+00  6.89990666E-02  3.16423961E-01
  7.44308291E-01  1.00000000E+00  0.00000000E+00  0.00000000E+00  0.00000000E+00
  0.00000000E+00  0.00000000E+00  0.00000000E+00  0.00000000E+00  6.89990666E-02
  3.16423961E-01  7.44308291E-01  1.00000000E+00  0.00000000E+00  0.00000000E+00
  0.00000000E+00  0.00000000E+00  0.00000000E+00  0.00000000E+00  0.00000000E+00
  0.00000000E+00  0.00000000E+00  0.00000000E+00  0.00000000E+00  0.00000000E+00
  0.00000000E+00  0.00000000E+00  0.00000000E+00  0.00000000E+00  0.00000000E+00
  0.00000000E+00  0.00000000E+00  0.00000000E+00  0.00000000E+00  0.00000000E+00
  0.00000000E+00  0.00000000E+00  0.00000000E+00  0.00000000E+00  0.00000000E+00
  0.00000000E+00  0.00000000E+00  0.00000000E+00  0.00000000E+00  0.00000000E+00
  0.00000000E+00  0.00000000E+00  0.00000000E+00  0.00000000E+00  0.00000000E+00
  0.00000000E+00  0.00000000E+00  0.00000000E+00  0.00000000E+00  0.00000000E+00
  0.00000000E+00  0.00000000E+00  0.00000000E+00  0.00000000E+00  0.00000000E+00
  0.00000000E+00  0.00000000E+00  0.00000000E+00  0.00000000E+00  0.00000000E+00
  0.00000000E+00  0.00000000E+00  0.00000000E+00  0.00000000E+00  0.00000000E+00
Coordinates of each shell                  R   N=         192
 -5.13278098E+00  2.60672520E+00 -2.53904761E-01 -5.13278098E+00  2.60672520E+00
 -2.53904761E-01 -5.13278098E+00  2.60672520E+00 -2.53904761E-01 -5.13278098E+00
  2.60672520E+00 -2.53904761E-01 -5.25955961E+00  1.36316462E-01  8.31851932E-01
 -5.25955961E+00  1.36316462E-01  8.31851932E-01 -5.25955961E+00  1.36316462E-01
  8.31851932E-01 -5.25955961E+00  1.36316462E-01  8.31851932E-01 -2.64165325E+00
 -9.36288178E-01  8.96331218E-01 -2.64165325E+00 -9.36288178E-01  8.96331218E-01
 -2.64165325E+00 -9.36288178E-01  8.96331218E-01 -2.64165325E+00 -9.36288178E-01
  8.96331218E-01  6.62981296E+00 -8.32609457E-01 -7.79200511E-01  6.62981296E+00
 -8.32609457E-01 -7.79200511E-01  6.62981296E+00 -8.32609457E-01 -7.79200511E-01
  6.62981296E+00 -8.32609457E-01 -7.79200511E-01 -7.03733209E+00 -1.55702764E+00
 -6.85154626E-01 -7.03733209E+00 -1.55702764E+00 -6.85154626E-01 -7.03733209E+00
 -1.55702764E+00 -6.85154626E-01 -7.03733209E+00 -1.55702764E+00 -6.85154626E-01
 -5.72717274E-01  2.30398298E-01 -1.26796844E-02 -5.72717274E-01  2.30398298E-01
 -1.26796844E-02 -5.72717274E-01  2.30398298E-01 -1.26796844E-02 -5.72717274E-01
  2.30398298E-01 -1.26796844E-02  4.02186829E+00  2.63508530E-01 -8.58705409E-01
  4.02186829E+00  2.63508530E-01 -8.58705409E-01  4.02186829E+00  2.63508530E-01
 -8.58705409E-01  4.02186829E+00  2.63508530E-01 -8.58705409E-01  1.93619767E+00
 -8.85221127E-01  4.46766362E-02  1.93619767E+00 -8.85221127E-01  4.46766362E-02
  1.93619767E+00 -8.85221127E-01  4.46766362E-02  1.93619767E+00 -8.85221127E-01
  4.46766362E-02  8.42938981E+00  7.61156503E-01  8.34536624E-01  8.42938981E+00
  7.61156503E-01  8.34536624E-01  8.42938981E+00  7.61156503E-01  8.34536624E-01
  8.42938981E+00  7.61156503E-01  8.34536624E-01 -5.96805566E+00  2.66916683E-01
  2.78979617E+00 -5.96805566E+00  2.66916683E-01  2.78979617E+00 -2.47785738E+00
 -2.81571499E+00  1.72857792E+00 -2.47785738E+00 -2.81571499E+00  1.72857792E+00
  6.54215686E+00 -2.76462314E+00 -3.54626158E-02  6.54215686E+00 -2.76462314E+00
 -3.54626158E-02  7.38968915E+00 -9.70008293E-01 -2.70553896E+00  7.38968915E+00
 -9.70008293E-01 -2.70553896E+00 -6.36548066E+00 -1.66521590E+00 -2.63463928E+00
 -6.36548066E+00 -1.66521590E+00 -2.63463928E+00 -7.11035968E+00 -3.46496790E+00
  1.08536719E-01 -7.11035968E+00 -3.46496790E+00  1.08536719E-01 -8.96228359E+00
 -7.92115891E-01 -6.81875561E-01 -8.96228359E+00 -7.92115891E-01 -6.81875561E-01
 -7.70783319E-01  2.10687090E+00 -8.29285002E-01 -7.70783319E-01  2.10687090E+00
 -8.29285002E-01  3.83827315E+00  2.14875290E+00 -1.67869720E+00  3.83827315E+00
  2.14875290E+00 -1.67869720E+00  2.11100001E+00 -2.76830819E+00  8.71107219E-01
  2.11100001E+00 -2.76830819E+00  8.71107219E-01  8.55352680E+00  2.69317869E+00
  1.08487644E-01  8.55352680E+00  2.69317869E+00  1.08487644E-01  1.03350817E+01
 -4.15413335E-02  8.41825698E-01  1.03350817E+01 -4.15413335E-02  8.41825698E-01
  7.75623507E+00  8.57777333E-01  2.78555032E+00  7.75623507E+00  8.57777333E-01
  2.78555032E+00 -6.84493359E+00  3.27379724E+00 -2.67082059E-01 -6.84493359E+00
  3.27379724E+00 -2.67082059E-01
Constraint Structure                       R   N=          69
 -5.13278098E+00  2.60672520E+00 -2.53904761E-01 -5.25955961E+00  1.36316462E-01
  8.31851932E-01 -2.64165325E+00 -9.36288178E-01  8.96331218E-01  6.62981296E+00
 -8.32609457E-01 -7.79200511E-01 -7.03733209E+00 -1.55702764E+00 -6.85154626E-01
 -5.72717274E-01  2.30398298E-01 -1.26796844E-02  4.02186829E+00  2.63508530E-01
 -8.58705409E-01  1.93619767E+00 -8.85221127E-01  4.46766362E-02  8.42938981E+00
  7.61156503E-01  8.34536624E-01 -5.96805566E+00  2.66916683E-01  2.78979617E+00
 -2.47785738E+00 -2.81571499E+00  1.72857792E+00  6.54215686E+00 -2.76462314E+00
 -3.54626158E-02  7.38968915E+00 -9.70008293E-01 -2.70553896E+00 -6.36548066E+00
 -1.66521590E+00 -2.63463928E+00 -7.11035968E+00 -3.46496790E+00  1.08536719E-01
 -8.96228359E+00 -7.92115891E-01 -6.81875561E-01 -7.70783319E-01  2.10687090E+00
 -8.29285002E-01  3.83827315E+00  2.14875290E+00 -1.67869720E+00  2.11100001E+00
 -2.76830819E+00  8.71107219E-01  8.55352680E+00  2.69317869E+00  1.08487644E-01
  1.03350817E+01 -4.15413335E-02  8.41825698E-01  7.75623507E+00  8.57777333E-01
  2.78555032E+00 -6.84493359E+00  3.27379724E+00 -2.67082059E-01
Num ILSW                                   I              100
ILSW                                       I   N=         100
           0           1           0           0           2           0
           0           0           0           0           0          -1
           0           0           0           0           0           0
           0           0           0           0           1           0
           1           0           0           0           0           0
           0           0      100000           0          -1           0
           0           0           0           0           0           0
           0           0           0           1           1           0
           0           0           1           0           0           0
           0           0           4          40           0           0
           0           0           0           0           0           0
           0           0           0           0           0           0
           0           0           0           0           0           0
           0           0           0           0           0           0
           0           0           0           0           0           0
           0           0           0           0           0           0
           0           0           0           0
Num RLSW                                   I               40
RLSW                                       R   N=          40
  1.00000000E+00  1.00000000E+00  1.00000000E+00  1.00000000E+00  1.00000000E+00
  0.00000000E+00  0.00000000E+00  1.00000000E+00  0.00000000E+00  0.00000000E+00
  0.00000000E+00  0.00000000E+00  1.00000000E+00  0.00000000E+00  0.00000000E+00
  0.00000000E+00  0.00000000E+00  1.00000000E+00  0.00000000E+00  0.00000000E+00
  0.00000000E+00  0.00000000E+00  1.00000000E+00  0.00000000E+00  0.00000000E+00
  0.00000000E+00  0.00000000E+00  1.00000000E+00  0.00000000E+00  0.00000000E+00
  0.00000000E+00  0.00000000E+00  0.00000000E+00  0.00000000E+00  0.00000000E+00
  0.00000000E+00  0.00000000E+00  0.00000000E+00  1.00000000E+00  1.00000000E+00
MxBond                                     I                4
NBond                                      I   N=          23
           2           4           3           4           4           3
           3           3           4           1           1           1
           1           1           1           1           1           1
           1           1           1           1           1
IBond                                      I   N=          92
           2          23           0           0           1           3
           5          10           2           6          11           0
           7           9          12          13           2          14
          15          16           3           8          17           0
           4           8          18           0           6           7
          19           0           4          20          21          22
           2           0           0           0           3           0
           0           0           4           0           0           0
           4           0           0           0           5           0
           0           0           5           0           0           0
           5           0           0           0           6           0
           0           0           7           0           0           0
           8           0           0           0           9           0
           0           0           9           0           0           0
           9           0           0           0           1           0
           0           0
RBond                                      R   N=          92
  1.00000000E+00  1.00000000E+00  0.00000000E+00  0.00000000E+00  1.00000000E+00
  1.00000000E+00  1.00000000E+00  1.00000000E+00  1.00000000E+00  2.00000000E+00
  1.00000000E+00  0.00000000E+00  1.00000000E+00  1.00000000E+00  1.00000000E+00
  1.00000000E+00  1.00000000E+00  1.00000000E+00  1.00000000E+00  1.00000000E+00
  2.00000000E+00  1.00000000E+00  1.00000000E+00  0.00000000E+00  1.00000000E+00
  2.00000000E+00  1.00000000E+00  0.00000000E+00  1.00000000E+00  2.00000000E+00
  1.00000000E+00  0.00000000E+00  1.00000000E+00  1.00000000E+00  1.00000000E+00
  1.00000000E+00  1.00000000E+00  0.00000000E+00  0.00000000E+00  0.00000000E+00
  1.00000000E+00  0.00000000E+00  0.00000000E+00  0.00000000E+00  1.00000000E+00
  0.00000000E+00  0.00000000E+00  0.00000000E+00  1.00000000E+00  0.00000000E+00
  0.00000000E+00  0.00000000E+00  1.00000000E+00  0.00000000E+00  0.00000000E+00
  0.00000000E+00  1.00000000E+00  0.00000000E+00  0.00000000E+00  0.00000000E+00
  1.00000000E+00  0.00000000E+00  0.00000000E+00  0.00000000E+00  1.00000000E+00
  0.00000000E+00  0.00000000E+00  0.00000000E+00  1.00000000E+00  0.00000000E+00
  0.00000000E+00  0.00000000E+00  1.00000000E+00  0.00000000E+00  0.00000000E+00
  0.00000000E+00  1.00000000E+00  0.00000000E+00  0.00000000E+00  0.00000000E+00
  1.00000000E+00  0.00000000E+00  0.00000000E+00  0.00000000E+00  1.00000000E+00
  0.00000000E+00  0.00000000E+00  0.00000000E+00  1.00000000E+00  0.00000000E+00
  0.00000000E+00  0.00000000E+00
Virial Ratio                               R      2.001842492957275E+00
SCF Energy                                 R     -3.859134917855683E+02
MP2 Energy                                 R     -3.871241928201187E+02
Total Energy                               R     -3.871241928201187E+02
Post-SCF wavefunction norm                 R      1.678396040575008E+00
RMS Force                                  R      6.730533139617714E-08
RMS Density                                R      1.351145837425379E-09
External E-field                           R   N=          35
  0.00000000E+00  0.00000000E+00  0.00000000E+00  0.00000000E+00  0.00000000E+00
  0.00000000E+00  0.00000000E+00  0.00000000E+00  0.00000000E+00  0.00000000E+00
  0.00000000E+00  0.00000000E+00  0.00000000E+00  0.00000000E+00  0.00000000E+00
  0.00000000E+00  0.00000000E+00  0.00000000E+00  0.00000000E+00  0.00000000E+00
  0.00000000E+00  0.00000000E+00  0.00000000E+00  0.00000000E+00  0.00000000E+00
  0.00000000E+00  0.00000000E+00  0.00000000E+00  0.00000000E+00  0.00000000E+00
  0.00000000E+00  0.00000000E+00  0.00000000E+00  0.00000000E+00  0.00000000E+00
IOpCl                                      I                0
IROHF                                      I                0
Alpha Orbital Energies                     R   N=         163
 -2.05606486E+01 -1.12849742E+01 -1.12252160E+01 -1.12228713E+01 -1.12226694E+01
 -1.12222140E+01 -1.12207640E+01 -1.12200142E+01 -1.12129063E+01 -1.35484712E+00
 -1.09331275E+00 -1.05775259E+00 -1.01330865E+00 -9.59256937E-01 -8.73834282E-01
 -8.25758470E-01 -7.49468711E-01 -7.43956103E-01 -6.90967226E-01 -6.33019886E-01
 -6.24116990E-01 -6.12783670E-01 -5.87192060E-01 -5.79731989E-01 -5.43841428E-01
 -5.41445055E-01 -5.24479963E-01 -5.16102097E-01 -4.97806999E-01 -4.88398082E-01
 -4.77400122E-01 -4.64383358E-01 -4.47048487E-01 -4.12610378E-01 -2.91471808E-01
  1.36509929E-01  2.15922006E-01  2.49972572E-01  2.55518255E-01  2.66382988E-01
  2.81673473E-01  2.96341838E-01  3.01872810E-01  3.03657850E-01  3.17221434E-01
  3.22649741E-01  3.28286038E-01  3.35212607E-01  3.38853504E-01  3.57123886E-01
  3.68917951E-01  4.01135600E-01  4.07727081E-01  4.15781818E-01  4.56588104E-01
  4.92089045E-01  5.49080695E-01  5.74328461E-01  6.32321106E-01  7.12230361E-01
  7.28745964E-01  7.37103210E-01  7.48976827E-01  7.69762169E-01  7.76115791E-01
  7.88464091E-01  8.12112678E-01  8.27295563E-01  8.35289688E-01  8.59990410E-01
  8.75000315E-01  8.93648022E-01  9.06441709E-01  9.28576352E-01  9.39530501E-01