opt=Tight                                                               
Freq      RMP2-FC                                                     6-31G(d)            
Number of atoms                            I               11
Info1-9                                    I   N=           9
          20          20        1002           0           0         100
           6           2           1
Charge                                     I               -1
Multiplicity                               I                1
Number of electrons                        I               48
Number of alpha electrons                  I               24
Number of beta electrons                   I               24
Number of basis functions                  I              100
Number of independent functions            I              100
Number of point charges in /Mol/           I                0
Number of translation vectors              I                0
Atomic numbers                             I   N=          11
           8           8           8           6           6           6
           1           1           1           1           1
Nuclear charges                            R   N=          11
  8.00000000E+00  8.00000000E+00  8.00000000E+00  6.00000000E+00  6.00000000E+00
  6.00000000E+00  1.00000000E+00  1.00000000E+00  1.00000000E+00  1.00000000E+00
  1.00000000E+00
Current cartesian coordinates              R   N=          33
 -2.20754230E+00  2.39681371E+00 -3.65802519E-01  2.81614466E+00 -2.13449081E+00
 -4.24002934E-01  2.46188699E+00  1.98837349E+00  7.79212827E-01 -1.21025443E+00
 -7.66132733E-02 -7.90683517E-01 -2.66315477E+00 -2.02424551E+00  7.46819242E-01
  1.63089992E+00 -9.87595871E-02 -9.29892046E-02 -1.37205251E+00 -5.43555783E-01
 -2.81172686E+00 -2.46802223E+00 -1.60072330E+00  2.76230681E+00 -4.67398208E+00
 -1.98848449E+00  2.66295083E-01 -1.91968293E+00 -3.91630658E+00  3.88325521E-01
 -6.75119509E-01  3.24120923E+00  3.00661330E-01
Force Field                                I                0
Int Atom Types                             I   N=          11
           0           0           0           0           0           0
           0           0           0           0           0
MM charges                                 R   N=          11
  0.00000000E+00  0.00000000E+00  0.00000000E+00  0.00000000E+00  0.00000000E+00
  0.00000000E+00  0.00000000E+00  0.00000000E+00  0.00000000E+00  0.00000000E+00
  0.00000000E+00
Integer atomic weights                     I   N=          11
          16          16          16          12          12          12
           1           1           1           1           1
Real atomic weights                        R   N=          11
  1.59949146E+01  1.59949146E+01  1.59949146E+01  1.20000000E+01  1.20000000E+01
  1.20000000E+01  1.00782504E+00  1.00782504E+00  1.00782504E+00  1.00782504E+00
  1.00782504E+00
Atom fragment info                         I   N=          11
           0           0           0           0           0           0
           0           0           0           0           0
Atom residue num                           I   N=          11
           0           0           0           0           0           0
           0           0           0           0           0
Nuclear spins                              I   N=          11
           0           0           0           0           0           0
           1           1           1           1           1
Nuclear ZEff                               R   N=          11
 -5.60000000E+00 -5.60000000E+00 -5.60000000E+00 -3.60000000E+00 -3.60000000E+00
 -3.60000000E+00 -1.00000000E+00 -1.00000000E+00 -1.00000000E+00 -1.00000000E+00
 -1.00000000E+00
Nuclear QMom                               R   N=          11
  0.00000000E+00  0.00000000E+00  0.00000000E+00  0.00000000E+00  0.00000000E+00
  0.00000000E+00  0.00000000E+00  0.00000000E+00  0.00000000E+00  0.00000000E+00
  0.00000000E+00
Nuclear GFac                               R   N=          11
  0.00000000E+00  0.00000000E+00  0.00000000E+00  0.00000000E+00  0.00000000E+00
  0.00000000E+00  2.79284600E+00  2.79284600E+00  2.79284600E+00  2.79284600E+00
  2.79284600E+00
MicOpt                                     I   N=          11
          -1          -1          -1          -1          -1          -1
          -1          -1          -1          -1          -1
Number of contracted shells                I               34
Number of primitive shells                 I               86
Pure/Cartesian d shells                    I                1
Pure/Cartesian f shells                    I                0
Highest angular momentum                   I                2
Largest degree of contraction              I                6
Shell types                                I   N=          34
           0          -1          -1           2           0          -1
          -1           2           0          -1          -1           2
           0          -1          -1           2           0          -1
          -1           2           0          -1          -1           2
           0           0           0           0           0           0
           0           0           0           0
Number of primitives per shell             I   N=          34
           6           3           1           1           6           3
           1           1           6           3           1           1
           6           3           1           1           6           3
           1           1           6           3           1           1
           3           1           3           1           3           1
           3           1           3           1
Shell to atom map                          I   N=          34
           1           1           1           1           2           2
           2           2           3           3           3           3
           4           4           4           4           5           5
           5           5           6           6           6           6
           7           7           8           8           9           9
          10          10          11          11
Primitive exponents                        R   N=          86
  5.48467166E+03  8.25234946E+02  1.88046958E+02  5.29645000E+01  1.68975704E+01
  5.79963534E+00  1.55396162E+01  3.59993359E+00  1.01376175E+00  2.70005823E-01
  8.00000000E-01  5.48467166E+03  8.25234946E+02  1.88046958E+02  5.29645000E+01
  1.68975704E+01  5.79963534E+00  1.55396162E+01  3.59993359E+00  1.01376175E+00
  2.70005823E-01  8.00000000E-01  5.48467166E+03  8.25234946E+02  1.88046958E+02
  5.29645000E+01  1.68975704E+01  5.79963534E+00  1.55396162E+01  3.59993359E+00
  1.01376175E+00  2.70005823E-01  8.00000000E-01  3.04752488E+03  4.57369518E+02
  1.03948685E+02  2.92101553E+01  9.28666296E+00  3.16392696E+00  7.86827235E+00
  1.88128854E+00  5.44249258E-01  1.68714478E-01  8.00000000E-01  3.04752488E+03
  4.57369518E+02  1.03948685E+02  2.92101553E+01  9.28666296E+00  3.16392696E+00
  7.86827235E+00  1.88128854E+00  5.44249258E-01  1.68714478E-01  8.00000000E-01
  3.04752488E+03  4.57369518E+02  1.03948685E+02  2.92101553E+01  9.28666296E+00
  3.16392696E+00  7.86827235E+00  1.88128854E+00  5.44249258E-01  1.68714478E-01
  8.00000000E-01  1.87311370E+01  2.82539436E+00  6.40121692E-01  1.61277759E-01
  1.87311370E+01  2.82539436E+00  6.40121692E-01  1.61277759E-01  1.87311370E+01
  2.82539436E+00  6.40121692E-01  1.61277759E-01  1.87311370E+01  2.82539436E+00
  6.40121692E-01  1.61277759E-01  1.87311370E+01  2.82539436E+00  6.40121692E-01
  1.61277759E-01
Contraction coefficients                   R   N=          86
  1.83107443E-03  1.39501722E-02  6.84450781E-02  2.32714336E-01  4.70192898E-01
  3.58520853E-01 -1.10777550E-01 -1.48026263E-01  1.13076702E+00  1.00000000E+00
  1.00000000E+00  1.83107443E-03  1.39501722E-02  6.84450781E-02  2.32714336E-01
  4.70192898E-01  3.58520853E-01 -1.10777550E-01 -1.48026263E-01  1.13076702E+00
  1.00000000E+00  1.00000000E+00  1.83107443E-03  1.39501722E-02  6.84450781E-02
  2.32714336E-01  4.70192898E-01  3.58520853E-01 -1.10777550E-01 -1.48026263E-01
  1.13076702E+00  1.00000000E+00  1.00000000E+00  1.83473713E-03  1.40373228E-02
  6.88426223E-02  2.32184443E-01  4.67941348E-01  3.62311985E-01 -1.19332420E-01
 -1.60854152E-01  1.14345644E+00  1.00000000E+00  1.00000000E+00  1.83473713E-03
  1.40373228E-02  6.88426223E-02  2.32184443E-01  4.67941348E-01  3.62311985E-01
 -1.19332420E-01 -1.60854152E-01  1.14345644E+00  1.00000000E+00  1.00000000E+00
  1.83473713E-03  1.40373228E-02  6.88426223E-02  2.32184443E-01  4.67941348E-01
  3.62311985E-01 -1.19332420E-01 -1.60854152E-01  1.14345644E+00  1.00000000E+00
  1.00000000E+00  3.34946043E-02  2.34726953E-01  8.13757326E-01  1.00000000E+00
  3.34946043E-02  2.34726953E-01  8.13757326E-01  1.00000000E+00  3.34946043E-02
  2.34726953E-01  8.13757326E-01  1.00000000E+00  3.34946043E-02  2.34726953E-01
  8.13757326E-01  1.00000000E+00  3.34946043E-02  2.34726953E-01  8.13757326E-01
  1.00000000E+00
P(S=P) Contraction coefficients            R   N=          86
  0.00000000E+00  0.00000000E+00  0.00000000E+00  0.00000000E+00  0.00000000E+00
  0.00000000E+00  7.08742682E-02  3.39752839E-01  7.27158577E-01  1.00000000E+00
  0.00000000E+00  0.00000000E+00  0.00000000E+00  0.00000000E+00  0.00000000E+00
  0.00000000E+00  0.00000000E+00  7.08742682E-02  3.39752839E-01  7.27158577E-01
  1.00000000E+00  0.00000000E+00  0.00000000E+00  0.00000000E+00  0.00000000E+00
  0.00000000E+00  0.00000000E+00  0.00000000E+00  7.08742682E-02  3.39752839E-01
  7.27158577E-01  1.00000000E+00  0.00000000E+00  0.00000000E+00  0.00000000E+00
  0.00000000E+00  0.00000000E+00  0.00000000E+00  0.00000000E+00  6.89990666E-02
  3.16423961E-01  7.44308291E-01  1.00000000E+00  0.00000000E+00  0.00000000E+00
  0.00000000E+00  0.00000000E+00  0.00000000E+00  0.00000000E+00  0.00000000E+00
  6.89990666E-02  3.16423961E-01  7.44308291E-01  1.00000000E+00  0.00000000E+00
  0.00000000E+00  0.00000000E+00  0.00000000E+00  0.00000000E+00  0.00000000E+00
  0.00000000E+00  6.89990666E-02  3.16423961E-01  7.44308291E-01  1.00000000E+00
  0.00000000E+00  0.00000000E+00  0.00000000E+00  0.00000000E+00  0.00000000E+00
  0.00000000E+00  0.00000000E+00  0.00000000E+00  0.00000000E+00  0.00000000E+00
  0.00000000E+00  0.00000000E+00  0.00000000E+00  0.00000000E+00  0.00000000E+00
  0.00000000E+00  0.00000000E+00  0.00000000E+00  0.00000000E+00  0.00000000E+00
  0.00000000E+00
Coordinates of each shell                  R   N=         102
 -2.20754230E+00  2.39681371E+00 -3.65802519E-01 -2.20754230E+00  2.39681371E+00
 -3.65802519E-01 -2.20754230E+00  2.39681371E+00 -3.65802519E-01 -2.20754230E+00
  2.39681371E+00 -3.65802519E-01  2.81614466E+00 -2.13449081E+00 -4.24002934E-01
  2.81614466E+00 -2.13449081E+00 -4.24002934E-01  2.81614466E+00 -2.13449081E+00
 -4.24002934E-01  2.81614466E+00 -2.13449081E+00 -4.24002934E-01  2.46188699E+00
  1.98837349E+00  7.79212827E-01  2.46188699E+00  1.98837349E+00  7.79212827E-01
  2.46188699E+00  1.98837349E+00  7.79212827E-01  2.46188699E+00  1.98837349E+00
  7.79212827E-01 -1.21025443E+00 -7.66132733E-02 -7.90683517E-01 -1.21025443E+00
 -7.66132733E-02 -7.90683517E-01 -1.21025443E+00 -7.66132733E-02 -7.90683517E-01
 -1.21025443E+00 -7.66132733E-02 -7.90683517E-01 -2.66315477E+00 -2.02424551E+00
  7.46819242E-01 -2.66315477E+00 -2.02424551E+00  7.46819242E-01 -2.66315477E+00
 -2.02424551E+00  7.46819242E-01 -2.66315477E+00 -2.02424551E+00  7.46819242E-01
  1.63089992E+00 -9.87595871E-02 -9.29892046E-02  1.63089992E+00 -9.87595871E-02
 -9.29892046E-02  1.63089992E+00 -9.87595871E-02 -9.29892046E-02  1.63089992E+00
 -9.87595871E-02 -9.29892046E-02 -1.37205251E+00 -5.43555783E-01 -2.81172686E+00
 -1.37205251E+00 -5.43555783E-01 -2.81172686E+00 -2.46802223E+00 -1.60072330E+00
  2.76230681E+00 -2.46802223E+00 -1.60072330E+00  2.76230681E+00 -4.67398208E+00
 -1.98848449E+00  2.66295083E-01 -4.67398208E+00 -1.98848449E+00  2.66295083E-01
 -1.91968293E+00 -3.91630658E+00  3.88325521E-01 -1.91968293E+00 -3.91630658E+00
  3.88325521E-01 -6.75119509E-01  3.24120923E+00  3.00661330E-01 -6.75119509E-01
  3.24120923E+00  3.00661330E-01
Constraint Structure                       R   N=          33
 -2.20754230E+00  2.39681371E+00 -3.65802519E-01  2.81614466E+00 -2.13449081E+00
 -4.24002934E-01  2.46188699E+00  1.98837349E+00  7.79212827E-01 -1.21025443E+00
 -7.66132733E-02 -7.90683517E-01 -2.66315477E+00 -2.02424551E+00  7.46819242E-01
  1.63089992E+00 -9.87595871E-02 -9.29892046E-02 -1.37205251E+00 -5.43555783E-01
 -2.81172686E+00 -2.46802223E+00 -1.60072330E+00  2.76230681E+00 -4.67398208E+00
 -1.98848449E+00  2.66295083E-01 -1.91968293E+00 -3.91630658E+00  3.88325521E-01
 -6.75119509E-01  3.24120923E+00  3.00661330E-01
Num ILSW                                   I              100
ILSW                                       I   N=         100
           0           1           0           0           2           0
           0           0           0           0           0          -1
           0           0           0           0           0           0
           0           0           0           0           1           0
           1           0           0           0           0           0
           0           0      100000           0          -1           0
           0           0           0           0           0           0
           0           0           0           1           1           0
           0           0           1           0           0           0
           0           0           4          40           0           0
           0           0           0           0           0           0
           0           0           0           0           0           0
           0           0           0           0           0           0
           0           0           0           0           0           0
           0           0           0           0           0           0
           0           0           0           0           0           0
           0           0           0           0
Num RLSW                                   I               40
RLSW                                       R   N=          40
  1.00000000E+00  1.00000000E+00  1.00000000E+00  1.00000000E+00  1.00000000E+00
  0.00000000E+00  0.00000000E+00  1.00000000E+00  0.00000000E+00  0.00000000E+00
  0.00000000E+00  0.00000000E+00  1.00000000E+00  0.00000000E+00  0.00000000E+00
  0.00000000E+00  0.00000000E+00  1.00000000E+00  0.00000000E+00  0.00000000E+00
  0.00000000E+00  0.00000000E+00  1.00000000E+00  0.00000000E+00  0.00000000E+00
  0.00000000E+00  0.00000000E+00  1.00000000E+00  0.00000000E+00  0.00000000E+00
  0.00000000E+00  0.00000000E+00  0.00000000E+00  0.00000000E+00  0.00000000E+00
  0.00000000E+00  0.00000000E+00  0.00000000E+00  1.00000000E+00  1.00000000E+00
MxBond                                     I                4
NBond                                      I   N=          11
           2           1           1           4           4           3
           1           1           1           1           1
IBond                                      I   N=          44
           4          11           0           0           6           0
           0           0           6           0           0           0
           1           5           6           7           4           8
           9          10           2           3           4           0
           4           0           0           0           5           0
           0           0           5           0           0           0
           5           0           0           0           1           0
           0           0
RBond                                      R   N=          44
  1.00000000E+00  1.00000000E+00  0.00000000E+00  0.00000000E+00  2.00000000E+00
  0.00000000E+00  0.00000000E+00  0.00000000E+00  2.00000000E+00  0.00000000E+00
  0.00000000E+00  0.00000000E+00  1.00000000E+00  1.00000000E+00  1.00000000E+00
  1.00000000E+00  1.00000000E+00  1.00000000E+00  1.00000000E+00  1.00000000E+00
  2.00000000E+00  2.00000000E+00  1.00000000E+00  0.00000000E+00  1.00000000E+00
  0.00000000E+00  0.00000000E+00  0.00000000E+00  1.00000000E+00  0.00000000E+00
  0.00000000E+00  0.00000000E+00  1.00000000E+00  0.00000000E+00  0.00000000E+00
  0.00000000E+00  1.00000000E+00  0.00000000E+00  0.00000000E+00  0.00000000E+00
  1.00000000E+00  0.00000000E+00  0.00000000E+00  0.00000000E+00
Virial Ratio                               R      2.002785629945179E+00
SCF Energy                                 R     -3.412267015022446E+02
MP2 Energy                                 R     -3.421549097802956E+02
Total Energy                               R     -3.421549097802956E+02
Post-SCF wavefunction norm                 R      1.598226999954504E+00
RMS Force                                  R      5.936774064710471E-06
RMS Density                                R      2.135372213584287E-09
External E-field                           R   N=          35
  0.00000000E+00  0.00000000E+00  0.00000000E+00  0.00000000E+00  0.00000000E+00
  0.00000000E+00  0.00000000E+00  0.00000000E+00  0.00000000E+00  0.00000000E+00
  0.00000000E+00  0.00000000E+00  0.00000000E+00  0.00000000E+00  0.00000000E+00
  0.00000000E+00  0.00000000E+00  0.00000000E+00  0.00000000E+00  0.00000000E+00
  0.00000000E+00  0.00000000E+00  0.00000000E+00  0.00000000E+00  0.00000000E+00
  0.00000000E+00  0.00000000E+00  0.00000000E+00  0.00000000E+00  0.00000000E+00
  0.00000000E+00  0.00000000E+00  0.00000000E+00  0.00000000E+00  0.00000000E+00
IOpCl                                      I                0
IROHF                                      I                0
Alpha Orbital Energies                     R   N=         100
 -2.05325446E+01 -2.04853615E+01 -2.04777169E+01 -1.13176487E+01 -1.12592219E+01
 -1.12062756E+01 -1.35926996E+00 -1.31666807E+00 -1.24460352E+00 -1.00113870E+00
 -8.43947658E-01 -7.16043864E-01 -6.54011080E-01 -6.23914961E-01 -5.88557181E-01
 -5.52986391E-01 -5.43422409E-01 -5.20412323E-01 -5.11503305E-01 -5.02275431E-01
 -4.20962962E-01 -3.92823162E-01 -3.76950679E-01 -3.72461469E-01  2.34832439E-01
  2.82367517E-01  3.07160075E-01  3.26944772E-01  3.37390349E-01  3.47640800E-01
  4.26429858E-01  4.40911356E-01  4.93430387E-01  5.48855545E-01  6.47397762E-01
  7.71063067E-01  7.79883123E-01  8.10110372E-01  8.63034540E-01  8.75026181E-01
  8.95719909E-01  9.61393269E-01  9.85295186E-01  1.00200165E+00  1.04687283E+00
  1.08332871E+00  1.13853501E+00  1.15354275E+00  1.15935401E+00  1.18527449E+00
  1.23048095E+00  1.24930111E+00  1.28395847E+00  1.29211547E+00  1.32582256E+00
  1.36354667E+00  1.42362522E+00  1.42458455E+00  1.45806441E+00  1.56868364E+00
  1.60472092E+00  1.64843540E+00  1.76571298E+00  1.80742569E+00  1.84520652E+00
  1.93860922E+00  2.00223287E+00  2.04898099E+00  2.11999825E+00  2.12416582E+00
  2.14214361E+00  2.17985627E+00  2.19090310E+00  2.22394976E+00  2.26485765E+00
  2.30647954E+00  2.32830469E+00  2.38606149E+00  2.45049658E+00  2.48817201E+00
  2.54644602E+00  2.56826505E+00  2.67308726E+00  2.72627071E+00  2.81047352E+00
  2.88772261E+00  2.92169957E+00  2.98038308E+00  3.10656631E+00  3.15506810E+00
  3.26460857E+00  3.29892603E+00  3.40510983E+00  3.54048318E+00  4.22812446E+00
  4.38839100E+00  4.59809776E+00  4.74434685E+00  4.76435971E+00  5.03433272E+00
Alpha MO coefficients                      R   N=       10000
  9.94659725E-01  2.11812979E-02  1.07855438E-03 -4.48541007E-04  1.66045735E-04
  3.83664665E-03 -5.59826016E-04  3.01311453E-04 -7.70870198E-05 -4.03877196E-03
 -4.16553815E-03 -3.87525407E-03  4.96444373E-05 -5.57410091E-05 -9.44872549E-05
  7.88762442E-06 -5.94327079E-05  1.71178355E-06  6.24551220E-06 -1.88900668E-07
  4.02832997E-04 -1.14026076E-04  9.40016947E-05  1.19076940E-05 -3.86753090E-05
 -2.04345374E-05 -4.06373571E-05 -2.27763854E-05 -6.72560744E-06  2.82224509E-06
 -1.25989943E-04  1.44595981E-05  1.49179779E-05 -1.09435202E-05  9.97188695E-07
 -1.17002376E-04 -1.03756531E-05  5.52483558E-05  1.81567513E-05 -1.89626824E-05
  5.34058294E-06 -5.33524014E-07  2.07512179E-06 -3.04087549E-06  9.18741122E-07
 -3.34102638E-05  1.55524081E-04 -1.57275585E-04  3.34308300E-04  4.39257087E-05
  6.00708633E-04  3.25937147E-04 -7.43982526E-05  2.33830270E-04 -2.03693939E-05
  4.18295692E-05 -7.47151155E-05 -4.09951831E-05 -8.77980061E-06  1.88473153E-05
  2.14009244E-06  5.37493814E-05 -1.79958763E-05 -1.06875889E-05  1.41267487E-05
 -1.43843678E-04 -5.22226220E-05 -1.89642430E-04 -3.48195827E-05 -1.38185403E-05
 -5.55516805E-05 -7.16693293E-06 -2.19070766E-05 -2.37210568E-06  7.68593981E-06
 -2.12812525E-06  4.16627146E-05  3.24726995E-05 -2.22268744E-06  6.75154863E-06
 -4.70330477E-04  1.73530027E-04  3.18773183E-04  1.07417178E-04 -6.73575254E-05
 -3.85287077E-05 -1.13941935E-05  3.78831550E-05  1.54160667E-06  1.33367968E-07
 -1.62538582E-05  1.05859113E-06  2.26570639E-05  3.04820671E-05  2.83358334E-05
 -4.23853263E-05 -2.84290280E-06 -7.39048853E-05  4.03208303E-04 -3.41338451E-04
  1.20635269E-04 -1.65833586E-05 -1.40070341E-05 -1.35965124E-05 -7.38681631E-06
  1.37872882E-04  4.00658981E-05  1.15558310E-04  3.96117388E-05 -4.03899857E-05
 -3.39034433E-05 -2.28130174E-05  1.63488452E-05 -1.78692412E-06  1.89429866E-06
 -2.04021989E-03 -9.12453252E-05 -2.58207126E-05 -1.34309534E-05 -1.18229342E-05
  3.01964026E-04 -1.05461464E-04  1.16634141E-04  1.11794059E-05  5.30505947E-05
 -6.06966190E-05 -6.74460428E-05 -9.29023589E-05  4.80059350E-06 -2.40105177E-05
  9.94678491E-01  2.09695820E-02 -4.96333066E-04 -1.05377222E-03 -4.62326202E-04
  4.28748989E-03  4.65583874E-05  1.74467527E-04  6.35831616E-05 -3.90477400E-03
 -3.87893393E-03 -4.02472991E-03  2.32052635E-05  5.30346449E-05  7.00944561E-05
 -5.55976553E-06  9.51754982E-07 -3.82493693E-05 -1.31275952E-05 -1.47963054E-05
  1.01325697E-04 -9.84744850E-05  3.50298629E-05  2.26154317E-05 -4.78383280E-05
 -6.22553702E-06 -3.22425153E-05 -4.94648073E-05 -2.24144300E-05 -8.44584112E-06
  2.80328448E-06  8.79566417E-06  9.29701890E-06  2.06532672E-06  2.26763144E-07
 -8.01852226E-05 -4.91923667E-05 -4.01002611E-05  4.67158206E-06  5.16629513E-06
  4.47685622E-06  7.79296847E-06  7.63241240E-08  1.33401989E-06 -1.62066440E-06
 -8.58829014E-06  4.96940470E-04  5.26283264E-05  1.58423789E-04  6.13300330E-05
 -3.66014670E-04 -2.43600917E-04 -1.07965735E-04 -9.54155686E-05 -9.00606937E-05
 -4.70972215E-04 -1.21959749E-04 -1.26447811E-04 -4.78048828E-05 -1.81749117E-04
  5.74789398E-06 -2.78078925E-05  7.87878877E-06  1.27484405E-05 -9.01512186E-07
 -2.30143809E-05  9.91880166E-06 -1.14964411E-05 -2.30435908E-05 -2.71672655E-04
 -1.74879438E-05  2.37033358E-05  4.67070319E-06 -5.72956600E-06 -7.03564998E-08
 -1.29272551E-04 -2.68940563E-05  5.91045869E-05  1.02585968E-06  7.79383879E-07
  1.94013755E-05  1.61823080E-05  1.53847646E-05 -2.55422389E-06  6.85333003E-06
  9.94687950E-01  2.10169816E-02 -6.55129508E-04  1.13821071E-03  1.82153577E-04
  4.15030771E-03  9.32114324E-05 -1.27468609E-04 -8.52002084E-06 -3.85630749E-03
 -3.80167413E-03 -4.01563196E-03 -8.74898244E-05  2.55936314E-05  6.21012540E-05
  2.01749061E-03 -1.57320393E-05 -2.56695636E-05  8.50669886E-06 -2.11127020E-06
  3.50746290E-04 -9.22891703E-05 -1.11097893E-04 -6.55207980E-05  5.53218061E-06
 -7.96397548E-05 -6.51779484E-05  9.49908473E-05  5.90779828E-05  2.79403962E-05
 -4.61538384E-06 -1.46086792E-07 -3.31015567E-05  1.55410025E-05 -4.57724058E-06
  1.15658347E-04 -9.78401692E-05  7.75360866E-05  8.15363395E-05 -5.18773797E-05
 -5.10774871E-06 -2.07757399E-05  4.64307665E-05  1.98572972E-06  1.17911993E-05
  4.22621680E-06  1.39061013E-05  1.75962038E-05  7.05662073E-06  7.23370843E-06
 -5.71926889E-05 -8.87941157E-05 -1.07297866E-04 -2.93235468E-05  1.11262121E-05
 -3.02061663E-07  5.42302089E-06 -5.66074871E-06  3.19622124E-06  3.73403087E-06
 -7.60141096E-06  5.10149013E-04  5.30080960E-05 -1.11474887E-04 -2.60526652E-05
 -3.78414951E-04 -2.61372252E-04  6.98374892E-05 -4.24376884E-05 -1.73086475E-04
 -5.19783324E-04 -7.32123119E-05  2.62354932E-04  4.87472568E-05 -9.97229231E-05
  1.78037852E-05 -1.47787662E-05  1.32239137E-05  3.68713052E-05 -6.69402344E-06
 -4.89210284E-05  2.70556087E-05 -1.02142868E-04 -1.13866830E-05 -4.52922755E-05
 -2.58581457E-05 -1.66863382E-04 -5.07614468E-05  5.37928597E-05 -9.90868882E-06
  3.67569965E-04  6.77017360E-05 -2.78997212E-04  3.69500774E-05  5.37960692E-06
 -5.46729154E-05 -1.65752470E-04 -6.94789545E-05  4.63367395E-05  4.13138406E-06
 -2.28354025E-04  4.52166916E-04 -1.60401064E-05  1.82472771E-04  6.17522397E-05
 -1.70887860E-03  1.42652610E-04 -1.59522015E-03 -4.55810797E-04  9.50466916E-05
 -2.44822596E-04  3.12143772E-04  2.13416884E-04 -3.39989733E-06 -1.46023116E-04
 -1.88301130E-04  5.15567415E-04  1.56794366E-05 -1.56281131E-04 -6.43004848E-05
 -1.92285855E-03 -3.28876028E-05  1.56223987E-03  5.71480936E-04  1.72470490E-04
 -2.46964050E-04  2.97951751E-04 -1.39135570E-04 -1.26939983E-04 -2.90092187E-04
  4.63616062E-03  3.47568899E-04  2.64330857E-05 -5.00663006E-05 -8.53551029E-06
  2.66095124E-03  2.09970781E-03  2.68648290E-04 -4.22934494E-05 -4.71383783E-04
 -2.45955528E-04 -1.50430285E-04 -8.04091700E-06 -8.23540966E-05  2.68714309E-05
 -9.75500191E-05 -3.28085485E-04 -1.73385627E-04 -2.44273499E-05 -1.30445248E-05
  1.14525108E-03  1.02612679E-03  3.52985834E-04 -8.93810936E-05 -3.17574078E-05
 -6.16716903E-05 -7.92927952E-05  5.21257705E-05 -1.93149991E-05 -4.10580939E-05
  9.95926905E-01  2.59243881E-02  3.24226537E-04  5.10262570E-05  1.50322585E-04
 -6.23657521E-03  3.83982813E-03  1.20671038E-04  8.91284791E-04 -1.34753635E-03
 -4.15039092E-04 -2.00235058E-03 -2.02449121E-04  1.73043887E-04  6.01946658E-04
 -1.75088173E-04  1.94031661E-04 -1.67963041E-04 -7.52515509E-06  1.71407594E-05
  5.34083528E-04 -1.13637036E-04 -1.47358056E-04  4.17971627E-05  2.04080432E-04
 -1.93767752E-04 -1.08911933E-04  7.37009387E-05 -9.96647326E-05 -2.04918235E-05
  3.10557285E-03  6.99588569E-05 -5.56354164E-04  6.59307597E-05 -2.60434875E-04
 -7.61918416E-04 -8.84625581E-05  2.74605279E-04  7.45636941E-05 -1.84094215E-04
 -9.34209689E-05 -4.89646283E-04  5.19982257E-05 -5.09072472E-05  2.31038301E-05
  2.28634303E-03 -1.96223520E-04  7.13493734E-04  7.14589712E-05 -2.09734842E-04
 -1.69351790E-04 -3.92920107E-04 -6.13698074E-05  4.51298280E-05  6.52586812E-05
 -2.33446072E-05 -1.79343826E-04  3.40044178E-05  6.00762179E-05  1.69726516E-05
  3.09174260E-05  2.66379587E-04 -2.79413066E-04 -1.99373199E-05 -2.23295008E-05
 -1.44252750E-05 -1.91604868E-04 -8.01070134E-06  3.28144917E-05  8.18330068E-05
  9.96003390E-01  2.79948601E-02 -2.53004178E-04  5.61373304E-04  2.52584627E-04
 -1.85204910E-02 -6.00535129E-04  3.18921491E-04 -1.73797918E-03 -1.33656458E-03
 -1.22585343E-03 -1.24705553E-03 -5.70353274E-05  1.29384954E-06  3.68025951E-05
  5.65287210E-03  7.65178829E-05  9.62122693E-05  5.00239413E-05 -6.72103761E-05
  4.99835092E-03  1.22383979E-03  1.92016058E-03 -8.99183381E-04 -1.99842530E-04
 -2.65002421E-04 -2.55302046E-04 -7.26149923E-05  9.91121964E-05  1.74316849E-04
 -4.94839711E-03 -2.03156119E-04 -2.42944674E-04 -9.48828436E-06 -3.71904287E-05
  3.86173753E-03 -3.19779790E-03  1.19130897E-03 -1.63370699E-04 -4.12918160E-04
 -2.57032763E-04 -2.13516612E-04  7.23347031E-05 -1.00249999E-04  3.05266816E-06
  2.09360343E-04  2.50249364E-03 -2.38152888E-04 -1.04439727E-04 -1.85159378E-04
 -4.47769719E-06 -1.38931591E-04  1.58313925E-04 -4.31004262E-06  2.20915455E-04
 -4.33658914E-05 -2.50149544E-04 -4.95734317E-06  8.56436101E-05 -3.42581190E-05
  7.44747237E-04  1.24279011E-04 -3.12570829E-04  6.82789130E-05 -1.69669088E-04
 -3.51284015E-05 -1.89852307E-04  5.77789868E-06 -7.07240394E-05 -6.16558316E-05
  1.11892281E-05  6.32210705E-05  1.67824047E-06 -4.05184706E-07 -2.77761246E-05
 -4.56909244E-04  2.35574059E-04 -8.70587741E-06  5.10818462E-05 -3.15684907E-06
  6.88067244E-05  3.16262122E-06  1.36361815E-05 -1.58092437E-05  7.82737572E-06
  1.11784262E-05  4.76375010E-05 -4.29894928E-05 -1.85786600E-05  2.12762476E-05
 -1.59373105E-04  2.16121232E-04  7.30849626E-05 -8.88988989E-05  1.64719682E-05
  4.80777348E-05  5.24414747E-05 -3.63215205E-05  6.11940084E-06  6.47693326E-06
 -5.94636175E-03  1.16944854E-04 -4.00382244E-05 -9.98275409E-05  1.58729541E-05
  2.24704291E-03 -1.29261714E-03 -1.26366372E-03  5.70400336E-04 -2.60135117E-04
 -3.02635190E-04 -1.84655222E-04 -9.22182104E-05  1.17605266E-04  1.38495584E-04
  9.95724911E-01  2.85031162E-02  8.88498026E-05  8.46205962E-05 -1.16613345E-05
 -1.48863582E-02 -5.02660594E-04 -4.90171338E-04  2.54861310E-04 -1.82121940E-03
 -1.81097630E-03 -1.84667250E-03 -1.26282280E-05  1.22600447E-05  2.27566263E-05
  7.73381583E-06 -3.11168051E-04  9.83684961E-05  5.77251523E-05  7.33403489E-06
  1.54566873E-03 -8.13147401E-04 -3.31664625E-04 -6.47345244E-05 -2.75355094E-05
 -5.39211488E-05 -1.30739140E-04  2.57391967E-05 -1.80737180E-05 -2.18363255E-05
 -1.02015481E-04 -2.01994655E-05  1.62846006E-04  2.60840755E-03  1.11555101E-04
  2.40925148E-03  1.25448685E-04  2.55527907E-03 -3.19226063E-05  5.64729995E-05
 -1.11631004E-01  2.48730978E-01  5.04063897E-02 -2.49274336E-02  7.43370952E-03
  2.39888612E-01  2.87204894E-02 -1.18933719E-02  4.86270471E-03  1.09237642E-02
  8.36734283E-03  4.92208402E-04  8.18484910E-05  3.98499900E-03  3.03540376E-03
 -9.41613612E-02  2.06818070E-01 -3.23770665E-02  6.11921942E-02  1.08959693E-02
  1.90392048E-01 -8.27561718E-03  2.63879545E-02  6.04023341E-03  3.78541858E-04
  8.52463909E-03  1.45753916E-04 -4.94744509E-03 -1.43001035E-03  1.81936368E-03
 -1.14287788E-01  2.49179989E-01 -3.29529115E-02 -6.58369220E-02 -2.92159477E-02