
    -----------------------------------------------------------------------
          Psi4: An Open-Source Ab Initio Electronic Structure Package
                               Psi4 1.3.2 release

                         Git: Rev {HEAD} ecbda83 


    R. M. Parrish, L. A. Burns, D. G. A. Smith, A. C. Simmonett,
    A. E. DePrince III, E. G. Hohenstein, U. Bozkaya, A. Yu. Sokolov,
    R. Di Remigio, R. M. Richard, J. F. Gonthier, A. M. James,
    H. R. McAlexander, A. Kumar, M. Saitow, X. Wang, B. P. Pritchard,
    P. Verma, H. F. Schaefer III, K. Patkowski, R. A. King, E. F. Valeev,
    F. A. Evangelista, J. M. Turney, T. D. Crawford, and C. D. Sherrill,
    J. Chem. Theory Comput. 13(7) pp 3185--3197 (2017).
    (doi: 10.1021/acs.jctc.7b00174)


                         Additional Contributions by
    P. Kraus, H. Kruse, M. H. Lechner, M. C. Schieber, R. A. Shaw,
    A. Alenaizan, R. Galvelis, Z. L. Glick, S. Lehtola, and J. P. Misiewicz

    -----------------------------------------------------------------------


    Psi4 started on: Friday, 06 November 2020 10:36AM

    Process ID: 40040
    Host:       node142.bme.utexas.edu
    PSIDATADIR: /home/xy3866/psi4conda/share/psi4
    Memory:     500.0 MiB
    Threads:    8
    
  ==> Input File <==

--------------------------------------------------------------------------
#psi4
#
memory 32 gb

molecule  {
0 1
  O       -2.2580520    -1.6446380    -0.1299340
  O       -2.1922020    -0.0289620     1.4584460
  O        2.5996615    -1.2470343    -0.5440569
  N       -1.4644620     1.9009220    -0.4829880
  N        3.3512580     0.4763250     0.7206820
  C        0.0919590     0.0544950    -0.9741750
  C       -1.3719240     0.4734550    -0.7783870
  C        0.9633170     0.3705390     0.2368360
  C       -1.9915820    -0.3883620     0.3080910
  C        2.3594900    -0.2078000     0.0693900
  H        0.1535850    -1.0146500    -1.1939440
  H        0.4725780     0.5964070    -1.8456160
  H       -1.9082720     0.2705620    -1.7119190
  H        1.0131360     1.4533500     0.3956850
  H        0.5381800    -0.0660200     1.1504670
  H       -1.3038060     2.0229320     0.5177520
  H       -2.4253970     2.2086760    -0.6320610
  H        3.2135550     1.4259430     1.0332840
  H        4.3010400     0.1654310     0.5620470
  H       -2.5974020    -2.1351830     0.6479870
units angstrom
no_reorient  #important for SAPT in psi4, default
symmetry c1  #important for SAPT in psi4, default
}

set PROPERTIES_ORIGIN ["COM"]
properties('MP2/aug-cc-pvtz', properties = ['dipole'])
--------------------------------------------------------------------------

  Memory set to  29.802 GiB by Python driver.
    SCF Algorithm Type (re)set to DF.

*** tstart() called on node142.bme.utexas.edu
*** at Fri Nov  6 10:36:41 2020

   => Loading Basis Set <=

    Name: AUG-CC-PVTZ
    Role: ORBITAL
    Keyword: BASIS
    atoms 1-3   entry O          line   327 file /home/xy3866/psi4conda/share/psi4/basis/aug-cc-pvtz.gbs 
    atoms 4-5   entry N          line   281 file /home/xy3866/psi4conda/share/psi4/basis/aug-cc-pvtz.gbs 
    atoms 6-10  entry C          line   235 file /home/xy3866/psi4conda/share/psi4/basis/aug-cc-pvtz.gbs 
    atoms 11-20 entry H          line    36 file /home/xy3866/psi4conda/share/psi4/basis/aug-cc-pvtz.gbs 


         ---------------------------------------------------------
                                   SCF
               by Justin Turney, Rob Parrish, Andy Simmonett
                          and Daniel G. A. Smith
                              RHF Reference
                        8 Threads,  30517 MiB Core
         ---------------------------------------------------------

  ==> Geometry <==

    Molecular point group: c1
    Full point group: C1

    Geometry (in Angstrom), charge = 0, multiplicity = 1:

       Center              X                  Y                   Z               Mass       
    ------------   -----------------  -----------------  -----------------  -----------------
         O           -2.250552774743    -1.611553660051    -0.137684157082    15.994914619570
         O           -2.184702774743     0.004122339949     1.450695842918    15.994914619570
         O            2.607160725257    -1.213949960051    -0.551807057082    15.994914619570
         N           -1.456962774743     1.934006339949    -0.490738157082    14.003074004430
         N            3.358757225257     0.509409339949     0.712931842918    14.003074004430
         C            0.099458225257     0.087579339949    -0.981925157082    12.000000000000
         C           -1.364424774743     0.506539339949    -0.786137157082    12.000000000000
         C            0.970816225257     0.403623339949     0.229085842918    12.000000000000
         C           -1.984082774743    -0.355277660051     0.300340842918    12.000000000000
         C            2.366989225257    -0.174715660051     0.061639842918    12.000000000000
         H            0.161084225257    -0.981565660051    -1.201694157082     1.007825032230
         H            0.480077225257     0.629491339949    -1.853366157082     1.007825032230
         H           -1.900772774743     0.303646339949    -1.719669157082     1.007825032230
         H            1.020635225257     1.486434339949     0.387934842918     1.007825032230
         H            0.545679225257    -0.032935660051     1.142716842918     1.007825032230
         H           -1.296306774743     2.056016339949     0.510001842918     1.007825032230
         H           -2.417897774743     2.241760339949    -0.639811157082     1.007825032230
         H            3.221054225257     1.459027339949     1.025533842918     1.007825032230
         H            4.308539225257     0.198515339949     0.554296842918     1.007825032230
         H           -2.589902774743    -2.102098660051     0.640236842918     1.007825032230

  Running in c1 symmetry.

  Rotational constants: A =      0.07345  B =      0.02301  C =      0.02111 [cm^-1]
  Rotational constants: A =   2201.83339  B =    689.74695  C =    632.77298 [MHz]
  Nuclear repulsion =  548.202730737014463

  Charge       = 0
  Multiplicity = 1
  Electrons    = 78
  Nalpha       = 39
  Nbeta        = 39

  ==> Algorithm <==

  SCF Algorithm Type is DF.
  DIIS enabled.
  MOM disabled.
  Fractional occupation disabled.
  Guess Type is SAD.
  Energy threshold   = 1.00e-10
  Density threshold  = 1.00e-10
  Integral threshold = 0.00e+00

  ==> Primary Basis <==

  Basis Set: AUG-CC-PVTZ
    Blend: AUG-CC-PVTZ
    Number of shells: 230
    Number of basis function: 690
    Number of Cartesian functions: 800
    Spherical Harmonics?: true
    Max angular momentum: 3

   => Loading Basis Set <=

    Name: (AUG-CC-PVTZ AUX)
    Role: JKFIT
    Keyword: DF_BASIS_SCF
    atoms 1-3   entry O          line   286 file /home/xy3866/psi4conda/share/psi4/basis/aug-cc-pvtz-jkfit.gbs 
    atoms 4-5   entry N          line   224 file /home/xy3866/psi4conda/share/psi4/basis/aug-cc-pvtz-jkfit.gbs 
    atoms 6-10  entry C          line   162 file /home/xy3866/psi4conda/share/psi4/basis/aug-cc-pvtz-jkfit.gbs 
    atoms 11-20 entry H          line    70 file /home/xy3866/psi4conda/share/psi4/basis/aug-cc-pvtz-jkfit.gbs 

  ==> Pre-Iterations <==

   -------------------------------------------------------
    Irrep   Nso     Nmo     Nalpha   Nbeta   Ndocc  Nsocc
   -------------------------------------------------------
     A        690     690       0       0       0       0
   -------------------------------------------------------
    Total     690     690      39      39      39       0
   -------------------------------------------------------

  ==> Integral Setup <==

  DFHelper Memory: AOs need 5.063 GiB; user supplied 22.352 GiB. Using in-core AOs.

  ==> MemDFJK: Density-Fitted J/K Matrices <==

    J tasked:                   Yes
    K tasked:                   Yes
    wK tasked:                   No
    OpenMP threads:               8
    Memory [MiB]:             22888
    Algorithm:                 Disk
    Schwarz Cutoff:           1E-12
    Mask sparsity (%):       7.4951
    Fitting Condition:        1E-10

   => Auxiliary Basis Set <=

  Basis Set: (AUG-CC-PVTZ AUX)
    Blend: AUG-CC-PVTZ-JKFIT
    Number of shells: 440
    Number of basis function: 1500
    Number of Cartesian functions: 1860
    Spherical Harmonics?: true
    Max angular momentum: 4

  Minimum eigenvalue in the overlap matrix is 2.7275758810E-06.
  Using Symmetric Orthogonalization.

  SCF Guess: Superposition of Atomic Densities via on-the-fly atomic UHF.

  ==> Iterations <==

                           Total Energy        Delta E     RMS |[F,P]|

   @DF-RHF iter SAD:  -527.78056502661957   -5.27781e+02   0.00000e+00 
   @DF-RHF iter   1:  -528.49981279559415   -7.19248e-01   1.31422e-03 DIIS
   @DF-RHF iter   2:  -528.78690717633663   -2.87094e-01   7.76103e-04 DIIS
   @DF-RHF iter   3:  -528.88545671154202   -9.85495e-02   1.31950e-04 DIIS
   @DF-RHF iter   4:  -528.89054503210468   -5.08832e-03   6.26496e-05 DIIS
   @DF-RHF iter   5:  -528.89156924112899   -1.02421e-03   1.27981e-05 DIIS
   @DF-RHF iter   6:  -528.89165445023912   -8.52091e-05   5.82278e-06 DIIS
   @DF-RHF iter   7:  -528.89167115843566   -1.67082e-05   2.24543e-06 DIIS
   @DF-RHF iter   8:  -528.89167454939457   -3.39096e-06   8.99663e-07 DIIS
   @DF-RHF iter   9:  -528.89167507805973   -5.28665e-07   2.96849e-07 DIIS
   @DF-RHF iter  10:  -528.89167512874144   -5.06817e-08   1.06618e-07 DIIS
   @DF-RHF iter  11:  -528.89167513372911   -4.98767e-09   3.55383e-08 DIIS
   @DF-RHF iter  12:  -528.89167513417146   -4.42355e-10   1.44101e-08 DIIS
   @DF-RHF iter  13:  -528.89167513424457   -7.31006e-11   3.55550e-09 DIIS
   @DF-RHF iter  14:  -528.89167513425105   -6.48015e-12   1.34190e-09 DIIS
   @DF-RHF iter  15:  -528.89167513425366   -2.61480e-12   5.62246e-10 DIIS
   @DF-RHF iter  16:  -528.89167513425252    1.13687e-12   2.58388e-10 DIIS
   @DF-RHF iter  17:  -528.89167513425127    1.25056e-12   1.17453e-10 DIIS
   @DF-RHF iter  18:  -528.89167513425173   -4.54747e-13   4.74900e-11 DIIS
  Energy and wave function converged.


  ==> Post-Iterations <==

    Orbital Energies [Eh]
    ---------------------

    Doubly Occupied:                                                      

       1A    -20.625531     2A    -20.562593     3A    -20.522275  
       4A    -15.588358     5A    -15.558438     6A    -11.395652  
       7A    -11.357430     8A    -11.286704     9A    -11.247625  
      10A    -11.238510    11A     -1.469868    12A     -1.376785  
      13A     -1.367196    14A     -1.211400    15A     -1.207915  
      16A     -1.072172    17A     -0.984423    18A     -0.885858  
      19A     -0.803379    20A     -0.777695    21A     -0.731770  
      22A     -0.714626    23A     -0.707220    24A     -0.689511  
      25A     -0.656220    26A     -0.650849    27A     -0.620859  
      28A     -0.604210    29A     -0.591716    30A     -0.585515  
      31A     -0.554511    32A     -0.522686    33A     -0.510062  
      34A     -0.501365    35A     -0.486880    36A     -0.464731  
      37A     -0.429247    38A     -0.419950    39A     -0.415715  

    Virtual:                                                              

      40A      0.023178    41A      0.028804    42A      0.035883  
      43A      0.038842    44A      0.049459    45A      0.053439  
      46A      0.057931    47A      0.065074    48A      0.073110  
      49A      0.077303    50A      0.086201    51A      0.104700  
      52A      0.108971    53A      0.110995    54A      0.112186  
      55A      0.115477    56A      0.117704    57A      0.122812  
      58A      0.124113    59A      0.137829    60A      0.139413  
      61A      0.143509    62A      0.150867    63A      0.152912  
      64A      0.158768    65A      0.162628    66A      0.164684  
      67A      0.168398    68A      0.174889    69A      0.179034  
      70A      0.183944    71A      0.189981    72A      0.198451  
      73A      0.200435    74A      0.204453    75A      0.215803  
      76A      0.218437    77A      0.223626    78A      0.228594  
      79A      0.235561    80A      0.241934    81A      0.246704  
      82A      0.257208    83A      0.264916    84A      0.268322  
      85A      0.274990    86A      0.280672    87A      0.281657  
      88A      0.287129    89A      0.292164    90A      0.295828  
      91A      0.303852    92A      0.306115    93A      0.310730  
      94A      0.315645    95A      0.318885    96A      0.329719  
      97A      0.341081    98A      0.343242    99A      0.350466  
     100A      0.353271   101A      0.359895   102A      0.361925  
     103A      0.367440   104A      0.369527   105A      0.372974  
     106A      0.379885   107A      0.384525   108A      0.385625  
     109A      0.389652   110A      0.396714   111A      0.400739  
     112A      0.405334   113A      0.416238   114A      0.417511  
     115A      0.422885   116A      0.425646   117A      0.431821  
     118A      0.440586   119A      0.450005   120A      0.453272  
     121A      0.455318   122A      0.458458   123A      0.464708  
     124A      0.470044   125A      0.475217   126A      0.479245  
     127A      0.482466   128A      0.485516   129A      0.489804  
     130A      0.497490   131A      0.501002   132A      0.504999  
     133A      0.513581   134A      0.514775   135A      0.523290  
     136A      0.531684   137A      0.541073   138A      0.545247  
     139A      0.552243   140A      0.556301   141A      0.560311  
     142A      0.569796   143A      0.575387   144A      0.586976  
     145A      0.590255   146A      0.597352   147A      0.603054  
     148A      0.608492   149A      0.610602   150A      0.617200  
     151A      0.621306   152A      0.632213   153A      0.635856  
     154A      0.639434   155A      0.647901   156A      0.651258  
     157A      0.658521   158A      0.665649   159A      0.671000  
     160A      0.682700   161A      0.688694   162A      0.691201  
     163A      0.695082   164A      0.705140   165A      0.717956  
     166A      0.727538   167A      0.733164   168A      0.740981  
     169A      0.746262   170A      0.764815   171A      0.772183  
     172A      0.776422   173A      0.786153   174A      0.794544  
     175A      0.798519   176A      0.805141   177A      0.811048  
     178A      0.820637   179A      0.826248   180A      0.830186  
     181A      0.832347   182A      0.843557   183A      0.850656  
     184A      0.855654   185A      0.864660   186A      0.873401  
     187A      0.877555   188A      0.883588   189A      0.887158  
     190A      0.893007   191A      0.898639   192A      0.906050  
     193A      0.911514   194A      0.927225   195A      0.935656  
     196A      0.939106   197A      0.945468   198A      0.948984  
     199A      0.952615   200A      0.959055   201A      0.964936  
     202A      0.969656   203A      0.979204   204A      0.981519  
     205A      0.992265   206A      0.999500   207A      1.002400  
     208A      1.006595   209A      1.010239   210A      1.019248  
     211A      1.031710   212A      1.035944   213A      1.038327  
     214A      1.040518   215A      1.051792   216A      1.055535  
     217A      1.061778   218A      1.064087   219A      1.067401  
     220A      1.072518   221A      1.087535   222A      1.092498  
     223A      1.101695   224A      1.106397   225A      1.110216  
     226A      1.116095   227A      1.121340   228A      1.126462  
     229A      1.131180   230A      1.137232   231A      1.144585  
     232A      1.146066   233A      1.155920   234A      1.167318  
     235A      1.174526   236A      1.178917   237A      1.189045  
     238A      1.191523   239A      1.198532   240A      1.204227  
     241A      1.217890   242A      1.222754   243A      1.227097  
     244A      1.237649   245A      1.243764   246A      1.249443  
     247A      1.255677   248A      1.261777   249A      1.263426  
     250A      1.271895   251A      1.277197   252A      1.291195  
     253A      1.295639   254A      1.300628   255A      1.318549  
     256A      1.321799   257A      1.332440   258A      1.336008  
     259A      1.338367   260A      1.358108   261A      1.360672  
     262A      1.369580   263A      1.377620   264A      1.384437  
     265A      1.385723   266A      1.398379   267A      1.412027  
     268A      1.416364   269A      1.429200   270A      1.432932  
     271A      1.445480   272A      1.448084   273A      1.454512  
     274A      1.460346   275A      1.467265   276A      1.478159  
     277A      1.488536   278A      1.492476   279A      1.500576  
     280A      1.509254   281A      1.515593   282A      1.527834  
     283A      1.535707   284A      1.544713   285A      1.552937  
     286A      1.555030   287A      1.569745   288A      1.572496  
     289A      1.585078   290A      1.595014   291A      1.602124  
     292A      1.609387   293A      1.618112   294A      1.620808  
     295A      1.629551   296A      1.639774   297A      1.654795  
     298A      1.657629   299A      1.666042   300A      1.671425  
     301A      1.685704   302A      1.693775   303A      1.700482  
     304A      1.706527   305A      1.714145   306A      1.717075  
     307A      1.737960   308A      1.749346   309A      1.754773  
     310A      1.771768   311A      1.775997   312A      1.778755  
     313A      1.790852   314A      1.795983   315A      1.802529  
     316A      1.815168   317A      1.820894   318A      1.835010  
     319A      1.842864   320A      1.856520   321A      1.863672  
     322A      1.865609   323A      1.870927   324A      1.879414  
     325A      1.885795   326A      1.902842   327A      1.910339  
     328A      1.921913   329A      1.932337   330A      1.947625  
     331A      1.958831   332A      1.964352   333A      1.973200  
     334A      1.988912   335A      1.994427   336A      2.011125  
     337A      2.018304   338A      2.024773   339A      2.030393  
     340A      2.032840   341A      2.047926   342A      2.048255  
     343A      2.078170   344A      2.080601   345A      2.096409  
     346A      2.103945   347A      2.117078   348A      2.128726  
     349A      2.140702   350A      2.150104   351A      2.159877  
     352A      2.165510   353A      2.182909   354A      2.197939  
     355A      2.211752   356A      2.215055   357A      2.229418  
     358A      2.232303   359A      2.255499   360A      2.277142  
     361A      2.288001   362A      2.294396   363A      2.298294  
     364A      2.319340   365A      2.332378   366A      2.341742  
     367A      2.345526   368A      2.352328   369A      2.367942  
     370A      2.371052   371A      2.377646   372A      2.401798  
     373A      2.413325   374A      2.422110   375A      2.426176  
     376A      2.440133   377A      2.443367   378A      2.466572  
     379A      2.468898   380A      2.479148   381A      2.499882  
     382A      2.513389   383A      2.519650   384A      2.529717  
     385A      2.536704   386A      2.546457   387A      2.557349  
     388A      2.571686   389A      2.577503   390A      2.582054  
     391A      2.594812   392A      2.612402   393A      2.618425  
     394A      2.629021   395A      2.634426   396A      2.648177  
     397A      2.652421   398A      2.669113   399A      2.671378  
     400A      2.691606   401A      2.706005   402A      2.718324  
     403A      2.736143   404A      2.744917   405A      2.757920  
     406A      2.764471   407A      2.777479   408A      2.789278  
     409A      2.801290   410A      2.811333   411A      2.830455  
     412A      2.835699   413A      2.856013   414A      2.876418  
     415A      2.883011   416A      2.891702   417A      2.911096  
     418A      2.918816   419A      2.946061   420A      2.977363  
     421A      2.980879   422A      3.006659   423A      3.020732  
     424A      3.051477   425A      3.075561   426A      3.091802  
     427A      3.098483   428A      3.110805   429A      3.125148  
     430A      3.136946   431A      3.172644   432A      3.180991  
     433A      3.229731   434A      3.247730   435A      3.273388  
     436A      3.300108   437A      3.320143   438A      3.345549  
     439A      3.423608   440A      3.424723   441A      3.446732  
     442A      3.475583   443A      3.495731   444A      3.506983  
     445A      3.532697   446A      3.540572   447A      3.561009  
     448A      3.584633   449A      3.587553   450A      3.607804  
     451A      3.627867   452A      3.644375   453A      3.648470  
     454A      3.667021   455A      3.676707   456A      3.711139  
     457A      3.729149   458A      3.741522   459A      3.749038  
     460A      3.769603   461A      3.779635   462A      3.791815  
     463A      3.811779   464A      3.829592   465A      3.840071  
     466A      3.848929   467A      3.863933   468A      3.879310  
     469A      3.885150   470A      3.903418   471A      3.916718  
     472A      3.928293   473A      3.933150   474A      3.952804  
     475A      3.974130   476A      3.978416   477A      3.981688  
     478A      4.002720   479A      4.017865   480A      4.025401  
     481A      4.035650   482A      4.050408   483A      4.058334  
     484A      4.072081   485A      4.081577   486A      4.091511  
     487A      4.107874   488A      4.114573   489A      4.127193  
     490A      4.150718   491A      4.174895   492A      4.184556  
     493A      4.187433   494A      4.213112   495A      4.231860  
     496A      4.237591   497A      4.271815   498A      4.274122  
     499A      4.291127   500A      4.296080   501A      4.299182  
     502A      4.315260   503A      4.336475   504A      4.342312  
     505A      4.348801   506A      4.353376   507A      4.356296  
     508A      4.369862   509A      4.389763   510A      4.399029  
     511A      4.413707   512A      4.418978   513A      4.436846  
     514A      4.446297   515A      4.453839   516A      4.461867  
     517A      4.473709   518A      4.490972   519A      4.498725  
     520A      4.511540   521A      4.514916   522A      4.537208  
     523A      4.540571   524A      4.561907   525A      4.575128  
     526A      4.586015   527A      4.607848   528A      4.619931  
     529A      4.656949   530A      4.671211   531A      4.673080  
     532A      4.685218   533A      4.688729   534A      4.708851  
     535A      4.720384   536A      4.746092   537A      4.753488  
     538A      4.776617   539A      4.783849   540A      4.788210  
     541A      4.807018   542A      4.826447   543A      4.834489  
     544A      4.847480   545A      4.864506   546A      4.871974  
     547A      4.891057   548A      4.908930   549A      4.919903  
     550A      4.927808   551A      4.950300   552A      4.966331  
     553A      4.976663   554A      4.996003   555A      5.015952  
     556A      5.026778   557A      5.043778   558A      5.052521  
     559A      5.068758   560A      5.091655   561A      5.099068  
     562A      5.100984   563A      5.137379   564A      5.139987  
     565A      5.166319   566A      5.173911   567A      5.181222  
     568A      5.205531   569A      5.216958   570A      5.238137  
     571A      5.243658   572A      5.266055   573A      5.282993  
     574A      5.291885   575A      5.320605   576A      5.325820  
     577A      5.337883   578A      5.355290   579A      5.392204  
     580A      5.396127   581A      5.408190   582A      5.421762  
     583A      5.428757   584A      5.454251   585A      5.468420  
     586A      5.492072   587A      5.500284   588A      5.518702  
     589A      5.533195   590A      5.543499   591A      5.558212  
     592A      5.572286   593A      5.607950   594A      5.627811  
     595A      5.661717   596A      5.664761   597A      5.701823  
     598A      5.711064   599A      5.723185   600A      5.736681  
     601A      5.746792   602A      5.758590   603A      5.788095  
     604A      5.829922   605A      5.845440   606A      5.909329  
     607A      5.938348   608A      5.957589   609A      5.979852  
     610A      6.008546   611A      6.020816   612A      6.063534  
     613A      6.086554   614A      6.119855   615A      6.127624  
     616A      6.141869   617A      6.174085   618A      6.218217  
     619A      6.225379   620A      6.241730   621A      6.248893  
     622A      6.260542   623A      6.313387   624A      6.329759  
     625A      6.340070   626A      6.436366   627A      6.457491  
     628A      6.498832   629A      6.558272   630A      6.605601  
     631A      6.628741   632A      6.653330   633A      6.677568  
     634A      6.727174   635A      6.748090   636A      6.818434  
     637A      6.836176   638A      6.850653   639A      6.854808  
     640A      6.872993   641A      6.892831   642A      6.906754  
     643A      6.912479   644A      6.944215   645A      6.951741  
     646A      6.994507   647A      7.050515   648A      7.060443  
     649A      7.104261   650A      7.131321   651A      7.158498  
     652A      7.213731   653A      7.242600   654A      7.254687  
     655A      7.301577   656A      7.346477   657A      7.384956  
     658A      7.405712   659A      7.429072   660A      7.439502  
     661A      7.447269   662A      7.475478   663A      7.497685  
     664A      7.586355   665A      7.615360   666A      7.632246  
     667A      7.679449   668A      7.729162   669A      7.730995  
     670A      7.751142   671A      7.769011   672A      7.842432  
     673A      7.892791   674A      7.919701   675A      7.951612  
     676A      8.026674   677A      8.060908   678A      8.075778  
     679A      8.323005   680A      8.567297   681A     15.535147  
     682A     15.833709   683A     16.259033   684A     16.751473  
     685A     17.263880   686A     17.855088   687A     18.592707  
     688A     18.818274   689A     19.924044   690A     20.444700  

    Final Occupation by Irrep:
              A 
    DOCC [    39 ]

  @DF-RHF Final Energy:  -528.89167513425173

   => Energetics <=

    Nuclear Repulsion Energy =            548.2027307370144626
    One-Electron Energy =               -1811.3939156546109643
    Two-Electron Energy =                 734.2995097833447744
    Total Energy =                       -528.8916751342517273

Computation Completed

*** tstop() called on node142.bme.utexas.edu at Fri Nov  6 10:39:19 2020
Module time:
	user time   =     708.80 seconds =      11.81 minutes
	system time =      73.48 seconds =       1.22 minutes
	total time  =        158 seconds =       2.63 minutes
Total time:
	user time   =     708.80 seconds =      11.81 minutes
	system time =      73.48 seconds =       1.22 minutes
	total time  =        158 seconds =       2.63 minutes
   => Loading Basis Set <=

    Name: (AUG-CC-PVTZ AUX)
    Role: RIFIT
    Keyword: DF_BASIS_MP2
    atoms 1-3   entry O          line   264 file /home/xy3866/psi4conda/share/psi4/basis/aug-cc-pvtz-ri.gbs 
    atoms 4-5   entry N          line   206 file /home/xy3866/psi4conda/share/psi4/basis/aug-cc-pvtz-ri.gbs 
    atoms 6-10  entry C          line   148 file /home/xy3866/psi4conda/share/psi4/basis/aug-cc-pvtz-ri.gbs 
    atoms 11-20 entry H          line    30 file /home/xy3866/psi4conda/share/psi4/basis/aug-cc-pvtz-ri.gbs 


*** tstart() called on node142.bme.utexas.edu
*** at Fri Nov  6 10:39:19 2020


  //>>>>>>>>>>>>>>>>>>>>>>>>>>>>>>>>>>>//
  //               DFMP2               //
  //<<<<<<<<<<<<<<<<<<<<<<<<<<<<<<<<<<<//

	 --------------------------------------------------------
	                          DF-MP2                         
	      2nd-Order Density-Fitted Moller-Plesset Theory     
	              RMP2 Wavefunction,   8 Threads             
	                                                         
	        Rob Parrish, Justin Turney, Andy Simmonett,      
	           Ed Hohenstein, and C. David Sherrill          
	 --------------------------------------------------------

   => Auxiliary Basis Set <=

  Basis Set: (AUG-CC-PVTZ AUX)
    Blend: AUG-CC-PVTZ-RI
    Number of shells: 420
    Number of basis function: 1520
    Number of Cartesian functions: 1910
    Spherical Harmonics?: true
    Max angular momentum: 4

	 --------------------------------------------------------
	                 NBF =   690, NAUX =  1520
	 --------------------------------------------------------
	   CLASS    FOCC     OCC    AOCC    AVIR     VIR    FVIR
	   PAIRS       0      39      39     651     651       0
	 --------------------------------------------------------

  DFHelper Memory: AOs need 5.063 GiB; user supplied 22.352 GiB. Using in-core AOs.


         ------------------------------------------------------------
                                     CPHF                           
                                  Rob Parrish                       
         ------------------------------------------------------------

  ==> Geometry <==

    Molecular point group: c1
    Full point group: C1

    Geometry (in Angstrom), charge = 0, multiplicity = 1:

       Center              X                  Y                   Z               Mass       
    ------------   -----------------  -----------------  -----------------  -----------------
         O           -2.250552774743    -1.611553660051    -0.137684157082    15.994914619570
         O           -2.184702774743     0.004122339949     1.450695842918    15.994914619570
         O            2.607160725257    -1.213949960051    -0.551807057082    15.994914619570
         N           -1.456962774743     1.934006339949    -0.490738157082    14.003074004430
         N            3.358757225257     0.509409339949     0.712931842918    14.003074004430
         C            0.099458225257     0.087579339949    -0.981925157082    12.000000000000
         C           -1.364424774743     0.506539339949    -0.786137157082    12.000000000000
         C            0.970816225257     0.403623339949     0.229085842918    12.000000000000
         C           -1.984082774743    -0.355277660051     0.300340842918    12.000000000000
         C            2.366989225257    -0.174715660051     0.061639842918    12.000000000000
         H            0.161084225257    -0.981565660051    -1.201694157082     1.007825032230
         H            0.480077225257     0.629491339949    -1.853366157082     1.007825032230
         H           -1.900772774743     0.303646339949    -1.719669157082     1.007825032230
         H            1.020635225257     1.486434339949     0.387934842918     1.007825032230
         H            0.545679225257    -0.032935660051     1.142716842918     1.007825032230
         H           -1.296306774743     2.056016339949     0.510001842918     1.007825032230
         H           -2.417897774743     2.241760339949    -0.639811157082     1.007825032230
         H            3.221054225257     1.459027339949     1.025533842918     1.007825032230
         H            4.308539225257     0.198515339949     0.554296842918     1.007825032230
         H           -2.589902774743    -2.102098660051     0.640236842918     1.007825032230

  Nuclear repulsion =  548.202730737014463
  Reference energy  = -528.891675134251727

  ==> Basis Set <==

  Basis Set: AUG-CC-PVTZ
    Blend: AUG-CC-PVTZ
    Number of shells: 230
    Number of basis function: 690
    Number of Cartesian functions: 800
    Spherical Harmonics?: true
    Max angular momentum: 3

  ==> CGRSolver (by Rob Parrish) <==

   Number of roots    =         1
   Preconditioning    =    JACOBI
   Convergence cutoff =     1E-06
   Maximum iterations =       100

  ==> CPHFRHamiltonian (by Rob Parrish) <== 

  ==> MemDFJK: Density-Fitted J/K Matrices <==

    J tasked:                   Yes
    K tasked:                   Yes
    wK tasked:                   No
    OpenMP threads:               8
    Memory [MiB]:             22888
    Algorithm:                 Disk
    Schwarz Cutoff:           1E-12
    Mask sparsity (%):       7.4951
    Fitting Condition:        1E-10

   => Auxiliary Basis Set <=

  Basis Set: (AUG-CC-PVTZ AUX)
    Blend: AUG-CC-PVTZ-JKFIT
    Number of shells: 440
    Number of basis function: 1500
    Number of Cartesian functions: 1860
    Spherical Harmonics?: true
    Max angular momentum: 4

  ==> CPHF Iterations <==

  => Iterations <=

             Iter  Converged  Remaining    Residual
  CGR           1          0          1   1.167E-01
  CGR           2          0          1   3.298E-02
  CGR           3          0          1   1.248E-02
  CGR           4          0          1   3.471E-03
  CGR           5          0          1   1.389E-03
  CGR           6          0          1   4.347E-04
  CGR           7          0          1   1.637E-04
  CGR           8          0          1   7.430E-05
  CGR           9          0          1   2.997E-05
  CGR          10          0          1   1.065E-05
  CGR          11          0          1   3.863E-06
  CGR          12          0          1   1.504E-06
  CGR          13          1          0   6.112E-07

    CGRSolver converged.

	-----------------------------------------------------------
	 ==================> DF-MP2 Energies <==================== 
	-----------------------------------------------------------
	 Reference Energy          =    -528.8916751342517273 [Eh]
	 Singles Energy            =      -0.0000000000000000 [Eh]
	 Same-Spin Energy          =      -0.5280231146712541 [Eh]
	 Opposite-Spin Energy      =      -1.6358821269410218 [Eh]
	 Correlation Energy        =      -2.1639052416122757 [Eh]
	 Total Energy              =    -531.0555803758639968 [Eh]
	-----------------------------------------------------------
	 ================> DF-SCS-MP2 Energies <================== 
	-----------------------------------------------------------
	 SCS Same-Spin Scale       =       0.3333333333333333 [-]
	 SCS Opposite-Spin Scale   =       1.2000000000000000 [-]
	 SCS Same-Spin Energy      =      -0.1760077048904180 [Eh]
	 SCS Opposite-Spin Energy  =      -1.9630585523292261 [Eh]
	 SCS Correlation Energy    =      -2.1390662572196439 [Eh]
	 SCS Total Energy          =    -531.0307413914713379 [Eh]
	-----------------------------------------------------------



Properties will be evaluated at   0.000000,   0.000000,  -0.000000 [a0]

Properties computed using the MP2 density matrix

  Nuclear Dipole Moment: [e a0]
     X:     1.4221      Y:     4.9088      Z:    -1.0787

  Electronic Dipole Moment: [e a0]
     X:    -1.6102      Y:    -4.1484      Z:     1.4124

  Dipole Moment: [e a0]
     X:    -0.1881      Y:     0.7604      Z:     0.3337     Total:     0.8515

  Dipole Moment: [D]
     X:    -0.4782      Y:     1.9327      Z:     0.8483     Total:     2.1642


*** tstop() called on node142.bme.utexas.edu at Fri Nov  6 10:45:57 2020
Module time:
	user time   =    2289.69 seconds =      38.16 minutes
	system time =      85.37 seconds =       1.42 minutes
	total time  =        398 seconds =       6.63 minutes
Total time:
	user time   =    2999.64 seconds =      49.99 minutes
	system time =     159.00 seconds =       2.65 minutes
	total time  =        556 seconds =       9.27 minutes

    Psi4 stopped on: Friday, 06 November 2020 10:45AM
    Psi4 wall time for execution: 0:09:17.27

*** Psi4 exiting successfully. Buy a developer a beer!
