
    -----------------------------------------------------------------------
          Psi4: An Open-Source Ab Initio Electronic Structure Package
                               Psi4 1.3.2 release

                         Git: Rev {HEAD} ecbda83 


    R. M. Parrish, L. A. Burns, D. G. A. Smith, A. C. Simmonett,
    A. E. DePrince III, E. G. Hohenstein, U. Bozkaya, A. Yu. Sokolov,
    R. Di Remigio, R. M. Richard, J. F. Gonthier, A. M. James,
    H. R. McAlexander, A. Kumar, M. Saitow, X. Wang, B. P. Pritchard,
    P. Verma, H. F. Schaefer III, K. Patkowski, R. A. King, E. F. Valeev,
    F. A. Evangelista, J. M. Turney, T. D. Crawford, and C. D. Sherrill,
    J. Chem. Theory Comput. 13(7) pp 3185--3197 (2017).
    (doi: 10.1021/acs.jctc.7b00174)


                         Additional Contributions by
    P. Kraus, H. Kruse, M. H. Lechner, M. C. Schieber, R. A. Shaw,
    A. Alenaizan, R. Galvelis, Z. L. Glick, S. Lehtola, and J. P. Misiewicz

    -----------------------------------------------------------------------


    Psi4 started on: Friday, 06 November 2020 11:08AM

    Process ID: 41714
    Host:       node142.bme.utexas.edu
    PSIDATADIR: /home/xy3866/psi4conda/share/psi4
    Memory:     500.0 MiB
    Threads:    8
    
  ==> Input File <==

--------------------------------------------------------------------------
#psi4
#
memory 32 gb

molecule  {
0 1
  O       -2.2580520    -1.6446380    -0.1299340
  O       -2.1922020    -0.0289620     1.4584460
  O        2.5787120    -1.2491670    -0.5482700
  N       -1.4644620     1.9009220    -0.4829880
  N        3.3183642     0.5071001     0.7366907
  C        0.0919590     0.0544950    -0.9741750
  C       -1.3719240     0.4734550    -0.7783870
  C        0.9633170     0.3705390     0.2368360
  C       -1.9915820    -0.3883620     0.3080910
  C        2.3594900    -0.2078000     0.0693900
  H        0.1535850    -1.0146500    -1.1939440
  H        0.4725780     0.5964070    -1.8456160
  H       -1.9082720     0.2705620    -1.7119190
  H        1.0131360     1.4533500     0.3956850
  H        0.5381800    -0.0660200     1.1504670
  H       -1.3038060     2.0229320     0.5177520
  H       -2.4253970     2.2086760    -0.6320610
  H        3.2135550     1.4259430     1.0332840
  H        4.3010400     0.1654310     0.5620470
  H       -2.5974020    -2.1351830     0.6479870
units angstrom
no_reorient  #important for SAPT in psi4, default
symmetry c1  #important for SAPT in psi4, default
}

set PROPERTIES_ORIGIN ["COM"]
properties('MP2/aug-cc-pvtz', properties = ['dipole'])
--------------------------------------------------------------------------

  Memory set to  29.802 GiB by Python driver.
    SCF Algorithm Type (re)set to DF.

*** tstart() called on node142.bme.utexas.edu
*** at Fri Nov  6 11:08:56 2020

   => Loading Basis Set <=

    Name: AUG-CC-PVTZ
    Role: ORBITAL
    Keyword: BASIS
    atoms 1-3   entry O          line   327 file /home/xy3866/psi4conda/share/psi4/basis/aug-cc-pvtz.gbs 
    atoms 4-5   entry N          line   281 file /home/xy3866/psi4conda/share/psi4/basis/aug-cc-pvtz.gbs 
    atoms 6-10  entry C          line   235 file /home/xy3866/psi4conda/share/psi4/basis/aug-cc-pvtz.gbs 
    atoms 11-20 entry H          line    36 file /home/xy3866/psi4conda/share/psi4/basis/aug-cc-pvtz.gbs 


         ---------------------------------------------------------
                                   SCF
               by Justin Turney, Rob Parrish, Andy Simmonett
                          and Daniel G. A. Smith
                              RHF Reference
                        8 Threads,  30517 MiB Core
         ---------------------------------------------------------

  ==> Geometry <==

    Molecular point group: c1
    Full point group: C1

    Geometry (in Angstrom), charge = 0, multiplicity = 1:

       Center              X                  Y                   Z               Mass       
    ------------   -----------------  -----------------  -----------------  -----------------
         O           -2.245105356024    -1.614270412148    -0.138757503811    15.994914619570
         O           -2.179255356024     0.001405587852     1.449622496189    15.994914619570
         O            2.591658643976    -1.218799412148    -0.557093503811    15.994914619570
         N           -1.451515356024     1.931289587852    -0.491811503811    14.003074004430
         N            3.331310843976     0.537467687852     0.727867196189    14.003074004430
         C            0.104905643976     0.084862587852    -0.982998503811    12.000000000000
         C           -1.358977356024     0.503822587852    -0.787210503811    12.000000000000
         C            0.976263643976     0.400906587852     0.228012496189    12.000000000000
         C           -1.978635356024    -0.357994412148     0.299267496189    12.000000000000
         C            2.372436643976    -0.177432412148     0.060566496189    12.000000000000
         H            0.166531643976    -0.984282412148    -1.202767503811     1.007825032230
         H            0.485524643976     0.626774587852    -1.854439503811     1.007825032230
         H           -1.895325356024     0.300929587852    -1.720742503811     1.007825032230
         H            1.026082643976     1.483717587852     0.386861496189     1.007825032230
         H            0.551126643976    -0.035652412148     1.141643496189     1.007825032230
         H           -1.290859356024     2.053299587852     0.508928496189     1.007825032230
         H           -2.412450356024     2.239043587852    -0.640884503811     1.007825032230
         H            3.226501643976     1.456310587852     1.024460496189     1.007825032230
         H            4.313986643976     0.195798587852     0.553223496189     1.007825032230
         H           -2.584455356024    -2.104815412148     0.639163496189     1.007825032230

  Running in c1 symmetry.

  Rotational constants: A =      0.07314  B =      0.02315  C =      0.02122 [cm^-1]
  Rotational constants: A =   2192.62979  B =    693.96104  C =    636.19629 [MHz]
  Nuclear repulsion =  548.563537689235659

  Charge       = 0
  Multiplicity = 1
  Electrons    = 78
  Nalpha       = 39
  Nbeta        = 39

  ==> Algorithm <==

  SCF Algorithm Type is DF.
  DIIS enabled.
  MOM disabled.
  Fractional occupation disabled.
  Guess Type is SAD.
  Energy threshold   = 1.00e-10
  Density threshold  = 1.00e-10
  Integral threshold = 0.00e+00

  ==> Primary Basis <==

  Basis Set: AUG-CC-PVTZ
    Blend: AUG-CC-PVTZ
    Number of shells: 230
    Number of basis function: 690
    Number of Cartesian functions: 800
    Spherical Harmonics?: true
    Max angular momentum: 3

   => Loading Basis Set <=

    Name: (AUG-CC-PVTZ AUX)
    Role: JKFIT
    Keyword: DF_BASIS_SCF
    atoms 1-3   entry O          line   286 file /home/xy3866/psi4conda/share/psi4/basis/aug-cc-pvtz-jkfit.gbs 
    atoms 4-5   entry N          line   224 file /home/xy3866/psi4conda/share/psi4/basis/aug-cc-pvtz-jkfit.gbs 
    atoms 6-10  entry C          line   162 file /home/xy3866/psi4conda/share/psi4/basis/aug-cc-pvtz-jkfit.gbs 
    atoms 11-20 entry H          line    70 file /home/xy3866/psi4conda/share/psi4/basis/aug-cc-pvtz-jkfit.gbs 

  ==> Pre-Iterations <==

   -------------------------------------------------------
    Irrep   Nso     Nmo     Nalpha   Nbeta   Ndocc  Nsocc
   -------------------------------------------------------
     A        690     690       0       0       0       0
   -------------------------------------------------------
    Total     690     690      39      39      39       0
   -------------------------------------------------------

  ==> Integral Setup <==

  DFHelper Memory: AOs need 5.065 GiB; user supplied 22.352 GiB. Using in-core AOs.

  ==> MemDFJK: Density-Fitted J/K Matrices <==

    J tasked:                   Yes
    K tasked:                   Yes
    wK tasked:                   No
    OpenMP threads:               8
    Memory [MiB]:             22888
    Algorithm:                 Disk
    Schwarz Cutoff:           1E-12
    Mask sparsity (%):       7.4640
    Fitting Condition:        1E-10

   => Auxiliary Basis Set <=

  Basis Set: (AUG-CC-PVTZ AUX)
    Blend: AUG-CC-PVTZ-JKFIT
    Number of shells: 440
    Number of basis function: 1500
    Number of Cartesian functions: 1860
    Spherical Harmonics?: true
    Max angular momentum: 4

  Minimum eigenvalue in the overlap matrix is 2.7234602653E-06.
  Using Symmetric Orthogonalization.

  SCF Guess: Superposition of Atomic Densities via on-the-fly atomic UHF.

  ==> Iterations <==

                           Total Energy        Delta E     RMS |[F,P]|

   @DF-RHF iter SAD:  -527.78107036105928   -5.27781e+02   0.00000e+00 
   @DF-RHF iter   1:  -528.49579998731770   -7.14730e-01   1.31289e-03 DIIS
   @DF-RHF iter   2:  -528.78357942628861   -2.87779e-01   7.72058e-04 DIIS
   @DF-RHF iter   3:  -528.88133766749115   -9.77582e-02   1.31158e-04 DIIS
   @DF-RHF iter   4:  -528.88639204896083   -5.05438e-03   6.26452e-05 DIIS
   @DF-RHF iter   5:  -528.88741322358021   -1.02117e-03   1.28460e-05 DIIS
   @DF-RHF iter   6:  -528.88749870945162   -8.54859e-05   5.80981e-06 DIIS
   @DF-RHF iter   7:  -528.88751535366032   -1.66442e-05   2.23824e-06 DIIS
   @DF-RHF iter   8:  -528.88751872315083   -3.36949e-06   8.94730e-07 DIIS
   @DF-RHF iter   9:  -528.88751924893097   -5.25780e-07   2.90993e-07 DIIS
   @DF-RHF iter  10:  -528.88751929873729   -4.98063e-08   1.02569e-07 DIIS
   @DF-RHF iter  11:  -528.88751930348280   -4.74552e-09   3.37685e-08 DIIS
   @DF-RHF iter  12:  -528.88751930389117   -4.08363e-10   1.40918e-08 DIIS
   @DF-RHF iter  13:  -528.88751930395404   -6.28688e-11   3.59457e-09 DIIS
   @DF-RHF iter  14:  -528.88751930396415   -1.01181e-11   1.35279e-09 DIIS
   @DF-RHF iter  15:  -528.88751930396324    9.09495e-13   5.63185e-10 DIIS
   @DF-RHF iter  16:  -528.88751930396256    6.82121e-13   2.60183e-10 DIIS
   @DF-RHF iter  17:  -528.88751930396541   -2.84217e-12   1.16143e-10 DIIS
   @DF-RHF iter  18:  -528.88751930396302    2.38742e-12   4.71176e-11 DIIS
  Energy and wave function converged.


  ==> Post-Iterations <==

    Orbital Energies [Eh]
    ---------------------

    Doubly Occupied:                                                      

       1A    -20.624850     2A    -20.561802     3A    -20.525405  
       4A    -15.590934     5A    -15.557575     6A    -11.394852  
       7A    -11.358947     8A    -11.285616     9A    -11.244664  
      10A    -11.236903    11A     -1.469143    12A     -1.377400  
      13A     -1.366446    14A     -1.216104    15A     -1.207214  
      16A     -1.070231    17A     -0.982859    18A     -0.884653  
      19A     -0.806199    20A     -0.781136    21A     -0.733224  
      22A     -0.713628    23A     -0.704722    24A     -0.684832  
      25A     -0.655065    26A     -0.651390    27A     -0.620221  
      28A     -0.603626    29A     -0.592808    30A     -0.583490  
      31A     -0.554510    32A     -0.521545    33A     -0.508929  
      34A     -0.499398    35A     -0.485928    36A     -0.463812  
      37A     -0.430228    38A     -0.421183    39A     -0.416678  

    Virtual:                                                              

      40A      0.023048    41A      0.028988    42A      0.036086  
      43A      0.038908    44A      0.049389    45A      0.053460  
      46A      0.058004    47A      0.065134    48A      0.073213  
      49A      0.077374    50A      0.086389    51A      0.104921  
      52A      0.109005    53A      0.110782    54A      0.112360  
      55A      0.115604    56A      0.117637    57A      0.122867  
      58A      0.124299    59A      0.138067    60A      0.139448  
      61A      0.143638    62A      0.150999    63A      0.153050  
      64A      0.158991    65A      0.162914    66A      0.164960  
      67A      0.168461    68A      0.174964    69A      0.178775  
      70A      0.184349    71A      0.189702    72A      0.198987  
      73A      0.200735    74A      0.204163    75A      0.215899  
      76A      0.218626    77A      0.223998    78A      0.228813  
      79A      0.235517    80A      0.242089    81A      0.247183  
      82A      0.257581    83A      0.264663    84A      0.269187  
      85A      0.274737    86A      0.280418    87A      0.281951  
      88A      0.287479    89A      0.292691    90A      0.296083  
      91A      0.303863    92A      0.306917    93A      0.311050  
      94A      0.315900    95A      0.318742    96A      0.330252  
      97A      0.341009    98A      0.343844    99A      0.350807  
     100A      0.353429   101A      0.360335   102A      0.362076  
     103A      0.366416   104A      0.370219   105A      0.372908  
     106A      0.379519   107A      0.384219   108A      0.386073  
     109A      0.389627   110A      0.396726   111A      0.400988  
     112A      0.405444   113A      0.416688   114A      0.418556  
     115A      0.422611   116A      0.425812   117A      0.431722  
     118A      0.440657   119A      0.449076   120A      0.452515  
     121A      0.457218   122A      0.457816   123A      0.464758  
     124A      0.470211   125A      0.474719   126A      0.480262  
     127A      0.481815   128A      0.486109   129A      0.490336  
     130A      0.498103   131A      0.501851   132A      0.505711  
     133A      0.514384   134A      0.515707   135A      0.525102  
     136A      0.532316   137A      0.541079   138A      0.545852  
     139A      0.552689   140A      0.556434   141A      0.560554  
     142A      0.570387   143A      0.575660   144A      0.585950  
     145A      0.591730   146A      0.597751   147A      0.600617  
     148A      0.608152   149A      0.611647   150A      0.618955  
     151A      0.623056   152A      0.632450   153A      0.635935  
     154A      0.640851   155A      0.647396   156A      0.652001  
     157A      0.659923   158A      0.664234   159A      0.671089  
     160A      0.682187   161A      0.689030   162A      0.691137  
     163A      0.695498   164A      0.704271   165A      0.717383  
     166A      0.727782   167A      0.733344   168A      0.741406  
     169A      0.746001   170A      0.766063   171A      0.772211  
     172A      0.776965   173A      0.787489   174A      0.795252  
     175A      0.798572   176A      0.805765   177A      0.812541  
     178A      0.820422   179A      0.826824   180A      0.829659  
     181A      0.832093   182A      0.842473   183A      0.851235  
     184A      0.855740   185A      0.864359   186A      0.872308  
     187A      0.877320   188A      0.885112   189A      0.887826  
     190A      0.893212   191A      0.899033   192A      0.906313  
     193A      0.912088   194A      0.928116   195A      0.935609  
     196A      0.938111   197A      0.946034   198A      0.950496  
     199A      0.952891   200A      0.958666   201A      0.965189  
     202A      0.970357   203A      0.979098   204A      0.982471  
     205A      0.993804   206A      0.999763   207A      1.002808  
     208A      1.007511   209A      1.011478   210A      1.019165  
     211A      1.032265   212A      1.035219   213A      1.038120  
     214A      1.041068   215A      1.052380   216A      1.055929  
     217A      1.062231   218A      1.064500   219A      1.070396  
     220A      1.073478   221A      1.086044   222A      1.093321  
     223A      1.101330   224A      1.108338   225A      1.110861  
     226A      1.116888   227A      1.120284   228A      1.126838  
     229A      1.130642   230A      1.137264   231A      1.145143  
     232A      1.147000   233A      1.155150   234A      1.167792  
     235A      1.175231   236A      1.178668   237A      1.187876  
     238A      1.191688   239A      1.198993   240A      1.204055  
     241A      1.219124   242A      1.223402   243A      1.227199  
     244A      1.238920   245A      1.243939   246A      1.249224  
     247A      1.256459   248A      1.260988   249A      1.265583  
     250A      1.272446   251A      1.277820   252A      1.289375  
     253A      1.298524   254A      1.301538   255A      1.318695  
     256A      1.321007   257A      1.332808   258A      1.336594  
     259A      1.339939   260A      1.357939   261A      1.360779  
     262A      1.371506   263A      1.378995   264A      1.384650  
     265A      1.386490   266A      1.400398   267A      1.411268  
     268A      1.414241   269A      1.429317   270A      1.434323  
     271A      1.447199   272A      1.448295   273A      1.454598  
     274A      1.460669   275A      1.469045   276A      1.478862  
     277A      1.489186   278A      1.491164   279A      1.500494  
     280A      1.511284   281A      1.513067   282A      1.525334  
     283A      1.537282   284A      1.544210   285A      1.553507  
     286A      1.555946   287A      1.570552   288A      1.572187  
     289A      1.585672   290A      1.596202   291A      1.602200  
     292A      1.610071   293A      1.619059   294A      1.622467  
     295A      1.630947   296A      1.641728   297A      1.655316  
     298A      1.660035   299A      1.667300   300A      1.672695  
     301A      1.686614   302A      1.693372   303A      1.701662  
     304A      1.709378   305A      1.716028   306A      1.718303  
     307A      1.738036   308A      1.747527   309A      1.756623  
     310A      1.770544   311A      1.777770   312A      1.780174  
     313A      1.792163   314A      1.797217   315A      1.803270  
     316A      1.817083   317A      1.822667   318A      1.834858  
     319A      1.843931   320A      1.857006   321A      1.865330  
     322A      1.867307   323A      1.871285   324A      1.880065  
     325A      1.884785   326A      1.904649   327A      1.912464  
     328A      1.920538   329A      1.930357   330A      1.946392  
     331A      1.960333   332A      1.968839   333A      1.976272  
     334A      1.987358   335A      1.995308   336A      2.011614  
     337A      2.019463   338A      2.026346   339A      2.029996  
     340A      2.033163   341A      2.049423   342A      2.051129  
     343A      2.075326   344A      2.081646   345A      2.096606  
     346A      2.107145   347A      2.120442   348A      2.124962  
     349A      2.140604   350A      2.146259   351A      2.156835  
     352A      2.162491   353A      2.186203   354A      2.198297  
     355A      2.211376   356A      2.215224   357A      2.228804  
     358A      2.237672   359A      2.253843   360A      2.272279  
     361A      2.290653   362A      2.295630   363A      2.299454  
     364A      2.324107   365A      2.337907   366A      2.343882  
     367A      2.348785   368A      2.351802   369A      2.369340  
     370A      2.372487   371A      2.377635   372A      2.406668  
     373A      2.416758   374A      2.421701   375A      2.422532  
     376A      2.439429   377A      2.445073   378A      2.471651  
     379A      2.472971   380A      2.474516   381A      2.500559  
     382A      2.511174   383A      2.514424   384A      2.531994  
     385A      2.534363   386A      2.546466   387A      2.559008  
     388A      2.572368   389A      2.577495   390A      2.583262  
     391A      2.597292   392A      2.612441   393A      2.619911  
     394A      2.627902   395A      2.635881   396A      2.644760  
     397A      2.653079   398A      2.665460   399A      2.671697  
     400A      2.693872   401A      2.705750   402A      2.715119  
     403A      2.731102   404A      2.744528   405A      2.760731  
     406A      2.770948   407A      2.777064   408A      2.787835  
     409A      2.802279   410A      2.808709   411A      2.829108  
     412A      2.834131   413A      2.856734   414A      2.875996  
     415A      2.883556   416A      2.892500   417A      2.910993  
     418A      2.920263   419A      2.946885   420A      2.979754  
     421A      2.985941   422A      3.005630   423A      3.021422  
     424A      3.053909   425A      3.079240   426A      3.090791  
     427A      3.098266   428A      3.113011   429A      3.129341  
     430A      3.149569   431A      3.173561   432A      3.187222  
     433A      3.228354   434A      3.246948   435A      3.274749  
     436A      3.307919   437A      3.318694   438A      3.345248  
     439A      3.424902   440A      3.429739   441A      3.446728  
     442A      3.481201   443A      3.499057   444A      3.511266  
     445A      3.533386   446A      3.542615   447A      3.561474  
     448A      3.585571   449A      3.588240   450A      3.609170  
     451A      3.628810   452A      3.647302   453A      3.651886  
     454A      3.665641   455A      3.678520   456A      3.709945  
     457A      3.730408   458A      3.743076   459A      3.747623  
     460A      3.773976   461A      3.779426   462A      3.792717  
     463A      3.809002   464A      3.832144   465A      3.842797  
     466A      3.851957   467A      3.864754   468A      3.879747  
     469A      3.888377   470A      3.898430   471A      3.918708  
     472A      3.928895   473A      3.933044   474A      3.956505  
     475A      3.975195   476A      3.981162   477A      3.983831  
     478A      4.004051   479A      4.015852   480A      4.025788  
     481A      4.035039   482A      4.049566   483A      4.058430  
     484A      4.074102   485A      4.082124   486A      4.093757  
     487A      4.109555   488A      4.115417   489A      4.122221  
     490A      4.152294   491A      4.178041   492A      4.184030  
     493A      4.189156   494A      4.213937   495A      4.232770  
     496A      4.242073   497A      4.272659   498A      4.276332  
     499A      4.288299   500A      4.296607   501A      4.307627  
     502A      4.317419   503A      4.335745   504A      4.338849  
     505A      4.347601   506A      4.353463   507A      4.356730  
     508A      4.369529   509A      4.391981   510A      4.401035  
     511A      4.418124   512A      4.419982   513A      4.438669  
     514A      4.446538   515A      4.450444   516A      4.455554  
     517A      4.475700   518A      4.490672   519A      4.497286  
     520A      4.508981   521A      4.519595   522A      4.539332  
     523A      4.543535   524A      4.564510   525A      4.574883  
     526A      4.584889   527A      4.609458   528A      4.616594  
     529A      4.649657   530A      4.669115   531A      4.671844  
     532A      4.683169   533A      4.690067   534A      4.707714  
     535A      4.720472   536A      4.748964   537A      4.757641  
     538A      4.774224   539A      4.780827   540A      4.788058  
     541A      4.810770   542A      4.824839   543A      4.834928  
     544A      4.846593   545A      4.853459   546A      4.869304  
     547A      4.886808   548A      4.911232   549A      4.917372  
     550A      4.925774   551A      4.946875   552A      4.970598  
     553A      4.971983   554A      4.993709   555A      5.015519  
     556A      5.023306   557A      5.048896   558A      5.051522  
     559A      5.070421   560A      5.093561   561A      5.100383  
     562A      5.114463   563A      5.134814   564A      5.142864  
     565A      5.164563   566A      5.173069   567A      5.188659  
     568A      5.211477   569A      5.223102   570A      5.235925  
     571A      5.245342   572A      5.264920   573A      5.286603  
     574A      5.301745   575A      5.324021   576A      5.332124  
     577A      5.337050   578A      5.358582   579A      5.394410  
     580A      5.398923   581A      5.407931   582A      5.419588  
     583A      5.430824   584A      5.452030   585A      5.469964  
     586A      5.484765   587A      5.510176   588A      5.519034  
     589A      5.530750   590A      5.535648   591A      5.565019  
     592A      5.588472   593A      5.606565   594A      5.624069  
     595A      5.659609   596A      5.668615   597A      5.702765  
     598A      5.711344   599A      5.726944   600A      5.734959  
     601A      5.748915   602A      5.757228   603A      5.789014  
     604A      5.832954   605A      5.846385   606A      5.910659  
     607A      5.939429   608A      5.955792   609A      5.966122  
     610A      6.008210   611A      6.021708   612A      6.055668  
     613A      6.067282   614A      6.103227   615A      6.123897  
     616A      6.145800   617A      6.172495   618A      6.216550  
     619A      6.228633   620A      6.244222   621A      6.253757  
     622A      6.257057   623A      6.315622   624A      6.335947  
     625A      6.364694   626A      6.434208   627A      6.458173  
     628A      6.500208   629A      6.562435   630A      6.608695  
     631A      6.629496   632A      6.645996   633A      6.703073  
     634A      6.727981   635A      6.750107   636A      6.820732  
     637A      6.842198   638A      6.852089   639A      6.872345  
     640A      6.877734   641A      6.898430   642A      6.904848  
     643A      6.910478   644A      6.945990   645A      6.954372  
     646A      6.996056   647A      7.051846   648A      7.060975  
     649A      7.105016   650A      7.130611   651A      7.155184  
     652A      7.214604   653A      7.241296   654A      7.254796  
     655A      7.302608   656A      7.348132   657A      7.386093  
     658A      7.405270   659A      7.423415   660A      7.444889  
     661A      7.448080   662A      7.473667   663A      7.498649  
     664A      7.587393   665A      7.615409   666A      7.653608  
     667A      7.680636   668A      7.728155   669A      7.730850  
     670A      7.768291   671A      7.798985   672A      7.811727  
     673A      7.893757   674A      7.920563   675A      7.944863  
     676A      8.027393   677A      8.058820   678A      8.076383  
     679A      8.323736   680A      8.567967   681A     15.536194  
     682A     15.862552   683A     16.263493   684A     16.748711  
     685A     17.268703   686A     18.007589   687A     18.599962  
     688A     18.826651   689A     19.923970   690A     20.467385  

    Final Occupation by Irrep:
              A 
    DOCC [    39 ]

  @DF-RHF Final Energy:  -528.88751930396302

   => Energetics <=

    Nuclear Repulsion Energy =            548.5635376892356589
    One-Electron Energy =               -1812.1258105519630135
    Two-Electron Energy =                 734.6747535587642233
    Total Energy =                       -528.8875193039630176

Computation Completed

*** tstop() called on node142.bme.utexas.edu at Fri Nov  6 11:11:20 2020
Module time:
	user time   =     670.72 seconds =      11.18 minutes
	system time =      66.52 seconds =       1.11 minutes
	total time  =        144 seconds =       2.40 minutes
Total time:
	user time   =     670.72 seconds =      11.18 minutes
	system time =      66.52 seconds =       1.11 minutes
	total time  =        144 seconds =       2.40 minutes
   => Loading Basis Set <=

    Name: (AUG-CC-PVTZ AUX)
    Role: RIFIT
    Keyword: DF_BASIS_MP2
    atoms 1-3   entry O          line   264 file /home/xy3866/psi4conda/share/psi4/basis/aug-cc-pvtz-ri.gbs 
    atoms 4-5   entry N          line   206 file /home/xy3866/psi4conda/share/psi4/basis/aug-cc-pvtz-ri.gbs 
    atoms 6-10  entry C          line   148 file /home/xy3866/psi4conda/share/psi4/basis/aug-cc-pvtz-ri.gbs 
    atoms 11-20 entry H          line    30 file /home/xy3866/psi4conda/share/psi4/basis/aug-cc-pvtz-ri.gbs 


*** tstart() called on node142.bme.utexas.edu
*** at Fri Nov  6 11:11:20 2020


  //>>>>>>>>>>>>>>>>>>>>>>>>>>>>>>>>>>>//
  //               DFMP2               //
  //<<<<<<<<<<<<<<<<<<<<<<<<<<<<<<<<<<<//

	 --------------------------------------------------------
	                          DF-MP2                         
	      2nd-Order Density-Fitted Moller-Plesset Theory     
	              RMP2 Wavefunction,   8 Threads             
	                                                         
	        Rob Parrish, Justin Turney, Andy Simmonett,      
	           Ed Hohenstein, and C. David Sherrill          
	 --------------------------------------------------------

   => Auxiliary Basis Set <=

  Basis Set: (AUG-CC-PVTZ AUX)
    Blend: AUG-CC-PVTZ-RI
    Number of shells: 420
    Number of basis function: 1520
    Number of Cartesian functions: 1910
    Spherical Harmonics?: true
    Max angular momentum: 4

	 --------------------------------------------------------
	                 NBF =   690, NAUX =  1520
	 --------------------------------------------------------
	   CLASS    FOCC     OCC    AOCC    AVIR     VIR    FVIR
	   PAIRS       0      39      39     651     651       0
	 --------------------------------------------------------

  DFHelper Memory: AOs need 5.065 GiB; user supplied 22.352 GiB. Using in-core AOs.


         ------------------------------------------------------------
                                     CPHF                           
                                  Rob Parrish                       
         ------------------------------------------------------------

  ==> Geometry <==

    Molecular point group: c1
    Full point group: C1

    Geometry (in Angstrom), charge = 0, multiplicity = 1:

       Center              X                  Y                   Z               Mass       
    ------------   -----------------  -----------------  -----------------  -----------------
         O           -2.245105356024    -1.614270412148    -0.138757503811    15.994914619570
         O           -2.179255356024     0.001405587852     1.449622496189    15.994914619570
         O            2.591658643976    -1.218799412148    -0.557093503811    15.994914619570
         N           -1.451515356024     1.931289587852    -0.491811503811    14.003074004430
         N            3.331310843976     0.537467687852     0.727867196189    14.003074004430
         C            0.104905643976     0.084862587852    -0.982998503811    12.000000000000
         C           -1.358977356024     0.503822587852    -0.787210503811    12.000000000000
         C            0.976263643976     0.400906587852     0.228012496189    12.000000000000
         C           -1.978635356024    -0.357994412148     0.299267496189    12.000000000000
         C            2.372436643976    -0.177432412148     0.060566496189    12.000000000000
         H            0.166531643976    -0.984282412148    -1.202767503811     1.007825032230
         H            0.485524643976     0.626774587852    -1.854439503811     1.007825032230
         H           -1.895325356024     0.300929587852    -1.720742503811     1.007825032230
         H            1.026082643976     1.483717587852     0.386861496189     1.007825032230
         H            0.551126643976    -0.035652412148     1.141643496189     1.007825032230
         H           -1.290859356024     2.053299587852     0.508928496189     1.007825032230
         H           -2.412450356024     2.239043587852    -0.640884503811     1.007825032230
         H            3.226501643976     1.456310587852     1.024460496189     1.007825032230
         H            4.313986643976     0.195798587852     0.553223496189     1.007825032230
         H           -2.584455356024    -2.104815412148     0.639163496189     1.007825032230

  Nuclear repulsion =  548.563537689235773
  Reference energy  = -528.887519303963018

  ==> Basis Set <==

  Basis Set: AUG-CC-PVTZ
    Blend: AUG-CC-PVTZ
    Number of shells: 230
    Number of basis function: 690
    Number of Cartesian functions: 800
    Spherical Harmonics?: true
    Max angular momentum: 3

  ==> CGRSolver (by Rob Parrish) <==

   Number of roots    =         1
   Preconditioning    =    JACOBI
   Convergence cutoff =     1E-06
   Maximum iterations =       100

  ==> CPHFRHamiltonian (by Rob Parrish) <== 

  ==> MemDFJK: Density-Fitted J/K Matrices <==

    J tasked:                   Yes
    K tasked:                   Yes
    wK tasked:                   No
    OpenMP threads:               8
    Memory [MiB]:             22888
    Algorithm:                 Disk
    Schwarz Cutoff:           1E-12
    Mask sparsity (%):       7.4640
    Fitting Condition:        1E-10

   => Auxiliary Basis Set <=

  Basis Set: (AUG-CC-PVTZ AUX)
    Blend: AUG-CC-PVTZ-JKFIT
    Number of shells: 440
    Number of basis function: 1500
    Number of Cartesian functions: 1860
    Spherical Harmonics?: true
    Max angular momentum: 4

  ==> CPHF Iterations <==

  => Iterations <=

             Iter  Converged  Remaining    Residual
  CGR           1          0          1   1.168E-01
  CGR           2          0          1   3.301E-02
  CGR           3          0          1   1.248E-02
  CGR           4          0          1   3.452E-03
  CGR           5          0          1   1.375E-03
  CGR           6          0          1   4.256E-04
  CGR           7          0          1   1.547E-04
  CGR           8          0          1   7.094E-05
  CGR           9          0          1   2.890E-05
  CGR          10          0          1   1.055E-05
  CGR          11          0          1   3.815E-06
  CGR          12          0          1   1.472E-06
  CGR          13          1          0   5.955E-07

    CGRSolver converged.

	-----------------------------------------------------------
	 ==================> DF-MP2 Energies <==================== 
	-----------------------------------------------------------
	 Reference Energy          =    -528.8875193039630176 [Eh]
	 Singles Energy            =      -0.0000000000000000 [Eh]
	 Same-Spin Energy          =      -0.5282597248354354 [Eh]
	 Opposite-Spin Energy      =      -1.6363814041224671 [Eh]
	 Correlation Energy        =      -2.1646411289579026 [Eh]
	 Total Energy              =    -531.0521604329209140 [Eh]
	-----------------------------------------------------------
	 ================> DF-SCS-MP2 Energies <================== 
	-----------------------------------------------------------
	 SCS Same-Spin Scale       =       0.3333333333333333 [-]
	 SCS Opposite-Spin Scale   =       1.2000000000000000 [-]
	 SCS Same-Spin Energy      =      -0.1760865749451451 [Eh]
	 SCS Opposite-Spin Energy  =      -1.9636576849469605 [Eh]
	 SCS Correlation Energy    =      -2.1397442598921055 [Eh]
	 SCS Total Energy          =    -531.0272635638551719 [Eh]
	-----------------------------------------------------------



Properties will be evaluated at  -0.000000,   0.000000,  -0.000000 [a0]

Properties computed using the MP2 density matrix

  Nuclear Dipole Moment: [e a0]
     X:     1.4732      Y:     4.8832      Z:    -1.0888

  Electronic Dipole Moment: [e a0]
     X:    -1.6039      Y:    -4.1366      Z:     1.4199

  Dipole Moment: [e a0]
     X:    -0.1307      Y:     0.7466      Z:     0.3311     Total:     0.8272

  Dipole Moment: [D]
     X:    -0.3323      Y:     1.8978      Z:     0.8417     Total:     2.1025


*** tstop() called on node142.bme.utexas.edu at Fri Nov  6 11:18:11 2020
Module time:
	user time   =    2364.77 seconds =      39.41 minutes
	system time =      84.31 seconds =       1.41 minutes
	total time  =        411 seconds =       6.85 minutes
Total time:
	user time   =    3036.78 seconds =      50.61 minutes
	system time =     150.93 seconds =       2.52 minutes
	total time  =        555 seconds =       9.25 minutes

    Psi4 stopped on: Friday, 06 November 2020 11:18AM
    Psi4 wall time for execution: 0:09:15.45

*** Psi4 exiting successfully. Buy a developer a beer!
