819552                                                                  
Freq      RMP2-FC                                                     6-31G(d)            
Number of atoms                            I               16
Info1-9                                    I   N=           9
          28          26        1002           0           0         100
           6           2           1
Charge                                     I                0
Multiplicity                               I                1
Number of electrons                        I               74
Number of alpha electrons                  I               37
Number of beta electrons                   I               37
Number of basis functions                  I              153
Number of independent functions            I              153
Number of point charges in /Mol/           I                0
Number of translation vectors              I                0
Atomic numbers                             I   N=          16
          16           8           7           6           6           6
           6           6           6           1           1           1
           1           1           1           1
Nuclear charges                            R   N=          16
  1.60000000E+01  8.00000000E+00  7.00000000E+00  6.00000000E+00  6.00000000E+00
  6.00000000E+00  6.00000000E+00  6.00000000E+00  6.00000000E+00  1.00000000E+00
  1.00000000E+00  1.00000000E+00  1.00000000E+00  1.00000000E+00  1.00000000E+00
  1.00000000E+00
Current cartesian coordinates              R   N=          48
 -2.77411287E+00 -2.09548841E+00  2.85197316E-01  2.80845561E+00 -2.76238690E+00
 -6.56867513E-01  3.87178829E+00  1.34405283E+00  1.91211642E-01 -5.16792815E-01
  2.15475448E-01 -9.82175034E-02  2.16952518E+00 -5.61499389E-01 -2.05221324E-01
 -1.60472586E+00  2.58419548E+00 -3.44050636E-01 -4.27056791E+00  2.50784081E+00
 -1.76445046E-01 -5.16680485E+00  8.51349352E-02  1.74801248E-01  6.55319688E+00
  7.60694695E-01  3.10566068E-01 -5.24709407E-01  4.29180914E+00 -7.04601861E-01
  3.24696980E+00  2.90802305E+00  1.09519335E+00 -5.48873118E+00  4.15040131E+00
 -3.28555759E-01 -7.11329391E+00 -5.17058146E-01  3.69477657E-01  7.01735380E+00
 -4.99545827E-01 -1.24993169E+00  7.07100021E+00 -1.78815958E-01  2.08101758E+00
  7.62406999E+00  2.51267455E+00  1.22105419E-01
Force Field                                I                0
Int Atom Types                             I   N=          16
           0           0           0           0           0           0
           0           0           0           0           0           0
           0           0           0           0
MM charges                                 R   N=          16
  0.00000000E+00  0.00000000E+00  0.00000000E+00  0.00000000E+00  0.00000000E+00
  0.00000000E+00  0.00000000E+00  0.00000000E+00  0.00000000E+00  0.00000000E+00
  0.00000000E+00  0.00000000E+00  0.00000000E+00  0.00000000E+00  0.00000000E+00
  0.00000000E+00
Integer atomic weights                     I   N=          16
          32          16          14          12          12          12
          12          12          12           1           1           1
           1           1           1           1
Real atomic weights                        R   N=          16
  3.19720718E+01  1.59949146E+01  1.40030740E+01  1.20000000E+01  1.20000000E+01
  1.20000000E+01  1.20000000E+01  1.20000000E+01  1.20000000E+01  1.00782504E+00
  1.00782504E+00  1.00782504E+00  1.00782504E+00  1.00782504E+00  1.00782504E+00
  1.00782504E+00
Atom fragment info                         I   N=          16
           0           0           0           0           0           0
           0           0           0           0           0           0
           0           0           0           0
Atom residue num                           I   N=          16
           0           0           0           0           0           0
           0           0           0           0           0           0
           0           0           0           0
Nuclear spins                              I   N=          16
           0           0           2           0           0           0
           0           0           0           1           1           1
           1           1           1           1
Nuclear ZEff                               R   N=          16
 -1.36000000E+01 -5.60000000E+00 -4.55000000E+00 -3.60000000E+00 -3.60000000E+00
 -3.60000000E+00 -3.60000000E+00 -3.60000000E+00 -3.60000000E+00 -1.00000000E+00
 -1.00000000E+00 -1.00000000E+00 -1.00000000E+00 -1.00000000E+00 -1.00000000E+00
 -1.00000000E+00
Nuclear QMom                               R   N=          16
  0.00000000E+00  0.00000000E+00  2.04400000E+00  0.00000000E+00  0.00000000E+00
  0.00000000E+00  0.00000000E+00  0.00000000E+00  0.00000000E+00  0.00000000E+00
  0.00000000E+00  0.00000000E+00  0.00000000E+00  0.00000000E+00  0.00000000E+00
  0.00000000E+00
Nuclear GFac                               R   N=          16
  0.00000000E+00  0.00000000E+00  4.03761000E-01  0.00000000E+00  0.00000000E+00
  0.00000000E+00  0.00000000E+00  0.00000000E+00  0.00000000E+00  2.79284600E+00
  2.79284600E+00  2.79284600E+00  2.79284600E+00  2.79284600E+00  2.79284600E+00
  2.79284600E+00
MicOpt                                     I   N=          16
          -1          -1          -1          -1          -1          -1
          -1          -1          -1          -1          -1          -1
          -1          -1          -1          -1
Number of contracted shells                I               51
Number of primitive shells                 I              133
Pure/Cartesian d shells                    I                1
Pure/Cartesian f shells                    I                0
Highest angular momentum                   I                2
Largest degree of contraction              I                6
Shell types                                I   N=          51
           0          -1          -1          -1           2           0
          -1          -1           2           0          -1          -1
           2           0          -1          -1           2           0
          -1          -1           2           0          -1          -1
           2           0          -1          -1           2           0
          -1          -1           2           0          -1          -1
           2           0           0           0           0           0
           0           0           0           0           0           0
           0           0           0
Number of primitives per shell             I   N=          51
           6           6           3           1           1           6
           3           1           1           6           3           1
           1           6           3           1           1           6
           3           1           1           6           3           1
           1           6           3           1           1           6
           3           1           1           6           3           1
           1           3           1           3           1           3
           1           3           1           3           1           3
           1           3           1
Shell to atom map                          I   N=          51
           1           1           1           1           1           2
           2           2           2           3           3           3
           3           4           4           4           4           5
           5           5           5           6           6           6
           6           7           7           7           7           8
           8           8           8           9           9           9
           9          10          10          11          11          12
          12          13          13          14          14          15
          15          16          16
Primitive exponents                        R   N=         133
  2.19171000E+04  3.30149000E+03  7.54146000E+02  2.12711000E+02  6.79896000E+01
  2.30515000E+01  4.23735000E+02  1.00710000E+02  3.21599000E+01  1.18079000E+01
  4.63110000E+00  1.87025000E+00  2.61584000E+00  9.22167000E-01  3.41287000E-01
  1.17167000E-01  6.50000000E-01  5.48467166E+03  8.25234946E+02  1.88046958E+02
  5.29645000E+01  1.68975704E+01  5.79963534E+00  1.55396162E+01  3.59993359E+00
  1.01376175E+00  2.70005823E-01  8.00000000E-01  4.17351146E+03  6.27457911E+02
  1.42902093E+02  4.02343293E+01  1.28202129E+01  4.39043701E+00  1.16263619E+01
  2.71627981E+00  7.72218397E-01  2.12031498E-01  8.00000000E-01  3.04752488E+03
  4.57369518E+02  1.03948685E+02  2.92101553E+01  9.28666296E+00  3.16392696E+00
  7.86827235E+00  1.88128854E+00  5.44249258E-01  1.68714478E-01  8.00000000E-01
  3.04752488E+03  4.57369518E+02  1.03948685E+02  2.92101553E+01  9.28666296E+00
  3.16392696E+00  7.86827235E+00  1.88128854E+00  5.44249258E-01  1.68714478E-01
  8.00000000E-01  3.04752488E+03  4.57369518E+02  1.03948685E+02  2.92101553E+01
  9.28666296E+00  3.16392696E+00  7.86827235E+00  1.88128854E+00  5.44249258E-01
  1.68714478E-01  8.00000000E-01  3.04752488E+03  4.57369518E+02  1.03948685E+02
  2.92101553E+01  9.28666296E+00  3.16392696E+00  7.86827235E+00  1.88128854E+00
  5.44249258E-01  1.68714478E-01  8.00000000E-01  3.04752488E+03  4.57369518E+02
  1.03948685E+02  2.92101553E+01  9.28666296E+00  3.16392696E+00  7.86827235E+00
  1.88128854E+00  5.44249258E-01  1.68714478E-01  8.00000000E-01  3.04752488E+03
  4.57369518E+02  1.03948685E+02  2.92101553E+01  9.28666296E+00  3.16392696E+00
  7.86827235E+00  1.88128854E+00  5.44249258E-01  1.68714478E-01  8.00000000E-01
  1.87311370E+01  2.82539436E+00  6.40121692E-01  1.61277759E-01  1.87311370E+01
  2.82539436E+00  6.40121692E-01  1.61277759E-01  1.87311370E+01  2.82539436E+00
  6.40121692E-01  1.61277759E-01  1.87311370E+01  2.82539436E+00  6.40121692E-01
  1.61277759E-01  1.87311370E+01  2.82539436E+00  6.40121692E-01  1.61277759E-01
  1.87311370E+01  2.82539436E+00  6.40121692E-01  1.61277759E-01  1.87311370E+01
  2.82539436E+00  6.40121692E-01  1.61277759E-01
Contraction coefficients                   R   N=         133
  1.86924085E-03  1.42303065E-02  6.96962317E-02  2.38487108E-01  4.83307220E-01
  3.38074154E-01 -2.37677050E-03 -3.16930067E-02 -1.13317024E-01  5.60900118E-02
  5.92255124E-01  4.55006095E-01 -2.50373114E-01  6.69567631E-02  1.05450627E+00
  1.00000000E+00  1.00000000E+00  1.83107443E-03  1.39501722E-02  6.84450781E-02
  2.32714336E-01  4.70192898E-01  3.58520853E-01 -1.10777550E-01 -1.48026263E-01
  1.13076702E+00  1.00000000E+00  1.00000000E+00  1.83477216E-03  1.39946270E-02
  6.85865518E-02  2.32240873E-01  4.69069948E-01  3.60455199E-01 -1.14961182E-01
 -1.69117479E-01  1.14585195E+00  1.00000000E+00  1.00000000E+00  1.83473713E-03
  1.40373228E-02  6.88426223E-02  2.32184443E-01  4.67941348E-01  3.62311985E-01
 -1.19332420E-01 -1.60854152E-01  1.14345644E+00  1.00000000E+00  1.00000000E+00
  1.83473713E-03  1.40373228E-02  6.88426223E-02  2.32184443E-01  4.67941348E-01
  3.62311985E-01 -1.19332420E-01 -1.60854152E-01  1.14345644E+00  1.00000000E+00
  1.00000000E+00  1.83473713E-03  1.40373228E-02  6.88426223E-02  2.32184443E-01
  4.67941348E-01  3.62311985E-01 -1.19332420E-01 -1.60854152E-01  1.14345644E+00
  1.00000000E+00  1.00000000E+00  1.83473713E-03  1.40373228E-02  6.88426223E-02
  2.32184443E-01  4.67941348E-01  3.62311985E-01 -1.19332420E-01 -1.60854152E-01
  1.14345644E+00  1.00000000E+00  1.00000000E+00  1.83473713E-03  1.40373228E-02
  6.88426223E-02  2.32184443E-01  4.67941348E-01  3.62311985E-01 -1.19332420E-01
 -1.60854152E-01  1.14345644E+00  1.00000000E+00  1.00000000E+00  1.83473713E-03
  1.40373228E-02  6.88426223E-02  2.32184443E-01  4.67941348E-01  3.62311985E-01
 -1.19332420E-01 -1.60854152E-01  1.14345644E+00  1.00000000E+00  1.00000000E+00
  3.34946043E-02  2.34726953E-01  8.13757326E-01  1.00000000E+00  3.34946043E-02
  2.34726953E-01  8.13757326E-01  1.00000000E+00  3.34946043E-02  2.34726953E-01
  8.13757326E-01  1.00000000E+00  3.34946043E-02  2.34726953E-01  8.13757326E-01
  1.00000000E+00  3.34946043E-02  2.34726953E-01  8.13757326E-01  1.00000000E+00
  3.34946043E-02  2.34726953E-01  8.13757326E-01  1.00000000E+00  3.34946043E-02
  2.34726953E-01  8.13757326E-01  1.00000000E+00
P(S=P) Contraction coefficients            R   N=         133
  0.00000000E+00  0.00000000E+00  0.00000000E+00  0.00000000E+00  0.00000000E+00
  0.00000000E+00  4.06100998E-03  3.06812999E-02  1.30451999E-01  3.27204999E-01
  4.52850998E-01  2.56041999E-01 -1.45104895E-02  3.10262776E-01  7.54482456E-01
  1.00000000E+00  0.00000000E+00  0.00000000E+00  0.00000000E+00  0.00000000E+00
  0.00000000E+00  0.00000000E+00  0.00000000E+00  7.08742682E-02  3.39752839E-01
  7.27158577E-01  1.00000000E+00  0.00000000E+00  0.00000000E+00  0.00000000E+00
  0.00000000E+00  0.00000000E+00  0.00000000E+00  0.00000000E+00  6.75797439E-02
  3.23907296E-01  7.40895140E-01  1.00000000E+00  0.00000000E+00  0.00000000E+00
  0.00000000E+00  0.00000000E+00  0.00000000E+00  0.00000000E+00  0.00000000E+00
  6.89990666E-02  3.16423961E-01  7.44308291E-01  1.00000000E+00  0.00000000E+00
  0.00000000E+00  0.00000000E+00  0.00000000E+00  0.00000000E+00  0.00000000E+00
  0.00000000E+00  6.89990666E-02  3.16423961E-01  7.44308291E-01  1.00000000E+00
  0.00000000E+00  0.00000000E+00  0.00000000E+00  0.00000000E+00  0.00000000E+00
  0.00000000E+00  0.00000000E+00  6.89990666E-02  3.16423961E-01  7.44308291E-01
  1.00000000E+00  0.00000000E+00  0.00000000E+00  0.00000000E+00  0.00000000E+00
  0.00000000E+00  0.00000000E+00  0.00000000E+00  6.89990666E-02  3.16423961E-01
  7.44308291E-01  1.00000000E+00  0.00000000E+00  0.00000000E+00  0.00000000E+00
  0.00000000E+00  0.00000000E+00  0.00000000E+00  0.00000000E+00  6.89990666E-02
  3.16423961E-01  7.44308291E-01  1.00000000E+00  0.00000000E+00  0.00000000E+00
  0.00000000E+00  0.00000000E+00  0.00000000E+00  0.00000000E+00  0.00000000E+00
  6.89990666E-02  3.16423961E-01  7.44308291E-01  1.00000000E+00  0.00000000E+00
  0.00000000E+00  0.00000000E+00  0.00000000E+00  0.00000000E+00  0.00000000E+00
  0.00000000E+00  0.00000000E+00  0.00000000E+00  0.00000000E+00  0.00000000E+00
  0.00000000E+00  0.00000000E+00  0.00000000E+00  0.00000000E+00  0.00000000E+00
  0.00000000E+00  0.00000000E+00  0.00000000E+00  0.00000000E+00  0.00000000E+00
  0.00000000E+00  0.00000000E+00  0.00000000E+00  0.00000000E+00  0.00000000E+00
  0.00000000E+00  0.00000000E+00  0.00000000E+00
Coordinates of each shell                  R   N=         153
 -2.77411287E+00 -2.09548841E+00  2.85197316E-01 -2.77411287E+00 -2.09548841E+00
  2.85197316E-01 -2.77411287E+00 -2.09548841E+00  2.85197316E-01 -2.77411287E+00
 -2.09548841E+00  2.85197316E-01 -2.77411287E+00 -2.09548841E+00  2.85197316E-01
  2.80845561E+00 -2.76238690E+00 -6.56867513E-01  2.80845561E+00 -2.76238690E+00
 -6.56867513E-01  2.80845561E+00 -2.76238690E+00 -6.56867513E-01  2.80845561E+00
 -2.76238690E+00 -6.56867513E-01  3.87178829E+00  1.34405283E+00  1.91211642E-01
  3.87178829E+00  1.34405283E+00  1.91211642E-01  3.87178829E+00  1.34405283E+00
  1.91211642E-01  3.87178829E+00  1.34405283E+00  1.91211642E-01 -5.16792815E-01
  2.15475448E-01 -9.82175034E-02 -5.16792815E-01  2.15475448E-01 -9.82175034E-02
 -5.16792815E-01  2.15475448E-01 -9.82175034E-02 -5.16792815E-01  2.15475448E-01
 -9.82175034E-02  2.16952518E+00 -5.61499389E-01 -2.05221324E-01  2.16952518E+00
 -5.61499389E-01 -2.05221324E-01  2.16952518E+00 -5.61499389E-01 -2.05221324E-01
  2.16952518E+00 -5.61499389E-01 -2.05221324E-01 -1.60472586E+00  2.58419548E+00
 -3.44050636E-01 -1.60472586E+00  2.58419548E+00 -3.44050636E-01 -1.60472586E+00
  2.58419548E+00 -3.44050636E-01 -1.60472586E+00  2.58419548E+00 -3.44050636E-01
 -4.27056791E+00  2.50784081E+00 -1.76445046E-01 -4.27056791E+00  2.50784081E+00
 -1.76445046E-01 -4.27056791E+00  2.50784081E+00 -1.76445046E-01 -4.27056791E+00
  2.50784081E+00 -1.76445046E-01 -5.16680485E+00  8.51349352E-02  1.74801248E-01
 -5.16680485E+00  8.51349352E-02  1.74801248E-01 -5.16680485E+00  8.51349352E-02
  1.74801248E-01 -5.16680485E+00  8.51349352E-02  1.74801248E-01  6.55319688E+00
  7.60694695E-01  3.10566068E-01  6.55319688E+00  7.60694695E-01  3.10566068E-01
  6.55319688E+00  7.60694695E-01  3.10566068E-01  6.55319688E+00  7.60694695E-01
  3.10566068E-01 -5.24709407E-01  4.29180914E+00 -7.04601861E-01 -5.24709407E-01
  4.29180914E+00 -7.04601861E-01  3.24696980E+00  2.90802305E+00  1.09519335E+00
  3.24696980E+00  2.90802305E+00  1.09519335E+00 -5.48873118E+00  4.15040131E+00
 -3.28555759E-01 -5.48873118E+00  4.15040131E+00 -3.28555759E-01 -7.11329391E+00
 -5.17058146E-01  3.69477657E-01 -7.11329391E+00 -5.17058146E-01  3.69477657E-01
  7.01735380E+00 -4.99545827E-01 -1.24993169E+00  7.01735380E+00 -4.99545827E-01
 -1.24993169E+00  7.07100021E+00 -1.78815958E-01  2.08101758E+00  7.07100021E+00
 -1.78815958E-01  2.08101758E+00  7.62406999E+00  2.51267455E+00  1.22105419E-01
  7.62406999E+00  2.51267455E+00  1.22105419E-01
Constraint Structure                       R   N=          48
 -2.77411287E+00 -2.09548841E+00  2.85197316E-01  2.80845561E+00 -2.76238690E+00
 -6.56867513E-01  3.87178829E+00  1.34405283E+00  1.91211642E-01 -5.16792815E-01
  2.15475448E-01 -9.82175034E-02  2.16952518E+00 -5.61499389E-01 -2.05221324E-01
 -1.60472586E+00  2.58419548E+00 -3.44050636E-01 -4.27056791E+00  2.50784081E+00
 -1.76445046E-01 -5.16680485E+00  8.51349352E-02  1.74801248E-01  6.55319688E+00
  7.60694695E-01  3.10566068E-01 -5.24709407E-01  4.29180914E+00 -7.04601861E-01
  3.24696980E+00  2.90802305E+00  1.09519335E+00 -5.48873118E+00  4.15040131E+00
 -3.28555759E-01 -7.11329391E+00 -5.17058146E-01  3.69477657E-01  7.01735380E+00
 -4.99545827E-01 -1.24993169E+00  7.07100021E+00 -1.78815958E-01  2.08101758E+00
  7.62406999E+00  2.51267455E+00  1.22105419E-01
Num ILSW                                   I              100
ILSW                                       I   N=         100
           0           1           0           0           2           0
           0           0           0           0           0          -1
           0           0           0           0           0           0
           0           0           0           0           1           0
           1           0           0           0           0           0
           0           0      100000           0          -1           0
           0           0           0           0           0           0
           0           0           0           1           1           0
           0           0           1           0           0           0
           0           0           4          40           0           0
           0           0           0           0           0           0
           0           0           0           0           0           0
           0           0           0           0           0           0
           0           0           0           0           0           0
           0           0           0           0           0           0
           0           0           0           0           0           0
           0           0           0           0
Num RLSW                                   I               40
RLSW                                       R   N=          40
  1.00000000E+00  1.00000000E+00  1.00000000E+00  1.00000000E+00  1.00000000E+00
  0.00000000E+00  0.00000000E+00  1.00000000E+00  0.00000000E+00  0.00000000E+00
  0.00000000E+00  0.00000000E+00  1.00000000E+00  0.00000000E+00  0.00000000E+00
  0.00000000E+00  0.00000000E+00  1.00000000E+00  0.00000000E+00  0.00000000E+00
  0.00000000E+00  0.00000000E+00  1.00000000E+00  0.00000000E+00  0.00000000E+00
  0.00000000E+00  0.00000000E+00  1.00000000E+00  0.00000000E+00  0.00000000E+00
  0.00000000E+00  0.00000000E+00  0.00000000E+00  0.00000000E+00  0.00000000E+00
  0.00000000E+00  0.00000000E+00  0.00000000E+00  1.00000000E+00  1.00000000E+00
MxBond                                     I                4
NBond                                      I   N=          16
           2           1           3           3           3           3
           3           3           4           1           1           1
           1           1           1           1
IBond                                      I   N=          64
           4           8           0           0           5           0
           0           0           5           9          11           0
           1           5           6           0           2           3
           4           0           4           7          10           0
           6           8          12           0           1           7
          13           0           3          14          15          16
           6           0           0           0           3           0
           0           0           7           0           0           0
           8           0           0           0           9           0
           0           0           9           0           0           0
           9           0           0           0
RBond                                      R   N=          64
  1.00000000E+00  1.00000000E+00  0.00000000E+00  0.00000000E+00  2.00000000E+00
  0.00000000E+00  0.00000000E+00  0.00000000E+00  1.00000000E+00  1.00000000E+00
  1.00000000E+00  0.00000000E+00  1.00000000E+00  1.50000000E+00  1.50000000E+00
  0.00000000E+00  2.00000000E+00  1.00000000E+00  1.50000000E+00  0.00000000E+00
  1.50000000E+00  1.50000000E+00  1.00000000E+00  0.00000000E+00  1.50000000E+00
  1.50000000E+00  1.00000000E+00  0.00000000E+00  1.00000000E+00  1.50000000E+00
  1.00000000E+00  0.00000000E+00  1.00000000E+00  1.00000000E+00  1.00000000E+00
  1.00000000E+00  1.00000000E+00  0.00000000E+00  0.00000000E+00  0.00000000E+00
  1.00000000E+00  0.00000000E+00  0.00000000E+00  0.00000000E+00  1.00000000E+00
  0.00000000E+00  0.00000000E+00  0.00000000E+00  1.00000000E+00  0.00000000E+00
  0.00000000E+00  0.00000000E+00  1.00000000E+00  0.00000000E+00  0.00000000E+00
  0.00000000E+00  1.00000000E+00  0.00000000E+00  0.00000000E+00  0.00000000E+00
  1.00000000E+00  0.00000000E+00  0.00000000E+00  0.00000000E+00
Virial Ratio                               R      2.001452364927398E+00
SCF Energy                                 R     -7.581006274414035E+02
MP2 Energy                                 R     -7.593345637172486E+02
Total Energy                               R     -7.593345637172486E+02
Post-SCF wavefunction norm                 R      1.695127993083005E+00
RMS Force                                  R      1.356336425714942E-07
RMS Density                                R      2.862252730827629E-09
External E-field                           R   N=          35
  0.00000000E+00  0.00000000E+00  0.00000000E+00  0.00000000E+00  0.00000000E+00
  0.00000000E+00  0.00000000E+00  0.00000000E+00  0.00000000E+00  0.00000000E+00
  0.00000000E+00  0.00000000E+00  0.00000000E+00  0.00000000E+00  0.00000000E+00
  0.00000000E+00  0.00000000E+00  0.00000000E+00  0.00000000E+00  0.00000000E+00
  0.00000000E+00  0.00000000E+00  0.00000000E+00  0.00000000E+00  0.00000000E+00
  0.00000000E+00  0.00000000E+00  0.00000000E+00  0.00000000E+00  0.00000000E+00
  0.00000000E+00  0.00000000E+00  0.00000000E+00  0.00000000E+00  0.00000000E+00
IOpCl                                      I                0
IROHF                                      I                0
Alpha Orbital Energies                     R   N=         153
 -9.19812096E+01 -2.05274374E+01 -1.55925291E+01 -1.13627515E+01 -1.12779258E+01
 -1.12749312E+01 -1.12624866E+01 -1.12610735E+01 -1.12501663E+01 -8.99083044E+00
 -6.67319516E+00 -6.67225621E+00 -6.67079201E+00 -1.37359229E+00 -1.22951747E+00
 -1.18212060E+00 -1.01765073E+00 -9.98828389E-01 -9.44062609E-01 -8.29928394E-01
 -7.68392732E-01 -7.65796341E-01 -7.18859735E-01 -6.43432256E-01 -6.35777807E-01
 -6.22275318E-01 -5.75707188E-01 -5.69413690E-01 -5.53662748E-01 -5.50674226E-01
 -5.30511125E-01 -5.06240095E-01 -4.82980142E-01 -4.28832610E-01 -3.93079296E-01
 -3.52759243E-01 -3.31321433E-01  8.81190033E-02  1.86491642E-01  1.94209523E-01
  2.21371722E-01  2.48745516E-01  2.57869268E-01  2.71118012E-01  2.79884729E-01
  3.07003478E-01  3.13890308E-01  3.31398257E-01  3.38395843E-01  3.68421219E-01
  3.97284776E-01  4.27548525E-01  4.41815208E-01  5.08083989E-01  5.31447696E-01
  5.38514249E-01  5.89487988E-01  5.95704226E-01  6.29433478E-01  6.74078371E-01
  7.26673203E-01  7.38091942E-01  7.52657608E-01  7.70461744E-01  7.83893310E-01
  7.99505839E-01  8.11423201E-01  8.24638181E-01  8.62210057E-01  8.81849168E-01
  8.93488468E-01  9.14562191E-01  9.61313285E-01  9.68546509E-01  9.95723948E-01
  1.01181540E+00  1.04148181E+00  1.06877791E+00  1.07203416E+00  1.08604439E+00
  1.09896963E+00  1.11414554E+00  1.12706402E+00  1.13498166E+00  1.17127247E+00
  1.17293208E+00  1.20539090E+00  1.21266541E+00  1.21695515E+00  1.24433032E+00
  1.27832064E+00  1.28485333E+00  1.31315690E+00  1.35643273E+00  1.36732857E+00
  1.38752436E+00  1.41955026E+00  1.43539844E+00  1.53589289E+00  1.56195010E+00
  1.61253542E+00  1.62043426E+00  1.65989949E+00  1.68422306E+00  1.71848434E+00
  1.72550279E+00  1.79255855E+00  1.82249509E+00  1.90589834E+00  1.99239570E+00
  2.06580320E+00  2.10037726E+00  2.12645462E+00  2.15456731E+00  2.17776985E+00
  2.20673603E+00  2.22282778E+00  2.25478344E+00  2.28262903E+00  2.32921196E+00
  2.34883444E+00  2.40161203E+00  2.43235475E+00  2.46845561E+00  2.50010417E+00
  2.55195640E+00  2.56489697E+00  2.58619273E+00  2.61697092E+00  2.63767902E+00
  2.72377255E+00  2.75892049E+00  2.78056322E+00  2.81383311E+00  2.87365151E+00
  2.96150839E+00  2.98310669E+00  2.99946507E+00  3.08941186E+00  3.16424153E+00
  3.30290636E+00  3.34223335E+00  3.45221040E+00  3.54505413E+00  4.34713871E+00
  4.40554693E+00  4.44607146E+00  4.52410632E+00  4.55231526E+00  4.68693084E+00
  4.73889556E+00  4.84182942E+00  4.99000332E+00
Alpha MO coefficients                      R   N=       23409
  9.96255315E-01  1.42531654E-02  8.32144267E-06  9.40655599E-05 -1.02421757E-05
 -1.99928379E-02 -5.64546930E-05 -1.82254933E-04  2.62058934E-05  2.15210323E-03
  7.55504460E-06 -3.72017291E-05  5.22270437E-06  6.88215702E-03  6.88708214E-03
  6.91118399E-03  2.44526453E-06  2.93121858E-06  5.26641892E-06 -1.58172067E-05
 -6.95442712E-05 -9.35517155E-06 -1.28773720E-05 -7.20720627E-06  5.66889523E-04
  3.34774385E-06  1.85299484E-04  5.93761733E-05 -6.93010213E-05 -1.90676529E-05
 -3.52893282E-05 -1.22970322E-05  9.15441685E-07  9.02774467E-06 -6.03100819E-08
  4.73916114E-06  1.50671265E-05 -2.88866372E-06 -3.14179479E-06 -2.41135770E-04
  1.24163316E-05  3.93407321E-05  3.67371580E-05 -1.17264605E-05  1.57879808E-05
 -1.18313231E-05  4.91964011E-06 -2.95754572E-06  1.94543966E-06  2.02825269E-05
  1.30585745E-04 -1.63896184E-05  3.87074022E-06  4.59360515E-06 -6.16282234E-04
 -1.71599047E-04 -7.99188811E-04  6.26246463E-05  7.75519113E-06 -1.64152680E-05
  5.86867072E-06 -5.18464323E-05  1.30913608E-06  6.82569347E-06 -5.35652500E-06
 -3.14239573E-06  5.12953793E-06  8.45389209E-06  4.65438190E-06 -1.50181019E-04
  1.32105389E-05  6.61209742E-04  3.31260728E-05 -4.15444388E-05 -1.43695403E-05
 -1.17007501E-05 -6.31871289E-06  1.13769834E-05 -7.75233380E-06 -6.97385053E-06
 -6.67265282E-05 -8.02290310E-06  1.21556513E-05 -3.15328645E-06  9.42189288E-04
  1.15710346E-04 -3.43872933E-04  6.00679848E-05  3.52556536E-05 -6.24737454E-07
 -2.05944724E-05 -3.29257866E-06 -2.67030762E-06 -6.75798048E-06  1.24624366E-05
  4.22380191E-05  1.55638108E-05  1.48544718E-05 -2.44266534E-06 -6.49144195E-04
 -3.18451422E-04  5.01681051E-04 -5.07317305E-05  1.69554736E-05  3.57278822E-07
  1.78610067E-05 -1.16331753E-05  7.15949398E-07  2.61561205E-06  6.19126516E-06
  7.19965200E-05  3.38737966E-05 -2.55315815E-05 -1.66141645E-07  5.01057915E-04
  4.32453498E-04  1.19248466E-04 -3.72249180E-05 -2.70396527E-05 -7.76194843E-06
 -2.57655698E-05  6.23063994E-05 -7.00660474E-06 -5.97836007E-06 -1.12553027E-06
 -1.14038245E-05 -7.21266250E-06  2.39982501E-06 -1.21825461E-06  5.81138134E-05
 -3.48947548E-05 -1.07386569E-05 -9.56760381E-06  9.61627917E-06 -4.77229672E-07
 -1.06876819E-06 -1.01260366E-06  2.52603172E-06 -8.75923140E-07 -2.36585584E-05
  1.27800573E-05 -3.10994914E-06 -2.07144749E-05 -4.22867653E-05 -1.74438539E-04
  8.20741235E-06  6.40008238E-05 -1.75185001E-06 -1.16391080E-05 -5.66661316E-06
  4.24380712E-06 -2.20280336E-06  7.76082207E-06  2.20188721E-07  3.21966372E-06
 -1.94948696E-06  3.98725418E-06  1.94428400E-07  1.44840548E-05  1.84474908E-05
 -2.04716579E-05 -3.40964772E-06 -2.03287610E-05 -1.57417064E-04  4.48266021E-05
  2.26573184E-05 -1.03277361E-06  2.99381524E-06  7.11325383E-06 -1.60526625E-05
  5.14772725E-06  3.46742544E-06  9.94695515E-01  2.09688636E-02 -4.11210554E-04
  1.45068983E-03  2.98694096E-04  4.40444326E-03  3.11818615E-05 -9.99164438E-05
 -1.38319022E-05 -3.87575380E-03 -3.70403878E-03 -4.07838942E-03 -7.47379536E-05
 -3.09242492E-06  1.02127356E-04 -8.19307292E-06 -3.73629579E-05 -5.42924692E-06
  3.42472172E-05  5.93805179E-06  1.10767703E-04  2.93738015E-05 -7.61629553E-05
 -5.93996808E-06  8.17003965E-05 -8.34826694E-05 -5.31005827E-05  1.84218707E-05
  9.63187549E-06 -1.10570454E-05 -2.23724554E-06  7.33568911E-06 -1.30968708E-05
  2.58033031E-05  7.54508275E-06 -1.28929969E-04  5.75499419E-05 -1.61903723E-04
 -1.30537398E-06  1.23010126E-05 -5.65078561E-05 -2.11440637E-05  7.27865099E-05
  8.95726142E-06 -3.38096293E-06 -3.15554158E-06  5.21030547E-04 -2.95827400E-07
 -2.34327714E-06 -3.71659097E-06 -3.89046055E-04 -1.55073101E-04  4.12574051E-04
  8.01778547E-05 -9.68862653E-05 -6.79749424E-04 -7.77151546E-05  1.96626366E-04