
    -----------------------------------------------------------------------
          Psi4: An Open-Source Ab Initio Electronic Structure Package
                               Psi4 1.4a3.dev225 

                         Git: Rev {master} 7105e37 


    D. G. A. Smith, L. A. Burns, A. C. Simmonett, R. M. Parrish,
    M. C. Schieber, R. Galvelis, P. Kraus, H. Kruse, R. Di Remigio,
    A. Alenaizan, A. M. James, S. Lehtola, J. P. Misiewicz, M. Scheurer,
    R. A. Shaw, J. B. Schriber, Y. Xie, Z. L. Glick, D. A. Sirianni,
    J. S. O'Brien, J. M. Waldrop, A. Kumar, E. G. Hohenstein,
    B. P. Pritchard, B. R. Brooks, H. F. Schaefer III, A. Yu. Sokolov,
    K. Patkowski, A. E. DePrince III, U. Bozkaya, R. A. King,
    F. A. Evangelista, J. M. Turney, T. D. Crawford, C. D. Sherrill,
    J. Chem. Phys. 152(18) 184108 (2020). https://doi.org/10.1063/5.0006002

                            Additional Code Authors
    E. T. Seidl, C. L. Janssen, E. F. Valeev, M. L. Leininger,
    J. F. Gonthier, R. M. Richard, H. R. McAlexander, M. Saitow, X. Wang,
    P. Verma, and M. H. Lechner

             Previous Authors, Complete List of Code Contributors,
                       and Citations for Specific Modules
    https://github.com/psi4/psi4/blob/master/codemeta.json
    https://github.com/psi4/psi4/graphs/contributors
    http://psicode.org/psi4manual/master/introduction.html#citing-psifour

    -----------------------------------------------------------------------


    Psi4 started on: Sunday, 07 March 2021 01:30AM

    Process ID: 174980
    Host:       c419-121.stampede2.tacc.utexas.edu
    PSIDATADIR: /home1/07844/xy3866/miniconda3/envs/p4env/share/psi4
    Memory:     500.0 MiB
    Threads:    32
    
  ==> Input File <==

--------------------------------------------------------------------------
#psi4
#
memory 32 gb

molecule  {
-1 1
  O       -2.9714190     0.8843310    -0.7445430
  O       -2.9714760    -0.8842960     0.7444570
  O       -0.5719940    -3.2988010     0.7833720
  O       -0.5719130     3.2988430    -0.7832930
  O       -1.5583320    -2.6751640    -1.0959160
  O       -1.5583470     2.6751420     1.0959240
  O        3.9378030    -1.0985810    -0.0520130
  O        3.9378150     1.0985380     0.0519920
  N       -0.8441900    -2.4722020    -0.1047670
  N       -0.8003716     2.6051697    -0.0380452
  N        3.3563290    -0.0000180    -0.0000080
  C       -0.9300790     0.0000040     0.0000050
  C       -0.1699680    -1.1712100    -0.0217940
  C       -0.1699550     1.1712130     0.0218080
  C        1.8913620    -0.0000110     0.0000000
  C        1.2196430    -1.2181880    -0.0070480
  C        1.2196550     1.2181740     0.0070530
  C       -2.4885490     0.0000140    -0.0000270
  H        1.7571850    -2.1596840    -0.0048420
  H        1.7572080     2.1596640     0.0048470
units angstrom
no_reorient  #important for SAPT in psi4, default
symmetry c1  #important for SAPT in psi4, default
}

set PROPERTIES_ORIGIN ["COM"]
properties('MP2/aug-cc-pvtz', properties = ['dipole'])
--------------------------------------------------------------------------

  Memory set to  29.802 GiB by Python driver.
    SCF Algorithm Type (re)set to DF.

*** tstart() called on c419-121.stampede2.tacc.utexas.edu
*** at Sun Mar  7 01:30:52 2021

   => Loading Basis Set <=

    Name: AUG-CC-PVTZ
    Role: ORBITAL
    Keyword: BASIS
    atoms 1-8   entry O          line   331 file /home1/07844/xy3866/miniconda3/envs/p4env/share/psi4/basis/aug-cc-pvtz.gbs 
    atoms 9-11  entry N          line   285 file /home1/07844/xy3866/miniconda3/envs/p4env/share/psi4/basis/aug-cc-pvtz.gbs 
    atoms 12-18 entry C          line   239 file /home1/07844/xy3866/miniconda3/envs/p4env/share/psi4/basis/aug-cc-pvtz.gbs 
    atoms 19-20 entry H          line    40 file /home1/07844/xy3866/miniconda3/envs/p4env/share/psi4/basis/aug-cc-pvtz.gbs 


         ---------------------------------------------------------
                                   SCF
               by Justin Turney, Rob Parrish, Andy Simmonett
                          and Daniel G. A. Smith
                              RHF Reference
                       32 Threads,  30517 MiB Core
         ---------------------------------------------------------

  ==> Geometry <==

    Molecular point group: c1
    Full point group: C1

    Geometry (in Angstrom), charge = -1, multiplicity = 1:

       Center              X                  Y                   Z               Mass       
    ------------   -----------------  -----------------  -----------------  -----------------
         O           -2.960259079839     0.877057784113    -0.736728952200    15.994914619570
         O           -2.960316079839    -0.891569215887     0.752271047800    15.994914619570
         O           -0.560834079839    -3.306074215887     0.791186047800    15.994914619570
         O           -0.560753079839     3.291569784113    -0.775478952200    15.994914619570
         O           -1.547172079839    -2.682437215887    -1.088101952200    15.994914619570
         O           -1.547187079839     2.667868784113     1.103738047800    15.994914619570
         O            3.948962920161    -1.105854215887    -0.044198952200    15.994914619570
         O            3.948974920161     1.091264784113     0.059806047800    15.994914619570
         N           -0.833030079839    -2.479475215887    -0.096952952200    14.003074004430
         N           -0.789211679839     2.597896484113    -0.030231152200    14.003074004430
         N            3.367488920161    -0.007291215887     0.007806047800    14.003074004430
         C           -0.918919079839    -0.007269215887     0.007819047800    12.000000000000
         C           -0.158808079839    -1.178483215887    -0.013979952200    12.000000000000
         C           -0.158795079839     1.163939784113     0.029622047800    12.000000000000
         C            1.902521920161    -0.007284215887     0.007814047800    12.000000000000
         C            1.230802920161    -1.225461215887     0.000766047800    12.000000000000
         C            1.230814920161     1.210900784113     0.014867047800    12.000000000000
         C           -2.477389079839    -0.007259215887     0.007787047800    12.000000000000
         H            1.768344920161    -2.166957215887     0.002972047800     1.007825032230
         H            1.768367920161     2.152390784113     0.012661047800     1.007825032230

  Running in c1 symmetry.

  Rotational constants: A =      0.01729  B =      0.01307  C =      0.00798 [cm^-1]
  Rotational constants: A =    518.19950  B =    391.90050  C =    239.19795 [MHz]
  Nuclear repulsion = 1322.588821319718818

  Charge       = -1
  Multiplicity = 1
  Electrons    = 130
  Nalpha       = 65
  Nbeta        = 65

  ==> Algorithm <==

  SCF Algorithm Type is DF.
  DIIS enabled.
  MOM disabled.
  Fractional occupation disabled.
  Guess Type is SAD.
  Energy threshold   = 1.00e-10
  Density threshold  = 1.00e-10
  Integral threshold = 1.00e-12

  ==> Primary Basis <==

  Basis Set: AUG-CC-PVTZ
    Blend: AUG-CC-PVTZ
    Number of shells: 270
    Number of basis functions: 874
    Number of Cartesian functions: 1040
    Spherical Harmonics?: true
    Max angular momentum: 3

   => Loading Basis Set <=

    Name: (AUG-CC-PVTZ AUX)
    Role: JKFIT
    Keyword: DF_BASIS_SCF
    atoms 1-8   entry O          line   286 file /home1/07844/xy3866/miniconda3/envs/p4env/share/psi4/basis/aug-cc-pvtz-jkfit.gbs 
    atoms 9-11  entry N          line   224 file /home1/07844/xy3866/miniconda3/envs/p4env/share/psi4/basis/aug-cc-pvtz-jkfit.gbs 
    atoms 12-18 entry C          line   162 file /home1/07844/xy3866/miniconda3/envs/p4env/share/psi4/basis/aug-cc-pvtz-jkfit.gbs 
    atoms 19-20 entry H          line    70 file /home1/07844/xy3866/miniconda3/envs/p4env/share/psi4/basis/aug-cc-pvtz-jkfit.gbs 

  ==> Integral Setup <==

  DFHelper Memory: AOs need 9.419 GiB; user supplied 22.352 GiB. Using in-core AOs.

  ==> MemDFJK: Density-Fitted J/K Matrices <==

    J tasked:                   Yes
    K tasked:                   Yes
    wK tasked:                   No
    OpenMP threads:              32
    Memory [MiB]:             22888
    Algorithm:                 Core
    Schwarz Cutoff:           1E-12
    Mask sparsity (%):      18.9992
    Fitting Condition:        1E-10

   => Auxiliary Basis Set <=

  Basis Set: (AUG-CC-PVTZ AUX)
    Blend: AUG-CC-PVTZ-JKFIT
    Number of shells: 568
    Number of basis functions: 1964
    Number of Cartesian functions: 2468
    Spherical Harmonics?: true
    Max angular momentum: 4

  Minimum eigenvalue in the overlap matrix is 3.3288237801E-07.
  Reciprocal condition number of the overlap matrix is 1.8039977545E-08.
    Using symmetric orthogonalization.

  ==> Pre-Iterations <==

  SCF Guess: Superposition of Atomic Densities via on-the-fly atomic UHF (no occupation information).

   -------------------------
    Irrep   Nso     Nmo    
   -------------------------
     A        874     874 
   -------------------------
    Total     874     874
   -------------------------

  ==> Iterations <==

                           Total Energy        Delta E     RMS |[F,P]|

   @DF-RHF iter SAD: -1027.13567461050798   -1.02714e+03   0.00000e+00 
   @DF-RHF iter   1: -1027.79696516397462   -6.61291e-01   1.46911e-03 DIIS
   @DF-RHF iter   2: -1028.07993635972321   -2.82971e-01   1.22504e-03 DIIS
   @DF-RHF iter   3: -1028.45172813687327   -3.71792e-01   1.53876e-04 DIIS
   @DF-RHF iter   4: -1028.46102573728672   -9.29760e-03   8.55123e-05 DIIS
   @DF-RHF iter   5: -1028.46424550443498   -3.21977e-03   2.67373e-05 DIIS
   @DF-RHF iter   6: -1028.46484126205405   -5.95758e-04   1.32574e-05 DIIS
   @DF-RHF iter   7: -1028.46507330188729   -2.32040e-04   6.86348e-06 DIIS
   @DF-RHF iter   8: -1028.46514932263926   -7.60208e-05   2.92465e-06 DIIS
   @DF-RHF iter   9: -1028.46516304514216   -1.37225e-05   1.35274e-06 DIIS
   @DF-RHF iter  10: -1028.46516504001784   -1.99488e-06   4.96320e-07 DIIS
   @DF-RHF iter  11: -1028.46516529042037   -2.50403e-07   1.64934e-07 DIIS
   @DF-RHF iter  12: -1028.46516532009036   -2.96700e-08   8.39269e-08 DIIS
   @DF-RHF iter  13: -1028.46516532731448   -7.22412e-09   3.87666e-08 DIIS
   @DF-RHF iter  14: -1028.46516532955548   -2.24099e-09   2.09340e-08 DIIS
   @DF-RHF iter  15: -1028.46516533028171   -7.26232e-10   1.07105e-08 DIIS
   @DF-RHF iter  16: -1028.46516533048566   -2.03954e-10   5.25275e-09 DIIS
   @DF-RHF iter  17: -1028.46516533051749   -3.18323e-11   2.61117e-09 DIIS
   @DF-RHF iter  18: -1028.46516533052750   -1.00044e-11   1.27203e-09 DIIS
   @DF-RHF iter  19: -1028.46516533052932   -1.81899e-12   6.23879e-10 DIIS
   @DF-RHF iter  20: -1028.46516533053045   -1.13687e-12   2.82942e-10 DIIS
   @DF-RHF iter  21: -1028.46516533053136   -9.09495e-13   1.71306e-10 DIIS
   @DF-RHF iter  22: -1028.46516533053091    4.54747e-13   7.60241e-11 DIIS
  Energy and wave function converged.


  ==> Post-Iterations <==

    Orbital Energies [Eh]
    ---------------------

    Doubly Occupied:                                                      

       1A    -20.583529     2A    -20.539784     3A    -20.539637  
       4A    -20.513130     5A    -20.510373     6A    -20.453839  
       7A    -20.363762     8A    -20.363690     9A    -15.791343  
      10A    -15.759746    11A    -15.758569    12A    -11.244784  
      13A    -11.237126    14A    -11.236966    15A    -11.223077  
      16A    -11.217636    17A    -11.216573    18A    -11.205791  
      19A     -1.659131    20A     -1.523151    21A     -1.493662  
      22A     -1.321131    23A     -1.293441    24A     -1.250488  
      25A     -1.237662    26A     -1.146762    27A     -1.142320  
      28A     -1.043796    29A     -1.025419    30A     -0.905694  
      31A     -0.891748    32A     -0.875156    33A     -0.775351  
      34A     -0.752993    35A     -0.724602    36A     -0.694521  
      37A     -0.681833    38A     -0.669767    39A     -0.663892  
      40A     -0.661310    41A     -0.644779    42A     -0.639959  
      43A     -0.628674    44A     -0.619473    45A     -0.571865  
      46A     -0.554976    47A     -0.520082    48A     -0.499781  
      49A     -0.484843    50A     -0.460646    51A     -0.438911  
      52A     -0.430805    53A     -0.423040    54A     -0.410009  
      55A     -0.400244    56A     -0.390172    57A     -0.389482  
      58A     -0.357971    59A     -0.353951    60A     -0.347067  
      61A     -0.310678    62A     -0.299149    63A     -0.275648  
      64A     -0.272785    65A     -0.257501  

    Virtual:                                                              

      66A      0.099091    67A      0.104745    68A      0.108821  
      69A      0.144502    70A      0.153427    71A      0.159151  
      72A      0.167460    73A      0.173481    74A      0.175943  
      75A      0.180344    76A      0.184997    77A      0.186769  
      78A      0.190631    79A      0.196294    80A      0.198054  
      81A      0.200322    82A      0.204050    83A      0.208751  
      84A      0.211176    85A      0.213981    86A      0.227063  
      87A      0.230370    88A      0.231434    89A      0.236470  
      90A      0.241335    91A      0.245138    92A      0.246712  
      93A      0.250346    94A      0.259778    95A      0.272758  
      96A      0.275167    97A      0.278427    98A      0.280652  
      99A      0.286796   100A      0.298955   101A      0.302224  
     102A      0.304577   103A      0.306985   104A      0.314132  
     105A      0.316805   106A      0.317567   107A      0.322436  
     108A      0.328833   109A      0.337173   110A      0.338051  
     111A      0.346353   112A      0.354055   113A      0.356145  
     114A      0.358877   115A      0.363500   116A      0.367189  
     117A      0.368257   118A      0.372148   119A      0.373861  
     120A      0.377518   121A      0.381897   122A      0.388281  
     123A      0.393192   124A      0.398149   125A      0.402126  
     126A      0.403865   127A      0.408869   128A      0.412239  
     129A      0.415484   130A      0.418012   131A      0.419635  
     132A      0.424825   133A      0.428965   134A      0.431602  
     135A      0.435749   136A      0.437825   137A      0.441549  
     138A      0.443619   139A      0.448808   140A      0.452500  
     141A      0.456608   142A      0.460758   143A      0.463689  
     144A      0.469860   145A      0.471013   146A      0.479671  
     147A      0.488867   148A      0.497846   149A      0.501345  
     150A      0.504936   151A      0.511075   152A      0.515995  
     153A      0.522852   154A      0.523803   155A      0.525099  
     156A      0.535842   157A      0.538596   158A      0.545424  
     159A      0.548053   160A      0.554760   161A      0.558880  
     162A      0.560741   163A      0.572424   164A      0.575882  
     165A      0.577628   166A      0.585112   167A      0.586769  
     168A      0.591702   169A      0.600728   170A      0.604262  
     171A      0.606571   172A      0.616821   173A      0.620288  
     174A      0.624213   175A      0.641088   176A      0.644884  
     177A      0.651396   178A      0.656885   179A      0.667546  
     180A      0.674637   181A      0.679935   182A      0.684058  
     183A      0.691595   184A      0.695769   185A      0.702996  
     186A      0.712890   187A      0.718627   188A      0.721842  
     189A      0.726771   190A      0.732847   191A      0.740341  
     192A      0.748031   193A      0.750341   194A      0.756398  
     195A      0.759677   196A      0.762241   197A      0.774749  
     198A      0.779229   199A      0.785381   200A      0.791079  
     201A      0.793457   202A      0.798749   203A      0.807179  
     204A      0.811400   205A      0.813888   206A      0.819175  
     207A      0.823813   208A      0.829615   209A      0.834448  
     210A      0.837187   211A      0.849399   212A      0.856675  
     213A      0.861944   214A      0.863910   215A      0.876229  
     216A      0.877151   217A      0.885805   218A      0.894505  
     219A      0.902021   220A      0.906640   221A      0.914451  
     222A      0.919045   223A      0.925175   224A      0.933557  
     225A      0.936277   226A      0.944143   227A      0.950377  
     228A      0.952968   229A      0.956300   230A      0.958135  
     231A      0.964647   232A      0.972936   233A      0.974088  
     234A      0.977547   235A      0.983268   236A      0.987349  
     237A      0.995300   238A      0.997169   239A      1.003279  
     240A      1.007438   241A      1.011084   242A      1.018282  
     243A      1.022189   244A      1.025259   245A      1.026911  
     246A      1.031849   247A      1.037932   248A      1.042649  
     249A      1.044150   250A      1.049051   251A      1.054406  
     252A      1.055932   253A      1.072876   254A      1.077173  
     255A      1.082395   256A      1.086853   257A      1.088092  
     258A      1.090293   259A      1.095858   260A      1.102021  
     261A      1.115935   262A      1.121327   263A      1.126292  
     264A      1.130172   265A      1.137404   266A      1.140358  
     267A      1.147948   268A      1.154156   269A      1.165254  
     270A      1.169069   271A      1.170258   272A      1.176563  
     273A      1.179026   274A      1.188584   275A      1.191731  
     276A      1.197133   277A      1.201863   278A      1.203732  
     279A      1.208781   280A      1.216649   281A      1.217708  
     282A      1.223984   283A      1.237815   284A      1.240690  
     285A      1.247493   286A      1.249607   287A      1.251846  
     288A      1.255508   289A      1.259961   290A      1.268161  
     291A      1.275065   292A      1.284873   293A      1.287251  
     294A      1.294228   295A      1.299759   296A      1.303821  
     297A      1.310323   298A      1.316892   299A      1.321066  
     300A      1.327680   301A      1.331658   302A      1.334448  
     303A      1.343866   304A      1.347029   305A      1.354882  
     306A      1.369282   307A      1.380121   308A      1.384430  
     309A      1.389384   310A      1.393867   311A      1.397689  
     312A      1.406967   313A      1.413160   314A      1.424549  
     315A      1.432464   316A      1.434675   317A      1.439080  
     318A      1.447511   319A      1.456801   320A      1.469896  
     321A      1.473565   322A      1.476623   323A      1.486671  
     324A      1.494676   325A      1.498488   326A      1.512104  
     327A      1.515606   328A      1.536753   329A      1.539373  
     330A      1.550248   331A      1.561318   332A      1.566911  
     333A      1.577759   334A      1.581521   335A      1.590167  
     336A      1.601477   337A      1.604635   338A      1.614224  
     339A      1.624698   340A      1.641608   341A      1.656650  
     342A      1.662094   343A      1.664863   344A      1.667580  
     345A      1.674282   346A      1.685246   347A      1.689537  
     348A      1.695034   349A      1.706932   350A      1.710829  
     351A      1.718419   352A      1.723000   353A      1.729408  
     354A      1.738122   355A      1.743799   356A      1.753662  
     357A      1.760422   358A      1.766734   359A      1.775175  
     360A      1.783508   361A      1.788143   362A      1.795548  
     363A      1.803199   364A      1.810396   365A      1.821391  
     366A      1.824489   367A      1.841271   368A      1.844274  
     369A      1.851148   370A      1.854484   371A      1.861221  
     372A      1.873543   373A      1.883765   374A      1.888597  
     375A      1.890801   376A      1.905548   377A      1.907909  
     378A      1.921542   379A      1.921849   380A      1.929520  
     381A      1.933828   382A      1.951798   383A      1.956710  
     384A      1.973521   385A      1.975524   386A      1.982878  
     387A      1.998542   388A      2.008492   389A      2.017712  
     390A      2.033068   391A      2.034028   392A      2.041008  
     393A      2.056794   394A      2.060764   395A      2.070600  
     396A      2.077243   397A      2.084716   398A      2.087732  
     399A      2.103944   400A      2.122428   401A      2.129746  
     402A      2.135648   403A      2.141454   404A      2.143337  
     405A      2.150893   406A      2.156708   407A      2.164253  
     408A      2.168577   409A      2.179535   410A      2.192226  
     411A      2.201254   412A      2.204664   413A      2.218176  
     414A      2.222926   415A      2.229791   416A      2.253297  
     417A      2.256233   418A      2.259655   419A      2.263484  
     420A      2.281795   421A      2.290278   422A      2.301779  
     423A      2.308347   424A      2.314196   425A      2.318532  
     426A      2.327149   427A      2.340058   428A      2.344838  
     429A      2.355172   430A      2.360907   431A      2.367858  
     432A      2.373911   433A      2.394516   434A      2.404326  
     435A      2.407982   436A      2.414773   437A      2.420711  
     438A      2.425585   439A      2.439348   440A      2.452169  
     441A      2.458219   442A      2.466009   443A      2.470733  
     444A      2.475864   445A      2.484465   446A      2.495207  
     447A      2.498622   448A      2.504487   449A      2.513125  
     450A      2.516308   451A      2.534322   452A      2.538775  
     453A      2.540657   454A      2.543080   455A      2.553377  
     456A      2.566766   457A      2.575544   458A      2.584911  
     459A      2.593713   460A      2.595451   461A      2.611375  
     462A      2.631716   463A      2.632197   464A      2.641749  
     465A      2.643956   466A      2.647574   467A      2.659162  
     468A      2.660949   469A      2.664804   470A      2.672968  
     471A      2.677010   472A      2.681979   473A      2.685495  
     474A      2.693422   475A      2.702081   476A      2.705361  
     477A      2.712133   478A      2.724325   479A      2.724598  
     480A      2.732585   481A      2.737385   482A      2.746741  
     483A      2.753937   484A      2.755755   485A      2.760574  
     486A      2.769712   487A      2.782988   488A      2.790412  
     489A      2.797183   490A      2.806835   491A      2.813041  
     492A      2.820449   493A      2.828512   494A      2.831984  
     495A      2.842550   496A      2.852681   497A      2.858413  
     498A      2.867220   499A      2.882235   500A      2.890730  
     501A      2.903754   502A      2.908585   503A      2.916271  
     504A      2.920576   505A      2.924093   506A      2.937758  
     507A      2.948374   508A      2.958427   509A      2.973657  
     510A      2.980871   511A      2.991149   512A      3.001991  
     513A      3.013442   514A      3.024456   515A      3.033482  
     516A      3.038113   517A      3.048745   518A      3.062464  
     519A      3.074245   520A      3.090574   521A      3.094029  
     522A      3.106985   523A      3.118709   524A      3.126823  
     525A      3.137458   526A      3.154467   527A      3.165584  
     528A      3.183612   529A      3.189072   530A      3.205139  
     531A      3.211071   532A      3.233859   533A      3.241039  
     534A      3.264323   535A      3.267730   536A      3.281452  
     537A      3.289174   538A      3.292144   539A      3.301741  
     540A      3.309546   541A      3.329991   542A      3.340317  
     543A      3.345508   544A      3.353765   545A      3.359215  
     546A      3.378774   547A      3.390507   548A      3.397523  
     549A      3.413323   550A      3.415370   551A      3.443495  
     552A      3.449331   553A      3.453808   554A      3.476395  
     555A      3.491738   556A      3.504667   557A      3.513258  
     558A      3.525190   559A      3.530963   560A      3.544941  
     561A      3.556189   562A      3.569390   563A      3.580810  
     564A      3.595629   565A      3.597027   566A      3.602167  
     567A      3.621006   568A      3.627802   569A      3.630787  
     570A      3.636267   571A      3.647808   572A      3.662309  
     573A      3.670625   574A      3.675350   575A      3.682100  
     576A      3.691239   577A      3.707162   578A      3.718131  
     579A      3.725950   580A      3.729783   581A      3.749769  
     582A      3.758484   583A      3.783253   584A      3.786610  
     585A      3.820323   586A      3.824940   587A      3.828512  
     588A      3.834379   589A      3.839249   590A      3.855537  
     591A      3.859471   592A      3.883032   593A      3.912274  
     594A      3.925147   595A      3.934797   596A      3.940828  
     597A      3.961610   598A      3.985231   599A      3.992490  
     600A      3.995066   601A      4.012879   602A      4.015148  
     603A      4.030816   604A      4.040425   605A      4.046153  
     606A      4.061040   607A      4.069529   608A      4.091342  
     609A      4.098639   610A      4.102514   611A      4.125868  
     612A      4.145947   613A      4.150786   614A      4.160517  
     615A      4.183312   616A      4.186847   617A      4.201861  
     618A      4.229136   619A      4.258711   620A      4.270444  
     621A      4.284477   622A      4.293218   623A      4.300183  
     624A      4.301191   625A      4.312216   626A      4.331218  
     627A      4.343842   628A      4.350328   629A      4.359784  
     630A      4.381534   631A      4.396507   632A      4.415040  
     633A      4.417572   634A      4.448294   635A      4.451298  
     636A      4.457409   637A      4.460997   638A      4.472648  
     639A      4.486279   640A      4.490923   641A      4.517043  
     642A      4.521396   643A      4.551025   644A      4.558660  
     645A      4.585144   646A      4.589280   647A      4.601229  
     648A      4.608297   649A      4.656223   650A      4.674796  
     651A      4.678106   652A      4.700229   653A      4.727457  
     654A      4.739030   655A      4.755141   656A      4.768409  
     657A      4.786426   658A      4.800292   659A      4.811114  
     660A      4.826601   661A      4.838633   662A      4.853193  
     663A      4.877069   664A      4.893311   665A      4.909347  
     666A      4.930806   667A      4.935843   668A      4.958610  
     669A      4.969836   670A      4.983651   671A      5.005574  
     672A      5.029769   673A      5.031636   674A      5.050408  
     675A      5.054918   676A      5.069518   677A      5.078124  
     678A      5.100524   679A      5.117039   680A      5.135780  
     681A      5.153813   682A      5.168306   683A      5.173893  
     684A      5.184056   685A      5.203427   686A      5.219243  
     687A      5.225212   688A      5.242068   689A      5.256075  
     690A      5.269786   691A      5.279585   692A      5.290114  
     693A      5.303795   694A      5.325015   695A      5.335584  
     696A      5.344747   697A      5.355621   698A      5.377346  
     699A      5.394954   700A      5.405538   701A      5.414869  
     702A      5.433026   703A      5.444377   704A      5.459781  
     705A      5.474819   706A      5.484222   707A      5.496410  
     708A      5.511456   709A      5.527826   710A      5.542756  
     711A      5.549260   712A      5.557336   713A      5.587295  
     714A      5.614020   715A      5.631161   716A      5.671920  
     717A      5.672107   718A      5.703313   719A      5.727569  
     720A      5.747019   721A      5.761747   722A      5.782902  
     723A      5.817681   724A      5.820498   725A      5.831295  
     726A      5.857031   727A      5.866920   728A      5.888094  
     729A      5.915635   730A      5.923895   731A      5.987060  
     732A      6.000633   733A      6.066606   734A      6.072035  
     735A      6.108077   736A      6.149568   737A      6.160487  
     738A      6.177378   739A      6.209124   740A      6.223652  
     741A      6.235385   742A      6.281294   743A      6.289727  
     744A      6.335398   745A      6.364033   746A      6.391718  
     747A      6.438519   748A      6.491605   749A      6.512818  
     750A      6.592828   751A      6.616208   752A      6.641733  
     753A      6.662180   754A      6.683173   755A      6.688840  
     756A      6.716392   757A      6.725770   758A      6.743746  
     759A      6.756980   760A      6.775126   761A      6.786023  
     762A      6.790899   763A      6.801529   764A      6.819056  
     765A      6.835407   766A      6.845691   767A      6.849284  
     768A      6.850414   769A      6.861283   770A      6.871806  
     771A      6.890376   772A      6.918603   773A      6.919932  
     774A      6.939387   775A      6.953370   776A      6.972210  
     777A      6.977806   778A      7.002842   779A      7.014067  
     780A      7.028121   781A      7.043713   782A      7.052134  
     783A      7.055258   784A      7.063523   785A      7.081198  
     786A      7.107278   787A      7.115664   788A      7.137441  
     789A      7.182416   790A      7.188799   791A      7.190547  
     792A      7.224811   793A      7.241819   794A      7.276545  
     795A      7.291187   796A      7.300063   797A      7.337620  
     798A      7.367560   799A      7.395057   800A      7.405807  
     801A      7.411794   802A      7.418804   803A      7.423326  
     804A      7.442456   805A      7.454818   806A      7.458631  
     807A      7.462269   808A      7.473436   809A      7.486866  
     810A      7.496275   811A      7.502661   812A      7.520843  
     813A      7.529612   814A      7.549492   815A      7.564263  
     816A      7.580692   817A      7.583318   818A      7.649872  
     819A      7.657225   820A      7.705469   821A      7.724657  
     822A      7.735340   823A      7.749298   824A      7.791373  
     825A      7.801355   826A      7.813358   827A      7.837772  
     828A      7.851976   829A      7.853481   830A      7.866992  
     831A      7.886550   832A      7.901058   833A      7.932796  
     834A      7.960898   835A      7.971719   836A      7.986360  
     837A      8.036751   838A      8.040237   839A      8.046685  
     840A      8.053095   841A      8.070110   842A      8.083937  
     843A      8.093554   844A      8.107963   845A      8.120398  
     846A      8.186048   847A      8.194052   848A      8.236839  
     849A      8.267555   850A      8.361617   851A      8.396134  
     852A      8.450432   853A      8.533548   854A      8.597656  
     855A      8.618904   856A      8.746901   857A     14.686451  
     858A     15.132041   859A     15.415464   860A     15.463691  
     861A     15.587426   862A     15.868039   863A     16.235462  
     864A     16.602734   865A     17.278803   866A     17.409909  
     867A     18.355541   868A     19.276130   869A     19.938026  
     870A     20.176521   871A     20.501100   872A     20.809609  
     873A     21.558033   874A     22.852651  

    Final Occupation by Irrep:
              A 
    DOCC [    65 ]

  @DF-RHF Final Energy: -1028.46516533053091

   => Energetics <=

    Nuclear Repulsion Energy =           1322.5888213197188179
    One-Electron Energy =               -4055.7566204552904310
    Two-Electron Energy =                1704.7026338050409322
    Total Energy =                      -1028.4651653305309082

Computation Completed

*** tstop() called on c419-121.stampede2.tacc.utexas.edu at Sun Mar  7 01:32:18 2021
Module time:
	user time   =    1832.96 seconds =      30.55 minutes
	system time =      84.13 seconds =       1.40 minutes
	total time  =         86 seconds =       1.43 minutes
Total time:
	user time   =    1832.96 seconds =      30.55 minutes
	system time =      84.13 seconds =       1.40 minutes
	total time  =         86 seconds =       1.43 minutes
   => Loading Basis Set <=

    Name: (AUG-CC-PVTZ AUX)
    Role: RIFIT
    Keyword: DF_BASIS_MP2
    atoms 1-8   entry O          line   264 file /home1/07844/xy3866/miniconda3/envs/p4env/share/psi4/basis/aug-cc-pvtz-ri.gbs 
    atoms 9-11  entry N          line   206 file /home1/07844/xy3866/miniconda3/envs/p4env/share/psi4/basis/aug-cc-pvtz-ri.gbs 
    atoms 12-18 entry C          line   148 file /home1/07844/xy3866/miniconda3/envs/p4env/share/psi4/basis/aug-cc-pvtz-ri.gbs 
    atoms 19-20 entry H          line    30 file /home1/07844/xy3866/miniconda3/envs/p4env/share/psi4/basis/aug-cc-pvtz-ri.gbs 


*** tstart() called on c419-121.stampede2.tacc.utexas.edu
*** at Sun Mar  7 01:32:20 2021


  //>>>>>>>>>>>>>>>>>>>>>>>>>>>>>>>>>>>//
  //               DFMP2               //
  //<<<<<<<<<<<<<<<<<<<<<<<<<<<<<<<<<<<//

	 --------------------------------------------------------
	                          DF-MP2                         
	      2nd-Order Density-Fitted Moller-Plesset Theory     
	              RMP2 Wavefunction,  32 Threads             
	                                                         
	        Rob Parrish, Justin Turney, Andy Simmonett,      
	           Ed Hohenstein, and C. David Sherrill          
	 --------------------------------------------------------

   => Auxiliary Basis Set <=

  Basis Set: (AUG-CC-PVTZ AUX)
    Blend: AUG-CC-PVTZ-RI
    Number of shells: 532
    Number of basis functions: 2000
    Number of Cartesian functions: 2558
    Spherical Harmonics?: true
    Max angular momentum: 4

	 --------------------------------------------------------
	                 NBF =   874, NAUX =  2000
	 --------------------------------------------------------
	   CLASS    FOCC     OCC    AOCC    AVIR     VIR    FVIR
	   PAIRS       0      65      65     809     809       0
	 --------------------------------------------------------

  DFHelper Memory: AOs need 10.094 GiB; user supplied 22.352 GiB. Using in-core AOs.


         ------------------------------------------------------------
                                     CPHF                           
                                  Rob Parrish                       
         ------------------------------------------------------------

  ==> Geometry <==

    Molecular point group: c1
    Full point group: C1

    Geometry (in Angstrom), charge = -1, multiplicity = 1:

       Center              X                  Y                   Z               Mass       
    ------------   -----------------  -----------------  -----------------  -----------------
         O           -2.960259079839     0.877057784113    -0.736728952200    15.994914619570
         O           -2.960316079839    -0.891569215887     0.752271047800    15.994914619570
         O           -0.560834079839    -3.306074215887     0.791186047800    15.994914619570
         O           -0.560753079839     3.291569784113    -0.775478952200    15.994914619570
         O           -1.547172079839    -2.682437215887    -1.088101952200    15.994914619570
         O           -1.547187079839     2.667868784113     1.103738047800    15.994914619570
         O            3.948962920161    -1.105854215887    -0.044198952200    15.994914619570
         O            3.948974920161     1.091264784113     0.059806047800    15.994914619570
         N           -0.833030079839    -2.479475215887    -0.096952952200    14.003074004430
         N           -0.789211679839     2.597896484113    -0.030231152200    14.003074004430
         N            3.367488920161    -0.007291215887     0.007806047800    14.003074004430
         C           -0.918919079839    -0.007269215887     0.007819047800    12.000000000000
         C           -0.158808079839    -1.178483215887    -0.013979952200    12.000000000000
         C           -0.158795079839     1.163939784113     0.029622047800    12.000000000000
         C            1.902521920161    -0.007284215887     0.007814047800    12.000000000000
         C            1.230802920161    -1.225461215887     0.000766047800    12.000000000000
         C            1.230814920161     1.210900784113     0.014867047800    12.000000000000
         C           -2.477389079839    -0.007259215887     0.007787047800    12.000000000000
         H            1.768344920161    -2.166957215887     0.002972047800     1.007825032230
         H            1.768367920161     2.152390784113     0.012661047800     1.007825032230

  Nuclear repulsion = 1322.588821319718818
  Reference energy  = -1028.465165330530908

  ==> Basis Set <==

  Basis Set: AUG-CC-PVTZ
    Blend: AUG-CC-PVTZ
    Number of shells: 270
    Number of basis functions: 874
    Number of Cartesian functions: 1040
    Spherical Harmonics?: true
    Max angular momentum: 3

  ==> CGRSolver (by Rob Parrish) <==

   Number of roots    =         1
   Preconditioning    =    JACOBI
   Convergence cutoff =     1E-06
   Maximum iterations =       100

  ==> CPHFRHamiltonian (by Rob Parrish) <== 

  ==> MemDFJK: Density-Fitted J/K Matrices <==

    J tasked:                   Yes
    K tasked:                   Yes
    wK tasked:                   No
    OpenMP threads:              32
    Memory [MiB]:             22888
    Algorithm:                 Core
    Schwarz Cutoff:           1E-12
    Mask sparsity (%):      12.9560
    Fitting Condition:        1E-10

   => Auxiliary Basis Set <=

  Basis Set: (AUG-CC-PVTZ AUX)
    Blend: AUG-CC-PVTZ-JKFIT
    Number of shells: 568
    Number of basis functions: 1964
    Number of Cartesian functions: 2468
    Spherical Harmonics?: true
    Max angular momentum: 4

  ==> CPHF Iterations <==

  => Iterations <=

             Iter  Converged  Remaining    Residual
  CGR           1          0          1   1.971E-01
  CGR           2          0          1   7.331E-02
  CGR           3          0          1   3.965E-02
  CGR           4          0          1   1.606E-02
  CGR           5          0          1   7.187E-03
  CGR           6          0          1   2.676E-03
  CGR           7          0          1   1.157E-03
  CGR           8          0          1   4.992E-04
  CGR           9          0          1   2.222E-04
  CGR          10          0          1   1.031E-04
  CGR          11          0          1   4.722E-05
  CGR          12          0          1   2.586E-05
  CGR          13          0          1   1.218E-05
  CGR          14          0          1   4.214E-06
  CGR          15          0          1   2.057E-06
  CGR          16          1          0   9.686E-07

    CGRSolver converged.

	-----------------------------------------------------------
	 ==================> DF-MP2 Energies <==================== 
	-----------------------------------------------------------
	 Reference Energy          =   -1028.4651653305309082 [Eh]
	 Singles Energy            =      -0.0000000000000000 [Eh]
	 Same-Spin Energy          =      -1.0513218298873472 [Eh]
	 Opposite-Spin Energy      =      -2.9401336302973418 [Eh]
	 Correlation Energy        =      -3.9914554601846888 [Eh]
	 Total Energy              =   -1032.4566207907155331 [Eh]
	-----------------------------------------------------------
	 ================> DF-SCS-MP2 Energies <================== 
	-----------------------------------------------------------
	 SCS Same-Spin Scale       =       0.3333333333333333 [-]
	 SCS Opposite-Spin Scale   =       1.2000000000000000 [-]
	 SCS Same-Spin Energy      =      -0.3504406099624491 [Eh]
	 SCS Opposite-Spin Energy  =      -3.5281603563568100 [Eh]
	 SCS Correlation Energy    =      -3.8786009663192589 [Eh]
	 SCS Total Energy          =   -1032.3437662968501627 [Eh]
	-----------------------------------------------------------



Properties will be evaluated at  -0.000000,  -0.000000,   0.000000 [a0]

Properties computed using the MP2 density matrix

  Nuclear Dipole Moment: [e a0]
     X:     3.2997      Y:    -0.0143      Z:     0.0153

  Electronic Dipole Moment: [e a0]
     X:     0.2853      Y:     0.3779      Z:    -0.5139

  Dipole Moment: [e a0]
     X:     3.5850      Y:     0.3636      Z:    -0.4986     Total:     3.6378

  Dipole Moment: [D]
     X:     9.1123      Y:     0.9242      Z:    -1.2674     Total:     9.2463


*** tstop() called on c419-121.stampede2.tacc.utexas.edu at Sun Mar  7 01:42:06 2021
Module time:
	user time   =    6106.98 seconds =     101.78 minutes
	system time =     144.93 seconds =       2.42 minutes
	total time  =        586 seconds =       9.77 minutes
Total time:
	user time   =    7941.03 seconds =     132.35 minutes
	system time =     229.09 seconds =       3.82 minutes
	total time  =        674 seconds =      11.23 minutes

    Psi4 stopped on: Sunday, 07 March 2021 01:42AM
    Psi4 wall time for execution: 0:11:16.12

*** Psi4 exiting successfully. Buy a developer a beer!
