124355625                                                               
Freq      RMP2-FC                                                     6-31G(d)            
Number of atoms                            I               23
Info1-9                                    I   N=           9
          35          33        1002           0           0         100
           6           2           1
Charge                                     I                0
Multiplicity                               I                1
Number of electrons                        I               70
Number of alpha electrons                  I               35
Number of beta electrons                   I               35
Number of basis functions                  I              163
Number of independent functions            I              163
Number of point charges in /Mol/           I                0
Number of translation vectors              I                0
Atomic numbers                             I   N=          23
           8           6           6           6           6           6
           6           6           6           1           1           1
           1           1           1           1           1           1
           1           1           1           1           1
Nuclear charges                            R   N=          23
  8.00000000E+00  6.00000000E+00  6.00000000E+00  6.00000000E+00  6.00000000E+00
  6.00000000E+00  6.00000000E+00  6.00000000E+00  6.00000000E+00  1.00000000E+00
  1.00000000E+00  1.00000000E+00  1.00000000E+00  1.00000000E+00  1.00000000E+00
  1.00000000E+00  1.00000000E+00  1.00000000E+00  1.00000000E+00  1.00000000E+00
  1.00000000E+00  1.00000000E+00  1.00000000E+00
Current cartesian coordinates              R   N=          69
 -5.22029985E+00  2.48677109E+00  4.24856511E-01 -5.33084846E+00 -3.18923830E-02
 -5.45707463E-01 -2.68321641E+00 -9.19360069E-01 -1.00452071E+00  6.70280700E+00
 -1.16945918E-01 -8.10141941E-01 -6.70571888E+00 -1.77754421E+00  1.29594005E+00
 -5.90388792E-01  4.29815456E-01 -4.87085079E-01  4.06403930E+00  8.28412264E-01
 -4.19817459E-01  1.95448257E+00 -5.08212805E-01 -9.18720018E-01  8.17607782E+00
 -2.84503726E-01  1.67665731E+00 -6.35370580E+00 -3.79501139E-02 -2.36401783E+00
 -2.51218725E+00 -2.81807970E+00 -1.79021607E+00  6.63988102E+00 -1.97878231E+00
 -1.71738353E+00  7.71247535E+00  1.14567359E+00 -2.11142473E+00 -5.72195434E+00
 -1.75217646E+00  3.11119956E+00 -8.65879739E+00 -1.15072142E+00  1.58416620E+00
 -6.75957257E+00 -3.71902207E+00  5.86500226E-01 -7.97446393E-01  2.32285918E+00
  2.87984991E-01  3.87127809E+00  2.72772975E+00  3.64827610E-01  2.13759253E+00
 -2.41038826E+00 -1.69830904E+00  8.27295292E+00  1.56270036E+00  2.60064004E+00
  1.01109362E+01 -9.39706023E-01  1.35562325E+00  7.25154797E+00 -1.59744630E+00
  2.97683173E+00 -6.95400640E+00  3.03252942E+00  6.95097433E-01
Force Field                                I                0
Int Atom Types                             I   N=          23
           0           0           0           0           0           0
           0           0           0           0           0           0
           0           0           0           0           0           0
           0           0           0           0           0
MM charges                                 R   N=          23
  0.00000000E+00  0.00000000E+00  0.00000000E+00  0.00000000E+00  0.00000000E+00
  0.00000000E+00  0.00000000E+00  0.00000000E+00  0.00000000E+00  0.00000000E+00
  0.00000000E+00  0.00000000E+00  0.00000000E+00  0.00000000E+00  0.00000000E+00
  0.00000000E+00  0.00000000E+00  0.00000000E+00  0.00000000E+00  0.00000000E+00
  0.00000000E+00  0.00000000E+00  0.00000000E+00
Integer atomic weights                     I   N=          23
          16          12          12          12          12          12
          12          12          12           1           1           1
           1           1           1           1           1           1
           1           1           1           1           1
Real atomic weights                        R   N=          23
  1.59949146E+01  1.20000000E+01  1.20000000E+01  1.20000000E+01  1.20000000E+01
  1.20000000E+01  1.20000000E+01  1.20000000E+01  1.20000000E+01  1.00782504E+00
  1.00782504E+00  1.00782504E+00  1.00782504E+00  1.00782504E+00  1.00782504E+00
  1.00782504E+00  1.00782504E+00  1.00782504E+00  1.00782504E+00  1.00782504E+00
  1.00782504E+00  1.00782504E+00  1.00782504E+00
Atom fragment info                         I   N=          23
           0           0           0           0           0           0
           0           0           0           0           0           0
           0           0           0           0           0           0
           0           0           0           0           0
Atom residue num                           I   N=          23
           0           0           0           0           0           0
           0           0           0           0           0           0
           0           0           0           0           0           0
           0           0           0           0           0
Nuclear spins                              I   N=          23
           0           0           0           0           0           0
           0           0           0           1           1           1
           1           1           1           1           1           1
           1           1           1           1           1
Nuclear ZEff                               R   N=          23
 -5.60000000E+00 -3.60000000E+00 -3.60000000E+00 -3.60000000E+00 -3.60000000E+00
 -3.60000000E+00 -3.60000000E+00 -3.60000000E+00 -3.60000000E+00 -1.00000000E+00
 -1.00000000E+00 -1.00000000E+00 -1.00000000E+00 -1.00000000E+00 -1.00000000E+00
 -1.00000000E+00 -1.00000000E+00 -1.00000000E+00 -1.00000000E+00 -1.00000000E+00
 -1.00000000E+00 -1.00000000E+00 -1.00000000E+00
Nuclear QMom                               R   N=          23
  0.00000000E+00  0.00000000E+00  0.00000000E+00  0.00000000E+00  0.00000000E+00
  0.00000000E+00  0.00000000E+00  0.00000000E+00  0.00000000E+00  0.00000000E+00
  0.00000000E+00  0.00000000E+00  0.00000000E+00  0.00000000E+00  0.00000000E+00
  0.00000000E+00  0.00000000E+00  0.00000000E+00  0.00000000E+00  0.00000000E+00
  0.00000000E+00  0.00000000E+00  0.00000000E+00
Nuclear GFac                               R   N=          23
  0.00000000E+00  0.00000000E+00  0.00000000E+00  0.00000000E+00  0.00000000E+00
  0.00000000E+00  0.00000000E+00  0.00000000E+00  0.00000000E+00  2.79284600E+00
  2.79284600E+00  2.79284600E+00  2.79284600E+00  2.79284600E+00  2.79284600E+00
  2.79284600E+00  2.79284600E+00  2.79284600E+00  2.79284600E+00  2.79284600E+00
  2.79284600E+00  2.79284600E+00  2.79284600E+00
MicOpt                                     I   N=          23
          -1          -1          -1          -1          -1          -1
          -1          -1          -1          -1          -1          -1
          -1          -1          -1          -1          -1          -1
          -1          -1          -1          -1          -1
Number of contracted shells                I               64
Number of primitive shells                 I              155
Pure/Cartesian d shells                    I                1
Pure/Cartesian f shells                    I                0
Highest angular momentum                   I                2
Largest degree of contraction              I                6
Shell types                                I   N=          64
           0          -1          -1           2           0          -1
          -1           2           0          -1          -1           2
           0          -1          -1           2           0          -1
          -1           2           0          -1          -1           2
           0          -1          -1           2           0          -1
          -1           2           0          -1          -1           2
           0           0           0           0           0           0
           0           0           0           0           0           0
           0           0           0           0           0           0
           0           0           0           0           0           0
           0           0           0           0
Number of primitives per shell             I   N=          64
           6           3           1           1           6           3
           1           1           6           3           1           1
           6           3           1           1           6           3
           1           1           6           3           1           1
           6           3           1           1           6           3
           1           1           6           3           1           1
           3           1           3           1           3           1
           3           1           3           1           3           1
           3           1           3           1           3           1
           3           1           3           1           3           1
           3           1           3           1
Shell to atom map                          I   N=          64
           1           1           1           1           2           2
           2           2           3           3           3           3
           4           4           4           4           5           5
           5           5           6           6           6           6
           7           7           7           7           8           8
           8           8           9           9           9           9
          10          10          11          11          12          12
          13          13          14          14          15          15
          16          16          17          17          18          18
          19          19          20          20          21          21
          22          22          23          23
Primitive exponents                        R   N=         155
  5.48467166E+03  8.25234946E+02  1.88046958E+02  5.29645000E+01  1.68975704E+01
  5.79963534E+00  1.55396162E+01  3.59993359E+00  1.01376175E+00  2.70005823E-01
  8.00000000E-01  3.04752488E+03  4.57369518E+02  1.03948685E+02  2.92101553E+01
  9.28666296E+00  3.16392696E+00  7.86827235E+00  1.88128854E+00  5.44249258E-01
  1.68714478E-01  8.00000000E-01  3.04752488E+03  4.57369518E+02  1.03948685E+02
  2.92101553E+01  9.28666296E+00  3.16392696E+00  7.86827235E+00  1.88128854E+00
  5.44249258E-01  1.68714478E-01  8.00000000E-01  3.04752488E+03  4.57369518E+02
  1.03948685E+02  2.92101553E+01  9.28666296E+00  3.16392696E+00  7.86827235E+00
  1.88128854E+00  5.44249258E-01  1.68714478E-01  8.00000000E-01  3.04752488E+03
  4.57369518E+02  1.03948685E+02  2.92101553E+01  9.28666296E+00  3.16392696E+00
  7.86827235E+00  1.88128854E+00  5.44249258E-01  1.68714478E-01  8.00000000E-01
  3.04752488E+03  4.57369518E+02  1.03948685E+02  2.92101553E+01  9.28666296E+00
  3.16392696E+00  7.86827235E+00  1.88128854E+00  5.44249258E-01  1.68714478E-01
  8.00000000E-01  3.04752488E+03  4.57369518E+02  1.03948685E+02  2.92101553E+01
  9.28666296E+00  3.16392696E+00  7.86827235E+00  1.88128854E+00  5.44249258E-01
  1.68714478E-01  8.00000000E-01  3.04752488E+03  4.57369518E+02  1.03948685E+02
  2.92101553E+01  9.28666296E+00  3.16392696E+00  7.86827235E+00  1.88128854E+00
  5.44249258E-01  1.68714478E-01  8.00000000E-01  3.04752488E+03  4.57369518E+02
  1.03948685E+02  2.92101553E+01  9.28666296E+00  3.16392696E+00  7.86827235E+00
  1.88128854E+00  5.44249258E-01  1.68714478E-01  8.00000000E-01  1.87311370E+01
  2.82539436E+00  6.40121692E-01  1.61277759E-01  1.87311370E+01  2.82539436E+00
  6.40121692E-01  1.61277759E-01  1.87311370E+01  2.82539436E+00  6.40121692E-01
  1.61277759E-01  1.87311370E+01  2.82539436E+00  6.40121692E-01  1.61277759E-01
  1.87311370E+01  2.82539436E+00  6.40121692E-01  1.61277759E-01  1.87311370E+01
  2.82539436E+00  6.40121692E-01  1.61277759E-01  1.87311370E+01  2.82539436E+00
  6.40121692E-01  1.61277759E-01  1.87311370E+01  2.82539436E+00  6.40121692E-01
  1.61277759E-01  1.87311370E+01  2.82539436E+00  6.40121692E-01  1.61277759E-01
  1.87311370E+01  2.82539436E+00  6.40121692E-01  1.61277759E-01  1.87311370E+01
  2.82539436E+00  6.40121692E-01  1.61277759E-01  1.87311370E+01  2.82539436E+00
  6.40121692E-01  1.61277759E-01  1.87311370E+01  2.82539436E+00  6.40121692E-01
  1.61277759E-01  1.87311370E+01  2.82539436E+00  6.40121692E-01  1.61277759E-01
Contraction coefficients                   R   N=         155
  1.83107443E-03  1.39501722E-02  6.84450781E-02  2.32714336E-01  4.70192898E-01
  3.58520853E-01 -1.10777550E-01 -1.48026263E-01  1.13076702E+00  1.00000000E+00
  1.00000000E+00  1.83473713E-03  1.40373228E-02  6.88426223E-02  2.32184443E-01
  4.67941348E-01  3.62311985E-01 -1.19332420E-01 -1.60854152E-01  1.14345644E+00
  1.00000000E+00  1.00000000E+00  1.83473713E-03  1.40373228E-02  6.88426223E-02
  2.32184443E-01  4.67941348E-01  3.62311985E-01 -1.19332420E-01 -1.60854152E-01
  1.14345644E+00  1.00000000E+00  1.00000000E+00  1.83473713E-03  1.40373228E-02
  6.88426223E-02  2.32184443E-01  4.67941348E-01  3.62311985E-01 -1.19332420E-01
 -1.60854152E-01  1.14345644E+00  1.00000000E+00  1.00000000E+00  1.83473713E-03
  1.40373228E-02  6.88426223E-02  2.32184443E-01  4.67941348E-01  3.62311985E-01
 -1.19332420E-01 -1.60854152E-01  1.14345644E+00  1.00000000E+00  1.00000000E+00
  1.83473713E-03  1.40373228E-02  6.88426223E-02  2.32184443E-01  4.67941348E-01
  3.62311985E-01 -1.19332420E-01 -1.60854152E-01  1.14345644E+00  1.00000000E+00
  1.00000000E+00  1.83473713E-03  1.40373228E-02  6.88426223E-02  2.32184443E-01
  4.67941348E-01  3.62311985E-01 -1.19332420E-01 -1.60854152E-01  1.14345644E+00
  1.00000000E+00  1.00000000E+00  1.83473713E-03  1.40373228E-02  6.88426223E-02
  2.32184443E-01  4.67941348E-01  3.62311985E-01 -1.19332420E-01 -1.60854152E-01
  1.14345644E+00  1.00000000E+00  1.00000000E+00  1.83473713E-03  1.40373228E-02
  6.88426223E-02  2.32184443E-01  4.67941348E-01  3.62311985E-01 -1.19332420E-01
 -1.60854152E-01  1.14345644E+00  1.00000000E+00  1.00000000E+00  3.34946043E-02
  2.34726953E-01  8.13757326E-01  1.00000000E+00  3.34946043E-02  2.34726953E-01
  8.13757326E-01  1.00000000E+00  3.34946043E-02  2.34726953E-01  8.13757326E-01
  1.00000000E+00  3.34946043E-02  2.34726953E-01  8.13757326E-01  1.00000000E+00
  3.34946043E-02  2.34726953E-01  8.13757326E-01  1.00000000E+00  3.34946043E-02
  2.34726953E-01  8.13757326E-01  1.00000000E+00  3.34946043E-02  2.34726953E-01
  8.13757326E-01  1.00000000E+00  3.34946043E-02  2.34726953E-01  8.13757326E-01
  1.00000000E+00  3.34946043E-02  2.34726953E-01  8.13757326E-01  1.00000000E+00
  3.34946043E-02  2.34726953E-01  8.13757326E-01  1.00000000E+00  3.34946043E-02
  2.34726953E-01  8.13757326E-01  1.00000000E+00  3.34946043E-02  2.34726953E-01
  8.13757326E-01  1.00000000E+00  3.34946043E-02  2.34726953E-01  8.13757326E-01
  1.00000000E+00  3.34946043E-02  2.34726953E-01  8.13757326E-01  1.00000000E+00
P(S=P) Contraction coefficients            R   N=         155
  0.00000000E+00  0.00000000E+00  0.00000000E+00  0.00000000E+00  0.00000000E+00
  0.00000000E+00  7.08742682E-02  3.39752839E-01  7.27158577E-01  1.00000000E+00
  0.00000000E+00  0.00000000E+00  0.00000000E+00  0.00000000E+00  0.00000000E+00
  0.00000000E+00  0.00000000E+00  6.89990666E-02  3.16423961E-01  7.44308291E-01
  1.00000000E+00  0.00000000E+00  0.00000000E+00  0.00000000E+00  0.00000000E+00
  0.00000000E+00  0.00000000E+00  0.00000000E+00  6.89990666E-02  3.16423961E-01
  7.44308291E-01  1.00000000E+00  0.00000000E+00  0.00000000E+00  0.00000000E+00
  0.00000000E+00  0.00000000E+00  0.00000000E+00  0.00000000E+00  6.89990666E-02
  3.16423961E-01  7.44308291E-01  1.00000000E+00  0.00000000E+00  0.00000000E+00
  0.00000000E+00  0.00000000E+00  0.00000000E+00  0.00000000E+00  0.00000000E+00
  6.89990666E-02  3.16423961E-01  7.44308291E-01  1.00000000E+00  0.00000000E+00
  0.00000000E+00  0.00000000E+00  0.00000000E+00  0.00000000E+00  0.00000000E+00
  0.00000000E+00  6.89990666E-02  3.16423961E-01  7.44308291E-01  1.00000000E+00
  0.00000000E+00  0.00000000E+00  0.00000000E+00  0.00000000E+00  0.00000000E+00
  0.00000000E+00  0.00000000E+00  6.89990666E-02  3.16423961E-01  7.44308291E-01
  1.00000000E+00  0.00000000E+00  0.00000000E+00  0.00000000E+00  0.00000000E+00
  0.00000000E+00  0.00000000E+00  0.00000000E+00  6.89990666E-02  3.16423961E-01
  7.44308291E-01  1.00000000E+00  0.00000000E+00  0.00000000E+00  0.00000000E+00
  0.00000000E+00  0.00000000E+00  0.00000000E+00  0.00000000E+00  6.89990666E-02
  3.16423961E-01  7.44308291E-01  1.00000000E+00  0.00000000E+00  0.00000000E+00
  0.00000000E+00  0.00000000E+00  0.00000000E+00  0.00000000E+00  0.00000000E+00
  0.00000000E+00  0.00000000E+00  0.00000000E+00  0.00000000E+00  0.00000000E+00
  0.00000000E+00  0.00000000E+00  0.00000000E+00  0.00000000E+00  0.00000000E+00
  0.00000000E+00  0.00000000E+00  0.00000000E+00  0.00000000E+00  0.00000000E+00
  0.00000000E+00  0.00000000E+00  0.00000000E+00  0.00000000E+00  0.00000000E+00
  0.00000000E+00  0.00000000E+00  0.00000000E+00  0.00000000E+00  0.00000000E+00
  0.00000000E+00  0.00000000E+00  0.00000000E+00  0.00000000E+00  0.00000000E+00
  0.00000000E+00  0.00000000E+00  0.00000000E+00  0.00000000E+00  0.00000000E+00
  0.00000000E+00  0.00000000E+00  0.00000000E+00  0.00000000E+00  0.00000000E+00
  0.00000000E+00  0.00000000E+00  0.00000000E+00  0.00000000E+00  0.00000000E+00
  0.00000000E+00  0.00000000E+00  0.00000000E+00  0.00000000E+00  0.00000000E+00
Coordinates of each shell                  R   N=         192
 -5.22029985E+00  2.48677109E+00  4.24856511E-01 -5.22029985E+00  2.48677109E+00
  4.24856511E-01 -5.22029985E+00  2.48677109E+00  4.24856511E-01 -5.22029985E+00
  2.48677109E+00  4.24856511E-01 -5.33084846E+00 -3.18923830E-02 -5.45707463E-01
 -5.33084846E+00 -3.18923830E-02 -5.45707463E-01 -5.33084846E+00 -3.18923830E-02
 -5.45707463E-01 -5.33084846E+00 -3.18923830E-02 -5.45707463E-01 -2.68321641E+00
 -9.19360069E-01 -1.00452071E+00 -2.68321641E+00 -9.19360069E-01 -1.00452071E+00
 -2.68321641E+00 -9.19360069E-01 -1.00452071E+00 -2.68321641E+00 -9.19360069E-01
 -1.00452071E+00  6.70280700E+00 -1.16945918E-01 -8.10141941E-01  6.70280700E+00
 -1.16945918E-01 -8.10141941E-01  6.70280700E+00 -1.16945918E-01 -8.10141941E-01
  6.70280700E+00 -1.16945918E-01 -8.10141941E-01 -6.70571888E+00 -1.77754421E+00
  1.29594005E+00 -6.70571888E+00 -1.77754421E+00  1.29594005E+00 -6.70571888E+00
 -1.77754421E+00  1.29594005E+00 -6.70571888E+00 -1.77754421E+00  1.29594005E+00
 -5.90388792E-01  4.29815456E-01 -4.87085079E-01 -5.90388792E-01  4.29815456E-01
 -4.87085079E-01 -5.90388792E-01  4.29815456E-01 -4.87085079E-01 -5.90388792E-01
  4.29815456E-01 -4.87085079E-01  4.06403930E+00  8.28412264E-01 -4.19817459E-01
  4.06403930E+00  8.28412264E-01 -4.19817459E-01  4.06403930E+00  8.28412264E-01
 -4.19817459E-01  4.06403930E+00  8.28412264E-01 -4.19817459E-01  1.95448257E+00
 -5.08212805E-01 -9.18720018E-01  1.95448257E+00 -5.08212805E-01 -9.18720018E-01
  1.95448257E+00 -5.08212805E-01 -9.18720018E-01  1.95448257E+00 -5.08212805E-01
 -9.18720018E-01  8.17607782E+00 -2.84503726E-01  1.67665731E+00  8.17607782E+00
 -2.84503726E-01  1.67665731E+00  8.17607782E+00 -2.84503726E-01  1.67665731E+00
  8.17607782E+00 -2.84503726E-01  1.67665731E+00 -6.35370580E+00 -3.79501139E-02
 -2.36401783E+00 -6.35370580E+00 -3.79501139E-02 -2.36401783E+00 -2.51218725E+00
 -2.81807970E+00 -1.79021607E+00 -2.51218725E+00 -2.81807970E+00 -1.79021607E+00
  6.63988102E+00 -1.97878231E+00 -1.71738353E+00  6.63988102E+00 -1.97878231E+00
 -1.71738353E+00  7.71247535E+00  1.14567359E+00 -2.11142473E+00  7.71247535E+00
  1.14567359E+00 -2.11142473E+00 -5.72195434E+00 -1.75217646E+00  3.11119956E+00
 -5.72195434E+00 -1.75217646E+00  3.11119956E+00 -8.65879739E+00 -1.15072142E+00
  1.58416620E+00 -8.65879739E+00 -1.15072142E+00  1.58416620E+00 -6.75957257E+00
 -3.71902207E+00  5.86500226E-01 -6.75957257E+00 -3.71902207E+00  5.86500226E-01
 -7.97446393E-01  2.32285918E+00  2.87984991E-01 -7.97446393E-01  2.32285918E+00
  2.87984991E-01  3.87127809E+00  2.72772975E+00  3.64827610E-01  3.87127809E+00
  2.72772975E+00  3.64827610E-01  2.13759253E+00 -2.41038826E+00 -1.69830904E+00
  2.13759253E+00 -2.41038826E+00 -1.69830904E+00  8.27295292E+00  1.56270036E+00
  2.60064004E+00  8.27295292E+00  1.56270036E+00  2.60064004E+00  1.01109362E+01
 -9.39706023E-01  1.35562325E+00  1.01109362E+01 -9.39706023E-01  1.35562325E+00
  7.25154797E+00 -1.59744630E+00  2.97683173E+00  7.25154797E+00 -1.59744630E+00
  2.97683173E+00 -6.95400640E+00  3.03252942E+00  6.95097433E-01 -6.95400640E+00
  3.03252942E+00  6.95097433E-01
Constraint Structure                       R   N=          69
 -5.22029985E+00  2.48677109E+00  4.24856511E-01 -5.33084846E+00 -3.18923830E-02
 -5.45707463E-01 -2.68321641E+00 -9.19360069E-01 -1.00452071E+00  6.70280700E+00
 -1.16945918E-01 -8.10141941E-01 -6.70571888E+00 -1.77754421E+00  1.29594005E+00
 -5.90388792E-01  4.29815456E-01 -4.87085079E-01  4.06403930E+00  8.28412264E-01
 -4.19817459E-01  1.95448257E+00 -5.08212805E-01 -9.18720018E-01  8.17607782E+00
 -2.84503726E-01  1.67665731E+00 -6.35370580E+00 -3.79501139E-02 -2.36401783E+00
 -2.51218725E+00 -2.81807970E+00 -1.79021607E+00  6.63988102E+00 -1.97878231E+00
 -1.71738353E+00  7.71247535E+00  1.14567359E+00 -2.11142473E+00 -5.72195434E+00
 -1.75217646E+00  3.11119956E+00 -8.65879739E+00 -1.15072142E+00  1.58416620E+00
 -6.75957257E+00 -3.71902207E+00  5.86500226E-01 -7.97446393E-01  2.32285918E+00
  2.87984991E-01  3.87127809E+00  2.72772975E+00  3.64827610E-01  2.13759253E+00
 -2.41038826E+00 -1.69830904E+00  8.27295292E+00  1.56270036E+00  2.60064004E+00
  1.01109362E+01 -9.39706023E-01  1.35562325E+00  7.25154797E+00 -1.59744630E+00
  2.97683173E+00 -6.95400640E+00  3.03252942E+00  6.95097433E-01
Num ILSW                                   I              100
ILSW                                       I   N=         100
           0           1           0           0           2           0
           0           0           0           0           0          -1
           0           0           0           0           0           0
           0           0           0           0           1           0
           1           0           0           0           0           0
           0           0      100000           0          -1           0
           0           0           0           0           0           0
           0           0           0           1           1           0
           0           0           1           0           0           0
           0           0           4          40           0           0
           0           0           0           0           0           0
           0           0           0           0           0           0
           0           0           0           0           0           0
           0           0           0           0           0           0
           0           0           0           0           0           0
           0           0           0           0           0           0
           0           0           0           0
Num RLSW                                   I               40
RLSW                                       R   N=          40
  1.00000000E+00  1.00000000E+00  1.00000000E+00  1.00000000E+00  1.00000000E+00
  0.00000000E+00  0.00000000E+00  1.00000000E+00  0.00000000E+00  0.00000000E+00
  0.00000000E+00  0.00000000E+00  1.00000000E+00  0.00000000E+00  0.00000000E+00
  0.00000000E+00  0.00000000E+00  1.00000000E+00  0.00000000E+00  0.00000000E+00
  0.00000000E+00  0.00000000E+00  1.00000000E+00  0.00000000E+00  0.00000000E+00
  0.00000000E+00  0.00000000E+00  1.00000000E+00  0.00000000E+00  0.00000000E+00
  0.00000000E+00  0.00000000E+00  0.00000000E+00  0.00000000E+00  0.00000000E+00
  0.00000000E+00  0.00000000E+00  0.00000000E+00  1.00000000E+00  1.00000000E+00
MxBond                                     I                4
NBond                                      I   N=          23
           2           4           3           4           4           3
           3           3           4           1           1           1
           1           1           1           1           1           1
           1           1           1           1           1
IBond                                      I   N=          92
           2          23           0           0           1           3
           5          10           2           6          11           0
           7           9          12          13           2          14
          15          16           3           8          17           0
           4           8          18           0           6           7
          19           0           4          20          21          22
           2           0           0           0           3           0
           0           0           4           0           0           0
           4           0           0           0           5           0
           0           0           5           0           0           0
           5           0           0           0           6           0
           0           0           7           0           0           0
           8           0           0           0           9           0
           0           0           9           0           0           0
           9           0           0           0           1           0
           0           0
RBond                                      R   N=          92
  1.00000000E+00  1.00000000E+00  0.00000000E+00  0.00000000E+00  1.00000000E+00
  1.00000000E+00  1.00000000E+00  1.00000000E+00  1.00000000E+00  2.00000000E+00
  1.00000000E+00  0.00000000E+00  1.00000000E+00  1.00000000E+00  1.00000000E+00
  1.00000000E+00  1.00000000E+00  1.00000000E+00  1.00000000E+00  1.00000000E+00
  2.00000000E+00  1.00000000E+00  1.00000000E+00  0.00000000E+00  1.00000000E+00
  2.00000000E+00  1.00000000E+00  0.00000000E+00  1.00000000E+00  2.00000000E+00
  1.00000000E+00  0.00000000E+00  1.00000000E+00  1.00000000E+00  1.00000000E+00
  1.00000000E+00  1.00000000E+00  0.00000000E+00  0.00000000E+00  0.00000000E+00
  1.00000000E+00  0.00000000E+00  0.00000000E+00  0.00000000E+00  1.00000000E+00
  0.00000000E+00  0.00000000E+00  0.00000000E+00  1.00000000E+00  0.00000000E+00
  0.00000000E+00  0.00000000E+00  1.00000000E+00  0.00000000E+00  0.00000000E+00
  0.00000000E+00  1.00000000E+00  0.00000000E+00  0.00000000E+00  0.00000000E+00
  1.00000000E+00  0.00000000E+00  0.00000000E+00  0.00000000E+00  1.00000000E+00
  0.00000000E+00  0.00000000E+00  0.00000000E+00  1.00000000E+00  0.00000000E+00
  0.00000000E+00  0.00000000E+00  1.00000000E+00  0.00000000E+00  0.00000000E+00
  0.00000000E+00  1.00000000E+00  0.00000000E+00  0.00000000E+00  0.00000000E+00
  1.00000000E+00  0.00000000E+00  0.00000000E+00  0.00000000E+00  1.00000000E+00
  0.00000000E+00  0.00000000E+00  0.00000000E+00  1.00000000E+00  0.00000000E+00
  0.00000000E+00  0.00000000E+00
Virial Ratio                               R      2.001842451198323E+00
SCF Energy                                 R     -3.859134899017354E+02
MP2 Energy                                 R     -3.871241915780971E+02
Total Energy                               R     -3.871241915780971E+02
Post-SCF wavefunction norm                 R      1.678396318246446E+00
RMS Force                                  R      5.716882637420160E-08
RMS Density                                R      2.202581903235849E-09
External E-field                           R   N=          35
  0.00000000E+00  0.00000000E+00  0.00000000E+00  0.00000000E+00  0.00000000E+00
  0.00000000E+00  0.00000000E+00  0.00000000E+00  0.00000000E+00  0.00000000E+00
  0.00000000E+00  0.00000000E+00  0.00000000E+00  0.00000000E+00  0.00000000E+00
  0.00000000E+00  0.00000000E+00  0.00000000E+00  0.00000000E+00  0.00000000E+00
  0.00000000E+00  0.00000000E+00  0.00000000E+00  0.00000000E+00  0.00000000E+00
  0.00000000E+00  0.00000000E+00  0.00000000E+00  0.00000000E+00  0.00000000E+00
  0.00000000E+00  0.00000000E+00  0.00000000E+00  0.00000000E+00  0.00000000E+00
IOpCl                                      I                0
IROHF                                      I                0
Alpha Orbital Energies                     R   N=         163
 -2.05606554E+01 -1.12849807E+01 -1.12252206E+01 -1.12228797E+01 -1.12226745E+01
 -1.12222166E+01 -1.12207655E+01 -1.12200423E+01 -1.12130087E+01 -1.35485274E+00
 -1.09332116E+00 -1.05777108E+00 -1.01333761E+00 -9.59286783E-01 -8.73868676E-01
 -8.25778435E-01 -7.49480672E-01 -7.43962769E-01 -6.91016757E-01 -6.33042266E-01
 -6.23853443E-01 -6.12954058E-01 -5.87474625E-01 -5.79762240E-01 -5.43896163E-01
 -5.41183322E-01 -5.24370424E-01 -5.16377046E-01 -4.97911743E-01 -4.88403371E-01
 -4.77414421E-01 -4.64406808E-01 -4.47043587E-01 -4.12617578E-01 -2.91477704E-01
  1.36486164E-01  2.15747705E-01  2.50946321E-01  2.55474771E-01  2.65358244E-01
  2.81793750E-01  2.96132718E-01  3.01581150E-01  3.03733151E-01  3.17001120E-01
  3.23366232E-01  3.29124935E-01  3.34027564E-01  3.38519594E-01  3.57698978E-01
  3.68754773E-01  4.00815327E-01  4.07412206E-01  4.16621517E-01  4.56233555E-01
  4.92020496E-01  5.49111934E-01  5.74169497E-01  6.32390731E-01  7.11663658E-01
  7.29814409E-01  7.37151205E-01  7.46216282E-01  7.66585427E-01  7.88336126E-01
  7.89219542E-01  8.02544660E-01  8.18932943E-01  8.49984696E-01  8.60474974E-01
  8.70036568E-01  8.90964029E-01  9.04488427E-01  9.30686708E-01  9.42754995E-01