
    -----------------------------------------------------------------------
          Psi4: An Open-Source Ab Initio Electronic Structure Package
                               Psi4 1.3.2 release

                         Git: Rev {HEAD} ecbda83 


    R. M. Parrish, L. A. Burns, D. G. A. Smith, A. C. Simmonett,
    A. E. DePrince III, E. G. Hohenstein, U. Bozkaya, A. Yu. Sokolov,
    R. Di Remigio, R. M. Richard, J. F. Gonthier, A. M. James,
    H. R. McAlexander, A. Kumar, M. Saitow, X. Wang, B. P. Pritchard,
    P. Verma, H. F. Schaefer III, K. Patkowski, R. A. King, E. F. Valeev,
    F. A. Evangelista, J. M. Turney, T. D. Crawford, and C. D. Sherrill,
    J. Chem. Theory Comput. 13(7) pp 3185--3197 (2017).
    (doi: 10.1021/acs.jctc.7b00174)


                         Additional Contributions by
    P. Kraus, H. Kruse, M. H. Lechner, M. C. Schieber, R. A. Shaw,
    A. Alenaizan, R. Galvelis, Z. L. Glick, S. Lehtola, and J. P. Misiewicz

    -----------------------------------------------------------------------


    Psi4 started on: Friday, 06 November 2020 03:00AM

    Process ID: 38318
    Host:       node35.bme.utexas.edu
    PSIDATADIR: /home/xy3866/psi4conda/share/psi4
    Memory:     500.0 MiB
    Threads:    8
    
  ==> Input File <==

--------------------------------------------------------------------------
#psi4
#
memory 32 gb

molecule  {
0 1
  O       -0.1147700    -1.8002930     0.4548730
  O        0.3584290     1.3939840    -1.0246780
  O       -1.9551560     1.3713260     0.4690830
  O        2.7148150     0.4505790    -0.2056670
  O       -1.6716310    -0.8002260    -0.9984850
  C        0.4315910     1.0135520     0.3497470
  C       -0.9066602     0.4815172     0.8498407
  C        1.5345100    -0.0288940     0.4204030
  C       -1.2151430    -0.9364420     0.3397180
  C        1.0549700    -1.3167000    -0.2286510
  H        0.7042560     1.8874530     0.9605880
  H       -0.8818830     0.4322700     1.9353370
  H        1.7837760    -0.2316310     1.4680400
  H       -1.9939520    -1.3968640     0.9617720
  H        0.8436020    -1.1475360    -1.2899680
  H        1.8059140    -2.1013880    -0.1265130
  H       -0.3930520     2.0121160    -1.0836700
  H       -2.3472928     0.9831560    -0.3405109
  H        2.3997000     0.9352960    -0.9928030
  H       -1.9956420    -1.6762600    -1.2784950
units angstrom
no_reorient  #important for SAPT in psi4, default
symmetry c1  #important for SAPT in psi4, default
}

set PROPERTIES_ORIGIN ["COM"]
properties('MP2/aug-cc-pvtz', properties = ['dipole'])
--------------------------------------------------------------------------

  Memory set to  29.802 GiB by Python driver.
    SCF Algorithm Type (re)set to DF.

*** tstart() called on node35.bme.utexas.edu
*** at Fri Nov  6 03:00:14 2020

   => Loading Basis Set <=

    Name: AUG-CC-PVTZ
    Role: ORBITAL
    Keyword: BASIS
    atoms 1-5   entry O          line   327 file /home/xy3866/psi4conda/share/psi4/basis/aug-cc-pvtz.gbs 
    atoms 6-10  entry C          line   235 file /home/xy3866/psi4conda/share/psi4/basis/aug-cc-pvtz.gbs 
    atoms 11-20 entry H          line    36 file /home/xy3866/psi4conda/share/psi4/basis/aug-cc-pvtz.gbs 


         ---------------------------------------------------------
                                   SCF
               by Justin Turney, Rob Parrish, Andy Simmonett
                          and Daniel G. A. Smith
                              RHF Reference
                        8 Threads,  30517 MiB Core
         ---------------------------------------------------------

  ==> Geometry <==

    Molecular point group: c1
    Full point group: C1

    Geometry (in Angstrom), charge = 0, multiplicity = 1:

       Center              X                  Y                   Z               Mass       
    ------------   -----------------  -----------------  -----------------  -----------------
         O           -0.114946250489    -1.800915627328     0.454094646813    15.994914619570
         O            0.358252749511     1.393361372672    -1.025456353187    15.994914619570
         O           -1.955332250489     1.370703372672     0.468304646813    15.994914619570
         O            2.714638749511     0.449956372672    -0.206445353187    15.994914619570
         O           -1.671807250489    -0.800848627328    -0.999263353187    15.994914619570
         C            0.431414749511     1.012929372672     0.348968646813    12.000000000000
         C           -0.906836450489     0.480894572672     0.849062346813    12.000000000000
         C            1.534333749511    -0.029516627328     0.419624646813    12.000000000000
         C           -1.215319250489    -0.937064627328     0.338939646813    12.000000000000
         C            1.054793749511    -1.317322627328    -0.229429353187    12.000000000000
         H            0.704079749511     1.886830372672     0.959809646813     1.007825032230
         H           -0.882059250489     0.431647372672     1.934558646813     1.007825032230
         H            1.783599749511    -0.232253627328     1.467261646813     1.007825032230
         H           -1.994128250489    -1.397486627328     0.960993646813     1.007825032230
         H            0.843425749511    -1.148158627328    -1.290746353187     1.007825032230
         H            1.805737749511    -2.102010627328    -0.127291353187     1.007825032230
         H           -0.393228250489     2.011493372672    -1.084448353187     1.007825032230
         H           -2.347469050489     0.982533372672    -0.341289253187     1.007825032230
         H            2.399523749511     0.934673372672    -0.993581353187     1.007825032230
         H           -1.995818250489    -1.676882627328    -1.279273353187     1.007825032230

  Running in c1 symmetry.

  Rotational constants: A =      0.06475  B =      0.04282  C =      0.03246 [cm^-1]
  Rotational constants: A =   1941.08405  B =   1283.77886  C =    973.09866 [MHz]
  Nuclear repulsion =  633.616845155637634

  Charge       = 0
  Multiplicity = 1
  Electrons    = 80
  Nalpha       = 40
  Nbeta        = 40

  ==> Algorithm <==

  SCF Algorithm Type is DF.
  DIIS enabled.
  MOM disabled.
  Fractional occupation disabled.
  Guess Type is SAD.
  Energy threshold   = 1.00e-10
  Density threshold  = 1.00e-10
  Integral threshold = 0.00e+00

  ==> Primary Basis <==

  Basis Set: AUG-CC-PVTZ
    Blend: AUG-CC-PVTZ
    Number of shells: 230
    Number of basis function: 690
    Number of Cartesian functions: 800
    Spherical Harmonics?: true
    Max angular momentum: 3

   => Loading Basis Set <=

    Name: (AUG-CC-PVTZ AUX)
    Role: JKFIT
    Keyword: DF_BASIS_SCF
    atoms 1-5   entry O          line   286 file /home/xy3866/psi4conda/share/psi4/basis/aug-cc-pvtz-jkfit.gbs 
    atoms 6-10  entry C          line   162 file /home/xy3866/psi4conda/share/psi4/basis/aug-cc-pvtz-jkfit.gbs 
    atoms 11-20 entry H          line    70 file /home/xy3866/psi4conda/share/psi4/basis/aug-cc-pvtz-jkfit.gbs 

  ==> Pre-Iterations <==

   -------------------------------------------------------
    Irrep   Nso     Nmo     Nalpha   Nbeta   Ndocc  Nsocc
   -------------------------------------------------------
     A        690     690       0       0       0       0
   -------------------------------------------------------
    Total     690     690      40      40      40       0
   -------------------------------------------------------

  ==> Integral Setup <==

  DFHelper Memory: AOs need 5.282 GiB; user supplied 22.352 GiB. Using in-core AOs.

  ==> MemDFJK: Density-Fitted J/K Matrices <==

    J tasked:                   Yes
    K tasked:                   Yes
    wK tasked:                   No
    OpenMP threads:               8
    Memory [MiB]:             22888
    Algorithm:                 Disk
    Schwarz Cutoff:           1E-12
    Mask sparsity (%):       3.3875
    Fitting Condition:        1E-10

   => Auxiliary Basis Set <=

  Basis Set: (AUG-CC-PVTZ AUX)
    Blend: AUG-CC-PVTZ-JKFIT
    Number of shells: 440
    Number of basis function: 1500
    Number of Cartesian functions: 1860
    Spherical Harmonics?: true
    Max angular momentum: 4

  Minimum eigenvalue in the overlap matrix is 2.5409612930E-06.
  Using Symmetric Orthogonalization.

  SCF Guess: Superposition of Atomic Densities via on-the-fly atomic UHF.

  ==> Iterations <==

                           Total Energy        Delta E     RMS |[F,P]|

   @DF-RHF iter SAD:  -569.11218201688200   -5.69112e+02   0.00000e+00 
   @DF-RHF iter   1:  -569.37558644156184   -2.63404e-01   1.13058e-03 DIIS
   @DF-RHF iter   2:  -569.61301830226000   -2.37432e-01   6.05579e-04 DIIS
   @DF-RHF iter   3:  -569.67065124091573   -5.76329e-02   1.08552e-04 DIIS
   @DF-RHF iter   4:  -569.67441735593559   -3.76612e-03   3.17272e-05 DIIS
   @DF-RHF iter   5:  -569.67468478679518   -2.67431e-04   9.55875e-06 DIIS
   @DF-RHF iter   6:  -569.67471610129110   -3.13145e-05   2.66179e-06 DIIS
   @DF-RHF iter   7:  -569.67471969202188   -3.59073e-06   9.42085e-07 DIIS
   @DF-RHF iter   8:  -569.67472002487602   -3.32854e-07   3.23325e-07 DIIS
   @DF-RHF iter   9:  -569.67472006779622   -4.29202e-08   7.88962e-08 DIIS
   @DF-RHF iter  10:  -569.67472007052970   -2.73349e-09   2.38360e-08 DIIS
   @DF-RHF iter  11:  -569.67472007075844   -2.28738e-10   7.70338e-09 DIIS
   @DF-RHF iter  12:  -569.67472007078015   -2.17142e-11   2.70610e-09 DIIS
   @DF-RHF iter  13:  -569.67472007078163   -1.47793e-12   8.03725e-10 DIIS
   @DF-RHF iter  14:  -569.67472007078061    1.02318e-12   2.45674e-10 DIIS
   @DF-RHF iter  15:  -569.67472007078186   -1.25056e-12   8.54364e-11 DIIS
  Energy and wave function converged.


  ==> Post-Iterations <==

    Orbital Energies [Eh]
    ---------------------

    Doubly Occupied:                                                      

       1A    -20.591288     2A    -20.580349     3A    -20.574176  
       4A    -20.571427     5A    -20.558235     6A    -11.353784  
       7A    -11.298354     8A    -11.290895     9A    -11.285679  
      10A    -11.277975    11A     -1.437961    12A     -1.391358  
      13A     -1.375193    14A     -1.353566    15A     -1.347677  
      16A     -1.059133    17A     -1.022010    18A     -0.897527  
      19A     -0.870803    20A     -0.798734    21A     -0.751494  
      22A     -0.727566    23A     -0.711249    24A     -0.696701  
      25A     -0.669808    26A     -0.646709    27A     -0.620726  
      28A     -0.613625    29A     -0.603320    30A     -0.584725  
      31A     -0.571769    32A     -0.555153    33A     -0.543243  
      34A     -0.516588    35A     -0.502191    36A     -0.490483  
      37A     -0.487331    38A     -0.471276    39A     -0.441171  
      40A     -0.414742  

    Virtual:                                                              

      41A      0.024465    42A      0.033568    43A      0.035965  
      44A      0.039835    45A      0.050815    46A      0.053123  
      47A      0.054772    48A      0.059084    49A      0.064992  
      50A      0.077312    51A      0.099324    52A      0.104659  
      53A      0.110779    54A      0.113458    55A      0.117052  
      56A      0.117838    57A      0.119537    58A      0.123715  
      59A      0.127218    60A      0.133249    61A      0.144295  
      62A      0.146492    63A      0.150011    64A      0.153152  
      65A      0.160161    66A      0.169756    67A      0.175307  
      68A      0.183542    69A      0.186748    70A      0.195179  
      71A      0.205217    72A      0.209295    73A      0.213604  
      74A      0.219477    75A      0.237298    76A      0.240828  
      77A      0.247613    78A      0.253208    79A      0.261625  
      80A      0.265014    81A      0.267488    82A      0.270999  
      83A      0.272897    84A      0.276435    85A      0.280421  
      86A      0.284751    87A      0.293164    88A      0.296829  
      89A      0.304403    90A      0.310464    91A      0.315593  
      92A      0.316927    93A      0.318619    94A      0.322287  
      95A      0.328883    96A      0.340167    97A      0.346674  
      98A      0.357237    99A      0.362814   100A      0.364289  
     101A      0.369898   102A      0.377589   103A      0.386755  
     104A      0.392230   105A      0.396398   106A      0.399157  
     107A      0.403412   108A      0.406663   109A      0.415940  
     110A      0.421205   111A      0.428610   112A      0.432802  
     113A      0.438479   114A      0.440857   115A      0.445096  
     116A      0.452744   117A      0.461267   118A      0.465981  
     119A      0.468206   120A      0.476697   121A      0.478211  
     122A      0.483286   123A      0.488525   124A      0.490810  
     125A      0.498485   126A      0.499085   127A      0.505042  
     128A      0.509533   129A      0.511673   130A      0.520396  
     131A      0.522323   132A      0.527900   133A      0.535027  
     134A      0.540060   135A      0.545459   136A      0.546999  
     137A      0.553771   138A      0.559508   139A      0.564182  
     140A      0.565384   141A      0.568046   142A      0.571206  
     143A      0.573340   144A      0.576846   145A      0.590722  
     146A      0.594070   147A      0.609875   148A      0.613160  
     149A      0.621988   150A      0.626344   151A      0.629874  
     152A      0.636810   153A      0.644106   154A      0.651999  
     155A      0.660631   156A      0.667660   157A      0.674215  
     158A      0.691880   159A      0.692975   160A      0.696676  
     161A      0.705565   162A      0.709024   163A      0.718347  
     164A      0.732094   165A      0.740527   166A      0.748068  
     167A      0.753896   168A      0.766122   169A      0.783499  
     170A      0.788258   171A      0.798164   172A      0.799070  
     173A      0.813762   174A      0.818259   175A      0.823244  
     176A      0.835352   177A      0.850458   178A      0.856370  
     179A      0.864885   180A      0.871801   181A      0.878625  
     182A      0.881613   183A      0.889041   184A      0.898805  
     185A      0.901683   186A      0.911878   187A      0.918758  
     188A      0.923664   189A      0.932622   190A      0.938176  
     191A      0.947657   192A      0.952103   193A      0.959485  
     194A      0.970311   195A      0.975414   196A      0.982877  
     197A      0.987719   198A      0.993810   199A      1.001517  
     200A      1.017181   201A      1.026184   202A      1.031957  
     203A      1.035550   204A      1.041040   205A      1.045228  
     206A      1.057155   207A      1.059365   208A      1.062646  
     209A      1.069202   210A      1.074811   211A      1.080450  
     212A      1.086343   213A      1.090933   214A      1.099337  
     215A      1.108462   216A      1.113442   217A      1.118687  
     218A      1.129995   219A      1.135338   220A      1.142173  
     221A      1.148529   222A      1.155674   223A      1.165099  
     224A      1.167489   225A      1.170763   226A      1.187876  
     227A      1.188386   228A      1.193362   229A      1.197549  
     230A      1.199523   231A      1.213060   232A      1.214934  
     233A      1.227643   234A      1.231724   235A      1.235534  
     236A      1.241442   237A      1.251792   238A      1.256581  
     239A      1.260656   240A      1.274323   241A      1.285312  
     242A      1.289034   243A      1.293817   244A      1.308549  
     245A      1.312370   246A      1.319154   247A      1.323364  
     248A      1.343586   249A      1.347237   250A      1.358995  
     251A      1.370697   252A      1.377344   253A      1.384967  
     254A      1.397194   255A      1.400207   256A      1.410083  
     257A      1.416472   258A      1.424536   259A      1.434558  
     260A      1.435924   261A      1.439665   262A      1.447846  
     263A      1.453078   264A      1.475657   265A      1.479266  
     266A      1.487071   267A      1.493776   268A      1.501172  
     269A      1.507703   270A      1.526768   271A      1.529812  
     272A      1.541914   273A      1.552244   274A      1.559535  
     275A      1.569240   276A      1.576089   277A      1.586025  
     278A      1.592194   279A      1.596318   280A      1.606533  
     281A      1.618639   282A      1.622307   283A      1.626312  
     284A      1.642205   285A      1.651419   286A      1.663771  
     287A      1.669577   288A      1.677871   289A      1.684036  
     290A      1.696858   291A      1.703250   292A      1.719930  
     293A      1.720467   294A      1.728326   295A      1.733864  
     296A      1.742387   297A      1.746142   298A      1.761650  
     299A      1.774390   300A      1.778242   301A      1.780737  
     302A      1.793438   303A      1.811099   304A      1.817075  
     305A      1.824055   306A      1.830157   307A      1.843710  
     308A      1.851172   309A      1.858720   310A      1.868211  
     311A      1.877788   312A      1.886967   313A      1.896326  
     314A      1.900236   315A      1.906465   316A      1.922153  
     317A      1.928983   318A      1.935239   319A      1.940170  
     320A      1.959767   321A      1.964276   322A      1.975225  
     323A      1.980647   324A      1.989252   325A      2.000194  
     326A      2.003114   327A      2.009916   328A      2.020034  
     329A      2.027180   330A      2.040055   331A      2.056241  
     332A      2.057939   333A      2.071689   334A      2.077507  
     335A      2.085097   336A      2.097432   337A      2.111644  
     338A      2.113186   339A      2.125594   340A      2.138602  
     341A      2.144198   342A      2.149323   343A      2.165439  
     344A      2.180666   345A      2.200524   346A      2.206913  
     347A      2.215784   348A      2.230238   349A      2.252925  
     350A      2.260430   351A      2.273300   352A      2.276313  
     353A      2.302147   354A      2.319068   355A      2.321136  
     356A      2.329837   357A      2.344497   358A      2.350720  
     359A      2.377377   360A      2.384522   361A      2.407604  
     362A      2.426020   363A      2.445138   364A      2.449915  
     365A      2.481175   366A      2.495793   367A      2.500011  
     368A      2.526274   369A      2.546387   370A      2.559189  
     371A      2.580088   372A      2.583872   373A      2.597908  
     374A      2.620957   375A      2.630074   376A      2.658030  
     377A      2.668350   378A      2.682013   379A      2.699783  
     380A      2.707611   381A      2.714179   382A      2.717064  
     383A      2.733749   384A      2.742076   385A      2.752118  
     386A      2.764137   387A      2.781301   388A      2.795740  
     389A      2.805700   390A      2.823774   391A      2.826510  
     392A      2.842500   393A      2.851560   394A      2.866166  
     395A      2.888199   396A      2.894037   397A      2.909173  
     398A      2.911663   399A      2.925369   400A      2.937158  
     401A      2.948850   402A      2.969901   403A      2.979787  
     404A      3.008271   405A      3.014832   406A      3.040666  
     407A      3.041413   408A      3.044037   409A      3.052820  
     410A      3.070277   411A      3.075758   412A      3.080772  
     413A      3.116859   414A      3.119888   415A      3.138103  
     416A      3.144783   417A      3.155256   418A      3.159262  
     419A      3.171123   420A      3.182696   421A      3.195007  
     422A      3.221104   423A      3.235909   424A      3.257673  
     425A      3.267012   426A      3.280311   427A      3.285080  
     428A      3.295327   429A      3.301873   430A      3.327501  
     431A      3.335385   432A      3.344193   433A      3.367678  
     434A      3.386216   435A      3.403301   436A      3.439758  
     437A      3.457127   438A      3.488532   439A      3.507265  
     440A      3.524733   441A      3.546345   442A      3.559924  
     443A      3.593940   444A      3.624654   445A      3.639170  
     446A      3.668819   447A      3.675220   448A      3.691862  
     449A      3.720250   450A      3.737011   451A      3.758450  
     452A      3.770435   453A      3.780181   454A      3.798595  
     455A      3.804090   456A      3.843227   457A      3.852794  
     458A      3.866791   459A      3.875235   460A      3.908853  
     461A      3.916487   462A      3.929138   463A      3.945508  
     464A      3.949603   465A      3.973290   466A      3.981517  
     467A      3.991623   468A      4.015327   469A      4.020870  
     470A      4.023083   471A      4.040210   472A      4.060846  
     473A      4.088019   474A      4.092984   475A      4.110591  
     476A      4.120170   477A      4.129689   478A      4.132650  
     479A      4.140831   480A      4.165059   481A      4.174322  
     482A      4.190740   483A      4.202977   484A      4.204943  
     485A      4.226999   486A      4.229339   487A      4.231661  
     488A      4.244199   489A      4.273345   490A      4.276902  
     491A      4.300582   492A      4.319913   493A      4.320583  
     494A      4.329253   495A      4.336184   496A      4.350480  
     497A      4.356580   498A      4.367766   499A      4.380019  
     500A      4.396289   501A      4.403717   502A      4.413591  
     503A      4.437266   504A      4.460968   505A      4.466853  
     506A      4.476074   507A      4.481796   508A      4.496645  
     509A      4.516780   510A      4.528219   511A      4.541799  
     512A      4.549801   513A      4.573092   514A      4.579234  
     515A      4.602972   516A      4.616486   517A      4.621817  
     518A      4.634903   519A      4.645478   520A      4.666022  
     521A      4.704771   522A      4.720750   523A      4.738482  
     524A      4.746099   525A      4.751074   526A      4.775015  
     527A      4.776045   528A      4.800348   529A      4.807550  
     530A      4.817084   531A      4.846721   532A      4.853902  
     533A      4.867993   534A      4.898131   535A      4.905798  
     536A      4.920887   537A      4.945633   538A      4.970969  
     539A      4.978209   540A      4.996568   541A      5.007823  
     542A      5.017056   543A      5.024701   544A      5.049661  
     545A      5.067741   546A      5.087035   547A      5.089063  
     548A      5.098927   549A      5.109848   550A      5.134627  
     551A      5.141593   552A      5.158457   553A      5.181186  
     554A      5.191532   555A      5.220573   556A      5.226361  
     557A      5.252506   558A      5.258550   559A      5.283607  
     560A      5.293530   561A      5.303941   562A      5.330684  
     563A      5.333524   564A      5.364185   565A      5.375235  
     566A      5.385903   567A      5.406666   568A      5.413129  
     569A      5.425598   570A      5.429316   571A      5.464806  
     572A      5.467490   573A      5.487619   574A      5.502527  
     575A      5.525013   576A      5.550860   577A      5.566457  
     578A      5.575180   579A      5.579979   580A      5.594407  
     581A      5.624301   582A      5.638372   583A      5.650568  
     584A      5.663787   585A      5.668883   586A      5.711727  
     587A      5.721193   588A      5.745552   589A      5.756707  
     590A      5.783439   591A      5.813715   592A      5.828399  
     593A      5.849830   594A      5.878719   595A      5.899379  
     596A      5.931441   597A      5.943669   598A      5.990156  
     599A      6.017468   600A      6.049505   601A      6.124563  
     602A      6.126895   603A      6.171020   604A      6.212714  
     605A      6.234974   606A      6.345102   607A      6.355457  
     608A      6.384942   609A      6.398613   610A      6.517831  
     611A      6.635435   612A      6.680722   613A      6.735496  
     614A      6.744716   615A      6.756450   616A      6.797194  
     617A      6.807694   618A      6.818098   619A      6.871487  
     620A      6.913218   621A      6.968091   622A      6.979993  
     623A      7.028494   624A      7.036074   625A      7.043805  
     626A      7.058045   627A      7.078360   628A      7.093265  
     629A      7.098764   630A      7.107543   631A      7.138605  
     632A      7.156974   633A      7.167555   634A      7.193530  
     635A      7.281329   636A      7.310959   637A      7.331174  
     638A      7.340299   639A      7.353631   640A      7.368331  
     641A      7.399858   642A      7.423732   643A      7.448971  
     644A      7.475396   645A      7.493776   646A      7.512016  
     647A      7.524872   648A      7.561988   649A      7.563690  
     650A      7.568913   651A      7.592774   652A      7.607681  
     653A      7.619252   654A      7.656556   655A      7.705290  
     656A      7.725199   657A      7.744121   658A      7.773260  
     659A      7.800229   660A      7.833847   661A      7.852398  
     662A      7.897532   663A      7.913851   664A      7.942654  
     665A      7.959134   666A      8.022151   667A      8.047761  
     668A      8.075958   669A      8.113453   670A      8.160750  
     671A      8.283129   672A      8.289775   673A      8.308020  
     674A      8.368042   675A      8.448720   676A      8.490121  
     677A      8.608668   678A      8.683670   679A      8.710502  
     680A      8.740209   681A     15.945213   682A     16.794397  
     683A     16.902527   684A     17.268679   685A     17.399802  
     686A     18.556334   687A     18.970660   688A     19.104869  
     689A     19.252775   690A     19.845102  

    Final Occupation by Irrep:
              A 
    DOCC [    40 ]

  @DF-RHF Final Energy:  -569.67472007078186

   => Energetics <=

    Nuclear Repulsion Energy =            633.6168451556376340
    One-Electron Energy =               -2041.4711382645696176
    Two-Electron Energy =                 838.1795730381500107
    Total Energy =                       -569.6747200707818592

Computation Completed

*** tstop() called on node35.bme.utexas.edu at Fri Nov  6 03:03:14 2020
Module time:
	user time   =     532.24 seconds =       8.87 minutes
	system time =     146.55 seconds =       2.44 minutes
	total time  =        180 seconds =       3.00 minutes
Total time:
	user time   =     532.24 seconds =       8.87 minutes
	system time =     146.55 seconds =       2.44 minutes
	total time  =        180 seconds =       3.00 minutes
   => Loading Basis Set <=

    Name: (AUG-CC-PVTZ AUX)
    Role: RIFIT
    Keyword: DF_BASIS_MP2
    atoms 1-5   entry O          line   264 file /home/xy3866/psi4conda/share/psi4/basis/aug-cc-pvtz-ri.gbs 
    atoms 6-10  entry C          line   148 file /home/xy3866/psi4conda/share/psi4/basis/aug-cc-pvtz-ri.gbs 
    atoms 11-20 entry H          line    30 file /home/xy3866/psi4conda/share/psi4/basis/aug-cc-pvtz-ri.gbs 


*** tstart() called on node35.bme.utexas.edu
*** at Fri Nov  6 03:03:14 2020


  //>>>>>>>>>>>>>>>>>>>>>>>>>>>>>>>>>>>//
  //               DFMP2               //
  //<<<<<<<<<<<<<<<<<<<<<<<<<<<<<<<<<<<//

	 --------------------------------------------------------
	                          DF-MP2                         
	      2nd-Order Density-Fitted Moller-Plesset Theory     
	              RMP2 Wavefunction,   8 Threads             
	                                                         
	        Rob Parrish, Justin Turney, Andy Simmonett,      
	           Ed Hohenstein, and C. David Sherrill          
	 --------------------------------------------------------

   => Auxiliary Basis Set <=

  Basis Set: (AUG-CC-PVTZ AUX)
    Blend: AUG-CC-PVTZ-RI
    Number of shells: 420
    Number of basis function: 1520
    Number of Cartesian functions: 1910
    Spherical Harmonics?: true
    Max angular momentum: 4

	 --------------------------------------------------------
	                 NBF =   690, NAUX =  1520
	 --------------------------------------------------------
	   CLASS    FOCC     OCC    AOCC    AVIR     VIR    FVIR
	   PAIRS       0      40      40     650     650       0
	 --------------------------------------------------------

  DFHelper Memory: AOs need 5.282 GiB; user supplied 22.352 GiB. Using in-core AOs.


         ------------------------------------------------------------
                                     CPHF                           
                                  Rob Parrish                       
         ------------------------------------------------------------

  ==> Geometry <==

    Molecular point group: c1
    Full point group: C1

    Geometry (in Angstrom), charge = 0, multiplicity = 1:

       Center              X                  Y                   Z               Mass       
    ------------   -----------------  -----------------  -----------------  -----------------
         O           -0.114946250489    -1.800915627328     0.454094646813    15.994914619570
         O            0.358252749511     1.393361372672    -1.025456353187    15.994914619570
         O           -1.955332250489     1.370703372672     0.468304646813    15.994914619570
         O            2.714638749511     0.449956372672    -0.206445353187    15.994914619570
         O           -1.671807250489    -0.800848627328    -0.999263353187    15.994914619570
         C            0.431414749511     1.012929372672     0.348968646813    12.000000000000
         C           -0.906836450489     0.480894572672     0.849062346813    12.000000000000
         C            1.534333749511    -0.029516627328     0.419624646813    12.000000000000
         C           -1.215319250489    -0.937064627328     0.338939646813    12.000000000000
         C            1.054793749511    -1.317322627328    -0.229429353187    12.000000000000
         H            0.704079749511     1.886830372672     0.959809646813     1.007825032230
         H           -0.882059250489     0.431647372672     1.934558646813     1.007825032230
         H            1.783599749511    -0.232253627328     1.467261646813     1.007825032230
         H           -1.994128250489    -1.397486627328     0.960993646813     1.007825032230
         H            0.843425749511    -1.148158627328    -1.290746353187     1.007825032230
         H            1.805737749511    -2.102010627328    -0.127291353187     1.007825032230
         H           -0.393228250489     2.011493372672    -1.084448353187     1.007825032230
         H           -2.347469050489     0.982533372672    -0.341289253187     1.007825032230
         H            2.399523749511     0.934673372672    -0.993581353187     1.007825032230
         H           -1.995818250489    -1.676882627328    -1.279273353187     1.007825032230

  Nuclear repulsion =  633.616845155637634
  Reference energy  = -569.674720070781859

  ==> Basis Set <==

  Basis Set: AUG-CC-PVTZ
    Blend: AUG-CC-PVTZ
    Number of shells: 230
    Number of basis function: 690
    Number of Cartesian functions: 800
    Spherical Harmonics?: true
    Max angular momentum: 3

  ==> CGRSolver (by Rob Parrish) <==

   Number of roots    =         1
   Preconditioning    =    JACOBI
   Convergence cutoff =     1E-06
   Maximum iterations =       100

  ==> CPHFRHamiltonian (by Rob Parrish) <== 

  ==> MemDFJK: Density-Fitted J/K Matrices <==

    J tasked:                   Yes
    K tasked:                   Yes
    wK tasked:                   No
    OpenMP threads:               8
    Memory [MiB]:             22888
    Algorithm:                 Disk
    Schwarz Cutoff:           1E-12
    Mask sparsity (%):       3.3875
    Fitting Condition:        1E-10

   => Auxiliary Basis Set <=

  Basis Set: (AUG-CC-PVTZ AUX)
    Blend: AUG-CC-PVTZ-JKFIT
    Number of shells: 440
    Number of basis function: 1500
    Number of Cartesian functions: 1860
    Spherical Harmonics?: true
    Max angular momentum: 4

  ==> CPHF Iterations <==

  => Iterations <=

             Iter  Converged  Remaining    Residual
  CGR           1          0          1   8.275E-02
  CGR           2          0          1   1.835E-02
  CGR           3          0          1   7.353E-03
  CGR           4          0          1   2.110E-03
  CGR           5          0          1   5.787E-04
  CGR           6          0          1   1.879E-04
  CGR           7          0          1   5.735E-05
  CGR           8          0          1   1.529E-05
  CGR           9          0          1   5.184E-06
  CGR          10          0          1   1.501E-06
  CGR          11          1          0   4.578E-07

    CGRSolver converged.

	-----------------------------------------------------------
	 ==================> DF-MP2 Energies <==================== 
	-----------------------------------------------------------
	 Reference Energy          =    -569.6747200707818592 [Eh]
	 Singles Energy            =      -0.0000000000000000 [Eh]
	 Same-Spin Energy          =      -0.5545084663496911 [Eh]
	 Opposite-Spin Energy      =      -1.7037461339371931 [Eh]
	 Correlation Energy        =      -2.2582546002868842 [Eh]
	 Total Energy              =    -571.9329746710687914 [Eh]
	-----------------------------------------------------------
	 ================> DF-SCS-MP2 Energies <================== 
	-----------------------------------------------------------
	 SCS Same-Spin Scale       =       0.3333333333333333 [-]
	 SCS Opposite-Spin Scale   =       1.2000000000000000 [-]
	 SCS Same-Spin Energy      =      -0.1848361554498970 [Eh]
	 SCS Opposite-Spin Energy  =      -2.0444953607246314 [Eh]
	 SCS Correlation Energy    =      -2.2293315161745286 [Eh]
	 SCS Total Energy          =    -571.9040515869563706 [Eh]
	-----------------------------------------------------------



Properties will be evaluated at   0.000000,  -0.000000,  -0.000000 [a0]

Properties computed using the MP2 density matrix

  Nuclear Dipole Moment: [e a0]
     X:    -0.0748      Y:    -0.2873      Z:     0.1868

  Electronic Dipole Moment: [e a0]
     X:    -0.7864      Y:    -0.0983      Z:    -0.3014

  Dipole Moment: [e a0]
     X:    -0.8611      Y:    -0.3856      Z:    -0.1146     Total:     0.9504

  Dipole Moment: [D]
     X:    -2.1888      Y:    -0.9800      Z:    -0.2913     Total:     2.4158


*** tstop() called on node35.bme.utexas.edu at Fri Nov  6 03:09:40 2020
Module time:
	user time   =    1896.46 seconds =      31.61 minutes
	system time =     284.92 seconds =       4.75 minutes
	total time  =        386 seconds =       6.43 minutes
Total time:
	user time   =    2429.41 seconds =      40.49 minutes
	system time =     431.51 seconds =       7.19 minutes
	total time  =        566 seconds =       9.43 minutes

    Psi4 stopped on: Friday, 06 November 2020 03:09AM
    Psi4 wall time for execution: 0:09:30.37

*** Psi4 exiting successfully. Buy a developer a beer!
