
    -----------------------------------------------------------------------
          Psi4: An Open-Source Ab Initio Electronic Structure Package
                               Psi4 1.3.2 release

                         Git: Rev {HEAD} ecbda83 


    R. M. Parrish, L. A. Burns, D. G. A. Smith, A. C. Simmonett,
    A. E. DePrince III, E. G. Hohenstein, U. Bozkaya, A. Yu. Sokolov,
    R. Di Remigio, R. M. Richard, J. F. Gonthier, A. M. James,
    H. R. McAlexander, A. Kumar, M. Saitow, X. Wang, B. P. Pritchard,
    P. Verma, H. F. Schaefer III, K. Patkowski, R. A. King, E. F. Valeev,
    F. A. Evangelista, J. M. Turney, T. D. Crawford, and C. D. Sherrill,
    J. Chem. Theory Comput. 13(7) pp 3185--3197 (2017).
    (doi: 10.1021/acs.jctc.7b00174)


                         Additional Contributions by
    P. Kraus, H. Kruse, M. H. Lechner, M. C. Schieber, R. A. Shaw,
    A. Alenaizan, R. Galvelis, Z. L. Glick, S. Lehtola, and J. P. Misiewicz

    -----------------------------------------------------------------------


    Psi4 started on: Friday, 06 November 2020 04:05AM

    Process ID: 39818
    Host:       node35.bme.utexas.edu
    PSIDATADIR: /home/xy3866/psi4conda/share/psi4
    Memory:     500.0 MiB
    Threads:    8
    
  ==> Input File <==

--------------------------------------------------------------------------
#psi4
#
memory 32 gb

molecule  {
0 1
  O       -0.1147700    -1.8002930     0.4548730
  O        0.3584290     1.3939840    -1.0246780
  O       -1.9551560     1.3713260     0.4690830
  O        2.7148150     0.4505790    -0.2056670
  O       -1.6716310    -0.8002260    -0.9984850
  C        0.4315910     1.0135520     0.3497470
  C       -0.9149221     0.4861131     0.8376214
  C        1.5431040    -0.0200466     0.4155410
  C       -1.2151430    -0.9364420     0.3397180
  C        1.0549700    -1.3167000    -0.2286510
  H        0.7042560     1.8874530     0.9605880
  H       -0.8818830     0.4322700     1.9353370
  H        1.7837760    -0.2316310     1.4680400
  H       -1.9939520    -1.3968640     0.9617720
  H        0.8436020    -1.1475360    -1.2899680
  H        1.8059140    -2.1013880    -0.1265130
  H       -0.3930520     2.0121160    -1.0836700
  H       -2.3417080     0.9766970    -0.3400740
  H        2.3997000     0.9352960    -0.9928030
  H       -1.9956420    -1.6762600    -1.2784950
units angstrom
no_reorient  #important for SAPT in psi4, default
symmetry c1  #important for SAPT in psi4, default
}

set PROPERTIES_ORIGIN ["COM"]
properties('MP2/aug-cc-pvtz', properties = ['dipole'])
--------------------------------------------------------------------------

  Memory set to  29.802 GiB by Python driver.
    SCF Algorithm Type (re)set to DF.

*** tstart() called on node35.bme.utexas.edu
*** at Fri Nov  6 04:05:48 2020

   => Loading Basis Set <=

    Name: AUG-CC-PVTZ
    Role: ORBITAL
    Keyword: BASIS
    atoms 1-5   entry O          line   327 file /home/xy3866/psi4conda/share/psi4/basis/aug-cc-pvtz.gbs 
    atoms 6-10  entry C          line   235 file /home/xy3866/psi4conda/share/psi4/basis/aug-cc-pvtz.gbs 
    atoms 11-20 entry H          line    36 file /home/xy3866/psi4conda/share/psi4/basis/aug-cc-pvtz.gbs 


         ---------------------------------------------------------
                                   SCF
               by Justin Turney, Rob Parrish, Andy Simmonett
                          and Daniel G. A. Smith
                              RHF Reference
                        8 Threads,  30517 MiB Core
         ---------------------------------------------------------

  ==> Geometry <==

    Molecular point group: c1
    Full point group: C1

    Geometry (in Angstrom), charge = 0, multiplicity = 1:

       Center              X                  Y                   Z               Mass       
    ------------   -----------------  -----------------  -----------------  -----------------
         O           -0.115010319268    -1.801947331062     0.455457735334    15.994914619570
         O            0.358188680732     1.392329668938    -1.024093264666    15.994914619570
         O           -1.955396319268     1.369671668938     0.469667735334    15.994914619570
         O            2.714574680732     0.448924668938    -0.205082264666    15.994914619570
         O           -1.671871319268    -0.801880331062    -0.997900264666    15.994914619570
         C            0.431350680732     1.011897668938     0.350331735334    12.000000000000
         C           -0.915162419268     0.484458768938     0.838206135334    12.000000000000
         C            1.542863680732    -0.021700931062     0.416125735334    12.000000000000
         C           -1.215383319268    -0.938096331062     0.340302735334    12.000000000000
         C            1.054729680732    -1.318354331062    -0.228066264666    12.000000000000
         H            0.704015680732     1.885798668938     0.961172735334     1.007825032230
         H           -0.882123319268     0.430615668938     1.935921735334     1.007825032230
         H            1.783535680732    -0.233285331062     1.468624735334     1.007825032230
         H           -1.994192319268    -1.398518331062     0.962356735334     1.007825032230
         H            0.843361680732    -1.149190331062    -1.289383264666     1.007825032230
         H            1.805673680732    -2.103042331062    -0.125928264666     1.007825032230
         H           -0.393292319268     2.010461668938    -1.083085264666     1.007825032230
         H           -2.341948319268     0.975042668938    -0.339489264666     1.007825032230
         H            2.399459680732     0.933641668938    -0.992218264666     1.007825032230
         H           -1.995882319268    -1.677914331062    -1.277910264666     1.007825032230

  Running in c1 symmetry.

  Rotational constants: A =      0.06481  B =      0.04280  C =      0.03243 [cm^-1]
  Rotational constants: A =   1943.07929  B =   1283.17745  C =    972.15673 [MHz]
  Nuclear repulsion =  633.761608926542067

  Charge       = 0
  Multiplicity = 1
  Electrons    = 80
  Nalpha       = 40
  Nbeta        = 40

  ==> Algorithm <==

  SCF Algorithm Type is DF.
  DIIS enabled.
  MOM disabled.
  Fractional occupation disabled.
  Guess Type is SAD.
  Energy threshold   = 1.00e-10
  Density threshold  = 1.00e-10
  Integral threshold = 0.00e+00

  ==> Primary Basis <==

  Basis Set: AUG-CC-PVTZ
    Blend: AUG-CC-PVTZ
    Number of shells: 230
    Number of basis function: 690
    Number of Cartesian functions: 800
    Spherical Harmonics?: true
    Max angular momentum: 3

   => Loading Basis Set <=

    Name: (AUG-CC-PVTZ AUX)
    Role: JKFIT
    Keyword: DF_BASIS_SCF
    atoms 1-5   entry O          line   286 file /home/xy3866/psi4conda/share/psi4/basis/aug-cc-pvtz-jkfit.gbs 
    atoms 6-10  entry C          line   162 file /home/xy3866/psi4conda/share/psi4/basis/aug-cc-pvtz-jkfit.gbs 
    atoms 11-20 entry H          line    70 file /home/xy3866/psi4conda/share/psi4/basis/aug-cc-pvtz-jkfit.gbs 

  ==> Pre-Iterations <==

   -------------------------------------------------------
    Irrep   Nso     Nmo     Nalpha   Nbeta   Ndocc  Nsocc
   -------------------------------------------------------
     A        690     690       0       0       0       0
   -------------------------------------------------------
    Total     690     690      40      40      40       0
   -------------------------------------------------------

  ==> Integral Setup <==

  DFHelper Memory: AOs need 5.281 GiB; user supplied 22.352 GiB. Using in-core AOs.

  ==> MemDFJK: Density-Fitted J/K Matrices <==

    J tasked:                   Yes
    K tasked:                   Yes
    wK tasked:                   No
    OpenMP threads:               8
    Memory [MiB]:             22888
    Algorithm:                 Disk
    Schwarz Cutoff:           1E-12
    Mask sparsity (%):       3.3879
    Fitting Condition:        1E-10

   => Auxiliary Basis Set <=

  Basis Set: (AUG-CC-PVTZ AUX)
    Blend: AUG-CC-PVTZ-JKFIT
    Number of shells: 440
    Number of basis function: 1500
    Number of Cartesian functions: 1860
    Spherical Harmonics?: true
    Max angular momentum: 4

  Minimum eigenvalue in the overlap matrix is 2.5595418224E-06.
  Using Symmetric Orthogonalization.

  SCF Guess: Superposition of Atomic Densities via on-the-fly atomic UHF.

  ==> Iterations <==

                           Total Energy        Delta E     RMS |[F,P]|

   @DF-RHF iter SAD:  -569.13849465948306   -5.69138e+02   0.00000e+00 
   @DF-RHF iter   1:  -569.37548756247145   -2.36993e-01   1.13036e-03 DIIS
   @DF-RHF iter   2:  -569.61307064020696   -2.37583e-01   6.04877e-04 DIIS
   @DF-RHF iter   3:  -569.67063208030368   -5.75614e-02   1.08387e-04 DIIS
   @DF-RHF iter   4:  -569.67439792310063   -3.76584e-03   3.15570e-05 DIIS
   @DF-RHF iter   5:  -569.67466281329303   -2.64890e-04   9.56859e-06 DIIS
   @DF-RHF iter   6:  -569.67469404573808   -3.12324e-05   2.65866e-06 DIIS
   @DF-RHF iter   7:  -569.67469764313796   -3.59740e-06   9.34665e-07 DIIS
   @DF-RHF iter   8:  -569.67469797198055   -3.28843e-07   3.24637e-07 DIIS
   @DF-RHF iter   9:  -569.67469801452728   -4.25467e-08   7.88727e-08 DIIS
   @DF-RHF iter  10:  -569.67469801724690   -2.71962e-09   2.35602e-08 DIIS
   @DF-RHF iter  11:  -569.67469801747347   -2.26578e-10   7.67940e-09 DIIS
   @DF-RHF iter  12:  -569.67469801749507   -2.16005e-11   2.67357e-09 DIIS
   @DF-RHF iter  13:  -569.67469801749746   -2.38742e-12   7.79790e-10 DIIS
   @DF-RHF iter  14:  -569.67469801749917   -1.70530e-12   2.39986e-10 DIIS
   @DF-RHF iter  15:  -569.67469801749746    1.70530e-12   8.19037e-11 DIIS
  Energy and wave function converged.


  ==> Post-Iterations <==

    Orbital Energies [Eh]
    ---------------------

    Doubly Occupied:                                                      

       1A    -20.591150     2A    -20.580533     3A    -20.575802  
       4A    -20.570943     5A    -20.559648     6A    -11.353461  
       7A    -11.298491     8A    -11.290243     9A    -11.285815  
      10A    -11.277608    11A     -1.438356    12A     -1.393366  
      13A     -1.379062    14A     -1.354610    15A     -1.350767  
      16A     -1.057150    17A     -1.020524    18A     -0.897165  
      19A     -0.870549    20A     -0.798684    21A     -0.752123  
      22A     -0.727250    23A     -0.711703    24A     -0.698232  
      25A     -0.670942    26A     -0.646874    27A     -0.621075  
      28A     -0.614340    29A     -0.603586    30A     -0.586089  
      31A     -0.572364    32A     -0.556695    33A     -0.543690  
      34A     -0.515467    35A     -0.502425    36A     -0.490818  
      37A     -0.486721    38A     -0.470524    39A     -0.440522  
      40A     -0.413053  

    Virtual:                                                              

      41A      0.024510    42A      0.033787    43A      0.035931  
      44A      0.039864    45A      0.050834    46A      0.053092  
      47A      0.054976    48A      0.059207    49A      0.064848  
      50A      0.077344    51A      0.099291    52A      0.104605  
      53A      0.110660    54A      0.113283    55A      0.117295  
      56A      0.117673    57A      0.119627    58A      0.123747  
      59A      0.127458    60A      0.133506    61A      0.144558  
      62A      0.146554    63A      0.150044    64A      0.153060  
      65A      0.160202    66A      0.169782    67A      0.175028  
      68A      0.183422    69A      0.186959    70A      0.195117  
      71A      0.205350    72A      0.209319    73A      0.213674  
      74A      0.219438    75A      0.237350    76A      0.240850  
      77A      0.247587    78A      0.253262    79A      0.261703  
      80A      0.265161    81A      0.267724    82A      0.271172  
      83A      0.273270    84A      0.276366    85A      0.280198  
      86A      0.284549    87A      0.293486    88A      0.296975  
      89A      0.304324    90A      0.310558    91A      0.315814  
      92A      0.317102    93A      0.318756    94A      0.322339  
      95A      0.328817    96A      0.340125    97A      0.346793  
      98A      0.357597    99A      0.362896   100A      0.364980  
     101A      0.369619   102A      0.377501   103A      0.387052  
     104A      0.393139   105A      0.396873   106A      0.399193  
     107A      0.403891   108A      0.406918   109A      0.415587  
     110A      0.420961   111A      0.429044   112A      0.432306  
     113A      0.438416   114A      0.441040   115A      0.445286  
     116A      0.452479   117A      0.461749   118A      0.466011  
     119A      0.467944   120A      0.476663   121A      0.477953  
     122A      0.483081   123A      0.488555   124A      0.491035  
     125A      0.497966   126A      0.499196   127A      0.505186  
     128A      0.509632   129A      0.512103   130A      0.520356  
     131A      0.521608   132A      0.528013   133A      0.535489  
     134A      0.540209   135A      0.545977   136A      0.547107  
     137A      0.553980   138A      0.560022   139A      0.564464  
     140A      0.565765   141A      0.568114   142A      0.571637  
     143A      0.573505   144A      0.577316   145A      0.591177  
     146A      0.593879   147A      0.610214   148A      0.613303  
     149A      0.622043   150A      0.625685   151A      0.629927  
     152A      0.636651   153A      0.643648   154A      0.651796  
     155A      0.660564   156A      0.667557   157A      0.675487  
     158A      0.691819   159A      0.693544   160A      0.696965  
     161A      0.704799   162A      0.709354   163A      0.719046  
     164A      0.732873   165A      0.740836   166A      0.748605  
     167A      0.754325   168A      0.765592   169A      0.783113  
     170A      0.788393   171A      0.797677   172A      0.798105  
     173A      0.814141   174A      0.818093   175A      0.822653  
     176A      0.835744   177A      0.850587   178A      0.855728  
     179A      0.865188   180A      0.871663   181A      0.878462  
     182A      0.881426   183A      0.889292   184A      0.898790  
     185A      0.901417   186A      0.911626   187A      0.919080  
     188A      0.924040   189A      0.931969   190A      0.939088  
     191A      0.946966   192A      0.952053   193A      0.959749  
     194A      0.970628   195A      0.974225   196A      0.982821  
     197A      0.988097   198A      0.994309   199A      1.001037  
     200A      1.017445   201A      1.026467   202A      1.032177  
     203A      1.035387   204A      1.041859   205A      1.045382  
     206A      1.056639   207A      1.059897   208A      1.062938  
     209A      1.069551   210A      1.074903   211A      1.080824  
     212A      1.086417   213A      1.090813   214A      1.099641  
     215A      1.107313   216A      1.113386   217A      1.118664  
     218A      1.130406   219A      1.135542   220A      1.142114  
     221A      1.147847   222A      1.155416   223A      1.164495  
     224A      1.167358   225A      1.169957   226A      1.187641  
     227A      1.188510   228A      1.192966   229A      1.198468  
     230A      1.199383   231A      1.213610   232A      1.215627  
     233A      1.227488   234A      1.232330   235A      1.235252  
     236A      1.241852   237A      1.252102   238A      1.256689  
     239A      1.261771   240A      1.274806   241A      1.285218  
     242A      1.289940   243A      1.293893   244A      1.308932  
     245A      1.312459   246A      1.320049   247A      1.323951  
     248A      1.343386   249A      1.348239   250A      1.359815  
     251A      1.371436   252A      1.376691   253A      1.384735  
     254A      1.397346   255A      1.401169   256A      1.410294  
     257A      1.418210   258A      1.426001   259A      1.434675  
     260A      1.435201   261A      1.439108   262A      1.448613  
     263A      1.452619   264A      1.475869   265A      1.479902  
     266A      1.487192   267A      1.494475   268A      1.501408  
     269A      1.507598   270A      1.526420   271A      1.529449  
     272A      1.540973   273A      1.552100   274A      1.559652  
     275A      1.568954   276A      1.575473   277A      1.585828  
     278A      1.590427   279A      1.596949   280A      1.607915  
     281A      1.619238   282A      1.622503   283A      1.627120  
     284A      1.641460   285A      1.650833   286A      1.662914  
     287A      1.670051   288A      1.678252   289A      1.684115  
     290A      1.696784   291A      1.704075   292A      1.720033  
     293A      1.720831   294A      1.728749   295A      1.733635  
     296A      1.741699   297A      1.746899   298A      1.760922  
     299A      1.774031   300A      1.777721   301A      1.780936  
     302A      1.793533   303A      1.811165   304A      1.817505  
     305A      1.824049   306A      1.831220   307A      1.844065  
     308A      1.850584   309A      1.858510   310A      1.869019  
     311A      1.877404   312A      1.887587   313A      1.897135  
     314A      1.899601   315A      1.905594   316A      1.922537  
     317A      1.928705   318A      1.935228   319A      1.940280  
     320A      1.960019   321A      1.964030   322A      1.975304  
     323A      1.980047   324A      1.987650   325A      1.999846  
     326A      2.002875   327A      2.009850   328A      2.019978  
     329A      2.027119   330A      2.040346   331A      2.056240  
     332A      2.058278   333A      2.070988   334A      2.075744  
     335A      2.085622   336A      2.097105   337A      2.112220  
     338A      2.113298   339A      2.125909   340A      2.138420  
     341A      2.143298   342A      2.148442   343A      2.165036  
     344A      2.180000   345A      2.199607   346A      2.206290  
     347A      2.216339   348A      2.231154   349A      2.251234  
     350A      2.259472   351A      2.272820   352A      2.277431  
     353A      2.301758   354A      2.319026   355A      2.319477  
     356A      2.332118   357A      2.344089   358A      2.350306  
     359A      2.377066   360A      2.383260   361A      2.407772  
     362A      2.425849   363A      2.441946   364A      2.449672  
     365A      2.480860   366A      2.496207   367A      2.500359  
     368A      2.527386   369A      2.546943   370A      2.561106  
     371A      2.580348   372A      2.584890   373A      2.595100  
     374A      2.620256   375A      2.629807   376A      2.659158  
     377A      2.670262   378A      2.682566   379A      2.700679  
     380A      2.707601   381A      2.714012   382A      2.719602  
     383A      2.735273   384A      2.743677   385A      2.752528  
     386A      2.763367   387A      2.781739   388A      2.795499  
     389A      2.806271   390A      2.824886   391A      2.827471  
     392A      2.842718   393A      2.853059   394A      2.866162  
     395A      2.890264   396A      2.897159   397A      2.910033  
     398A      2.914567   399A      2.922833   400A      2.937582  
     401A      2.951952   402A      2.970687   403A      2.978215  
     404A      3.006739   405A      3.015857   406A      3.040721  
     407A      3.043980   408A      3.046340   409A      3.053892  
     410A      3.071562   411A      3.075731   412A      3.080697  
     413A      3.118063   414A      3.119428   415A      3.140344  
     416A      3.144969   417A      3.155943   418A      3.160964  
     419A      3.173013   420A      3.183961   421A      3.197964  
     422A      3.223878   423A      3.237676   424A      3.259754  
     425A      3.266697   426A      3.281049   427A      3.286843  
     428A      3.294778   429A      3.301749   430A      3.330117  
     431A      3.338966   432A      3.346674   433A      3.371759  
     434A      3.394504   435A      3.403771   436A      3.439905  
     437A      3.459886   438A      3.496715   439A      3.507462  
     440A      3.532159   441A      3.548267   442A      3.566727  
     443A      3.593326   444A      3.629237   445A      3.638671  
     446A      3.670163   447A      3.675111   448A      3.690582  
     449A      3.720115   450A      3.737898   451A      3.758527  
     452A      3.769855   453A      3.779377   454A      3.798787  
     455A      3.800071   456A      3.844181   457A      3.850767  
     458A      3.865447   459A      3.875767   460A      3.907656  
     461A      3.917745   462A      3.931206   463A      3.945336  
     464A      3.949870   465A      3.973450   466A      3.980081  
     467A      3.992575   468A      4.017557   469A      4.022246  
     470A      4.022424   471A      4.039625   472A      4.057844  
     473A      4.089000   474A      4.093389   475A      4.113205  
     476A      4.118413   477A      4.128508   478A      4.134247  
     479A      4.143249   480A      4.162768   481A      4.171962  
     482A      4.190703   483A      4.199699   484A      4.207191  
     485A      4.225290   486A      4.227728   487A      4.234027  
     488A      4.241708   489A      4.274377   490A      4.277612  
     491A      4.300385   492A      4.320755   493A      4.321310  
     494A      4.331647   495A      4.333301   496A      4.351289  
     497A      4.357076   498A      4.369352   499A      4.379441  
     500A      4.395626   501A      4.406359   502A      4.410971  
     503A      4.437523   504A      4.463369   505A      4.470107  
     506A      4.476403   507A      4.485129   508A      4.494948  
     509A      4.517325   510A      4.528337   511A      4.541767  
     512A      4.548992   513A      4.573262   514A      4.578519  
     515A      4.602720   516A      4.615645   517A      4.619321  
     518A      4.635296   519A      4.642209   520A      4.661485  
     521A      4.704207   522A      4.720261   523A      4.738266  
     524A      4.747413   525A      4.752092   526A      4.774325  
     527A      4.775756   528A      4.798253   529A      4.807898  
     530A      4.815359   531A      4.847866   532A      4.853589  
     533A      4.865675   534A      4.902584   535A      4.906950  
     536A      4.922664   537A      4.946225   538A      4.971982  
     539A      4.973652   540A      4.996459   541A      5.008893  
     542A      5.018904   543A      5.027690   544A      5.051436  
     545A      5.069887   546A      5.088461   547A      5.088657  
     548A      5.100102   549A      5.107908   550A      5.138170  
     551A      5.141518   552A      5.154780   553A      5.181716  
     554A      5.190490   555A      5.218523   556A      5.226224  
     557A      5.252713   558A      5.259840   559A      5.280920  
     560A      5.294276   561A      5.297256   562A      5.330553  
     563A      5.334414   564A      5.363680   565A      5.374936  
     566A      5.381232   567A      5.404184   568A      5.409793  
     569A      5.423204   570A      5.424990   571A      5.461454  
     572A      5.468067   573A      5.484902   574A      5.496454  
     575A      5.525077   576A      5.550401   577A      5.566092  
     578A      5.574359   579A      5.576990   580A      5.591718  
     581A      5.621363   582A      5.637759   583A      5.649594  
     584A      5.665337   585A      5.666750   586A      5.709826  
     587A      5.720887   588A      5.743766   589A      5.755113  
     590A      5.783161   591A      5.815502   592A      5.824362  
     593A      5.848289   594A      5.878679   595A      5.896117  
     596A      5.928525   597A      5.945640   598A      5.990231  
     599A      6.013524   600A      6.044209   601A      6.112434  
     602A      6.132357   603A      6.170104   604A      6.210496  
     605A      6.228425   606A      6.351430   607A      6.365944  
     608A      6.386207   609A      6.403059   610A      6.510944  
     611A      6.638218   612A      6.682231   613A      6.734985  
     614A      6.745114   615A      6.757521   616A      6.801283  
     617A      6.806848   618A      6.820020   619A      6.871567  
     620A      6.912287   621A      6.968076   622A      6.979820  
     623A      7.028411   624A      7.037406   625A      7.043965  
     626A      7.058638   627A      7.079829   628A      7.095141  
     629A      7.102108   630A      7.108143   631A      7.142582  
     632A      7.157635   633A      7.171422   634A      7.194452  
     635A      7.281630   636A      7.312408   637A      7.333386  
     638A      7.339930   639A      7.353409   640A      7.369482  
     641A      7.400522   642A      7.424739   643A      7.453599  
     644A      7.481493   645A      7.497135   646A      7.513992  
     647A      7.528877   648A      7.563426   649A      7.570419  
     650A      7.574074   651A      7.596493   652A      7.615863  
     653A      7.624441   654A      7.658048   655A      7.705136  
     656A      7.727796   657A      7.744465   658A      7.775534  
     659A      7.805018   660A      7.840550   661A      7.856211  
     662A      7.898302   663A      7.915257   664A      7.945077  
     665A      7.962512   666A      8.023969   667A      8.047356  
     668A      8.076809   669A      8.118013   670A      8.160014  
     671A      8.283653   672A      8.290679   673A      8.310094  
     674A      8.371097   675A      8.449360   676A      8.492477  
     677A      8.615550   678A      8.686945   679A      8.711377  
     680A      8.739656   681A     15.947713   682A     16.799848  
     683A     16.950307   684A     17.304875   685A     17.438623  
     686A     18.546433   687A     18.957151   688A     19.103274  
     689A     19.275006   690A     19.848333  

    Final Occupation by Irrep:
              A 
    DOCC [    40 ]

  @DF-RHF Final Energy:  -569.67469801749746

   => Energetics <=

    Nuclear Repulsion Energy =            633.7616089265420669
    One-Electron Energy =               -2041.7357740981915413
    Two-Electron Energy =                 838.2994671541520120
    Total Energy =                       -569.6746980174974624

Computation Completed

*** tstop() called on node35.bme.utexas.edu at Fri Nov  6 04:08:15 2020
Module time:
	user time   =     502.62 seconds =       8.38 minutes
	system time =     100.67 seconds =       1.68 minutes
	total time  =        147 seconds =       2.45 minutes
Total time:
	user time   =     502.62 seconds =       8.38 minutes
	system time =     100.67 seconds =       1.68 minutes
	total time  =        147 seconds =       2.45 minutes
   => Loading Basis Set <=

    Name: (AUG-CC-PVTZ AUX)
    Role: RIFIT
    Keyword: DF_BASIS_MP2
    atoms 1-5   entry O          line   264 file /home/xy3866/psi4conda/share/psi4/basis/aug-cc-pvtz-ri.gbs 
    atoms 6-10  entry C          line   148 file /home/xy3866/psi4conda/share/psi4/basis/aug-cc-pvtz-ri.gbs 
    atoms 11-20 entry H          line    30 file /home/xy3866/psi4conda/share/psi4/basis/aug-cc-pvtz-ri.gbs 


*** tstart() called on node35.bme.utexas.edu
*** at Fri Nov  6 04:08:16 2020


  //>>>>>>>>>>>>>>>>>>>>>>>>>>>>>>>>>>>//
  //               DFMP2               //
  //<<<<<<<<<<<<<<<<<<<<<<<<<<<<<<<<<<<//

	 --------------------------------------------------------
	                          DF-MP2                         
	      2nd-Order Density-Fitted Moller-Plesset Theory     
	              RMP2 Wavefunction,   8 Threads             
	                                                         
	        Rob Parrish, Justin Turney, Andy Simmonett,      
	           Ed Hohenstein, and C. David Sherrill          
	 --------------------------------------------------------

   => Auxiliary Basis Set <=

  Basis Set: (AUG-CC-PVTZ AUX)
    Blend: AUG-CC-PVTZ-RI
    Number of shells: 420
    Number of basis function: 1520
    Number of Cartesian functions: 1910
    Spherical Harmonics?: true
    Max angular momentum: 4

	 --------------------------------------------------------
	                 NBF =   690, NAUX =  1520
	 --------------------------------------------------------
	   CLASS    FOCC     OCC    AOCC    AVIR     VIR    FVIR
	   PAIRS       0      40      40     650     650       0
	 --------------------------------------------------------

  DFHelper Memory: AOs need 5.281 GiB; user supplied 22.352 GiB. Using in-core AOs.


         ------------------------------------------------------------
                                     CPHF                           
                                  Rob Parrish                       
         ------------------------------------------------------------

  ==> Geometry <==

    Molecular point group: c1
    Full point group: C1

    Geometry (in Angstrom), charge = 0, multiplicity = 1:

       Center              X                  Y                   Z               Mass       
    ------------   -----------------  -----------------  -----------------  -----------------
         O           -0.115010319268    -1.801947331062     0.455457735334    15.994914619570
         O            0.358188680732     1.392329668938    -1.024093264666    15.994914619570
         O           -1.955396319268     1.369671668938     0.469667735334    15.994914619570
         O            2.714574680732     0.448924668938    -0.205082264666    15.994914619570
         O           -1.671871319268    -0.801880331062    -0.997900264666    15.994914619570
         C            0.431350680732     1.011897668938     0.350331735334    12.000000000000
         C           -0.915162419268     0.484458768938     0.838206135334    12.000000000000
         C            1.542863680732    -0.021700931062     0.416125735334    12.000000000000
         C           -1.215383319268    -0.938096331062     0.340302735334    12.000000000000
         C            1.054729680732    -1.318354331062    -0.228066264666    12.000000000000
         H            0.704015680732     1.885798668938     0.961172735334     1.007825032230
         H           -0.882123319268     0.430615668938     1.935921735334     1.007825032230
         H            1.783535680732    -0.233285331062     1.468624735334     1.007825032230
         H           -1.994192319268    -1.398518331062     0.962356735334     1.007825032230
         H            0.843361680732    -1.149190331062    -1.289383264666     1.007825032230
         H            1.805673680732    -2.103042331062    -0.125928264666     1.007825032230
         H           -0.393292319268     2.010461668938    -1.083085264666     1.007825032230
         H           -2.341948319268     0.975042668938    -0.339489264666     1.007825032230
         H            2.399459680732     0.933641668938    -0.992218264666     1.007825032230
         H           -1.995882319268    -1.677914331062    -1.277910264666     1.007825032230

  Nuclear repulsion =  633.761608926542067
  Reference energy  = -569.674698017497462

  ==> Basis Set <==

  Basis Set: AUG-CC-PVTZ
    Blend: AUG-CC-PVTZ
    Number of shells: 230
    Number of basis function: 690
    Number of Cartesian functions: 800
    Spherical Harmonics?: true
    Max angular momentum: 3

  ==> CGRSolver (by Rob Parrish) <==

   Number of roots    =         1
   Preconditioning    =    JACOBI
   Convergence cutoff =     1E-06
   Maximum iterations =       100

  ==> CPHFRHamiltonian (by Rob Parrish) <== 

  ==> MemDFJK: Density-Fitted J/K Matrices <==

    J tasked:                   Yes
    K tasked:                   Yes
    wK tasked:                   No
    OpenMP threads:               8
    Memory [MiB]:             22888
    Algorithm:                 Disk
    Schwarz Cutoff:           1E-12
    Mask sparsity (%):       3.3879
    Fitting Condition:        1E-10

   => Auxiliary Basis Set <=

  Basis Set: (AUG-CC-PVTZ AUX)
    Blend: AUG-CC-PVTZ-JKFIT
    Number of shells: 440
    Number of basis function: 1500
    Number of Cartesian functions: 1860
    Spherical Harmonics?: true
    Max angular momentum: 4

  ==> CPHF Iterations <==

  => Iterations <=

             Iter  Converged  Remaining    Residual
  CGR           1          0          1   8.270E-02
  CGR           2          0          1   1.835E-02
  CGR           3          0          1   7.332E-03
  CGR           4          0          1   2.107E-03
  CGR           5          0          1   5.803E-04
  CGR           6          0          1   1.891E-04
  CGR           7          0          1   5.758E-05
  CGR           8          0          1   1.533E-05
  CGR           9          0          1   5.250E-06
  CGR          10          0          1   1.490E-06
  CGR          11          1          0   4.526E-07

    CGRSolver converged.

	-----------------------------------------------------------
	 ==================> DF-MP2 Energies <==================== 
	-----------------------------------------------------------
	 Reference Energy          =    -569.6746980174974624 [Eh]
	 Singles Energy            =      -0.0000000000000000 [Eh]
	 Same-Spin Energy          =      -0.5545603877620936 [Eh]
	 Opposite-Spin Energy      =      -1.7035745919421332 [Eh]
	 Correlation Energy        =      -2.2581349797042267 [Eh]
	 Total Energy              =    -571.9328329972016718 [Eh]
	-----------------------------------------------------------
	 ================> DF-SCS-MP2 Energies <================== 
	-----------------------------------------------------------
	 SCS Same-Spin Scale       =       0.3333333333333333 [-]
	 SCS Opposite-Spin Scale   =       1.2000000000000000 [-]
	 SCS Same-Spin Energy      =      -0.1848534625873645 [Eh]
	 SCS Opposite-Spin Energy  =      -2.0442895103305596 [Eh]
	 SCS Correlation Energy    =      -2.2291429729179240 [Eh]
	 SCS Total Energy          =    -571.9038409904153468 [Eh]
	-----------------------------------------------------------



Properties will be evaluated at  -0.000000,  -0.000000,   0.000000 [a0]

Properties computed using the MP2 density matrix

  Nuclear Dipole Moment: [e a0]
     X:    -0.0701      Y:    -0.3031      Z:     0.2000

  Electronic Dipole Moment: [e a0]
     X:    -0.7853      Y:    -0.0703      Z:    -0.3275

  Dipole Moment: [e a0]
     X:    -0.8554      Y:    -0.3734      Z:    -0.1275     Total:     0.9420

  Dipole Moment: [D]
     X:    -2.1742      Y:    -0.9490      Z:    -0.3240     Total:     2.3944


*** tstop() called on node35.bme.utexas.edu at Fri Nov  6 04:13:56 2020
Module time:
	user time   =    1695.15 seconds =      28.25 minutes
	system time =     157.88 seconds =       2.63 minutes
	total time  =        340 seconds =       5.67 minutes
Total time:
	user time   =    2198.11 seconds =      36.64 minutes
	system time =     258.58 seconds =       4.31 minutes
	total time  =        488 seconds =       8.13 minutes

    Psi4 stopped on: Friday, 06 November 2020 04:13AM
    Psi4 wall time for execution: 0:08:09.23

*** Psi4 exiting successfully. Buy a developer a beer!
