
    -----------------------------------------------------------------------
          Psi4: An Open-Source Ab Initio Electronic Structure Package
                               Psi4 1.3.2 release

                         Git: Rev {HEAD} ecbda83 


    R. M. Parrish, L. A. Burns, D. G. A. Smith, A. C. Simmonett,
    A. E. DePrince III, E. G. Hohenstein, U. Bozkaya, A. Yu. Sokolov,
    R. Di Remigio, R. M. Richard, J. F. Gonthier, A. M. James,
    H. R. McAlexander, A. Kumar, M. Saitow, X. Wang, B. P. Pritchard,
    P. Verma, H. F. Schaefer III, K. Patkowski, R. A. King, E. F. Valeev,
    F. A. Evangelista, J. M. Turney, T. D. Crawford, and C. D. Sherrill,
    J. Chem. Theory Comput. 13(7) pp 3185--3197 (2017).
    (doi: 10.1021/acs.jctc.7b00174)


                         Additional Contributions by
    P. Kraus, H. Kruse, M. H. Lechner, M. C. Schieber, R. A. Shaw,
    A. Alenaizan, R. Galvelis, Z. L. Glick, S. Lehtola, and J. P. Misiewicz

    -----------------------------------------------------------------------


    Psi4 started on: Thursday, 05 November 2020 03:54PM

    Process ID: 22740
    Host:       node35.bme.utexas.edu
    PSIDATADIR: /home/xy3866/psi4conda/share/psi4
    Memory:     500.0 MiB
    Threads:    8
    
  ==> Input File <==

--------------------------------------------------------------------------
#psi4
#
memory 32 gb

molecule  {
0 1
  O       -0.1147700    -1.8002930     0.4548730
  O        0.3584290     1.3939840    -1.0246780
  O       -1.9551560     1.3713260     0.4690830
  O        2.7148150     0.4505790    -0.2056670
  O       -1.6824543    -0.8053332    -0.9952554
  C        0.4315910     1.0135520     0.3497470
  C       -0.9093320     0.4742750     0.8400700
  C        1.5345100    -0.0288940     0.4204030
  C       -1.2151430    -0.9364420     0.3397180
  C        1.0549700    -1.3167000    -0.2286510
  H        0.7042560     1.8874530     0.9605880
  H       -0.8818830     0.4322700     1.9353370
  H        1.7837760    -0.2316310     1.4680400
  H       -1.9997105    -1.3973489     0.9541296
  H        0.8436020    -1.1475360    -1.2899680
  H        1.8059140    -2.1013880    -0.1265130
  H       -0.3930520     2.0121160    -1.0836700
  H       -2.3417080     0.9766970    -0.3400740
  H        2.3997000     0.9352960    -0.9928030
  H       -1.9956420    -1.6762600    -1.2784950
units angstrom
no_reorient  #important for SAPT in psi4, default
symmetry c1  #important for SAPT in psi4, default
}

set PROPERTIES_ORIGIN ["COM"]
properties('MP2/aug-cc-pvtz', properties = ['dipole'])
--------------------------------------------------------------------------

  Memory set to  29.802 GiB by Python driver.
    SCF Algorithm Type (re)set to DF.

*** tstart() called on node35.bme.utexas.edu
*** at Thu Nov  5 15:54:43 2020

   => Loading Basis Set <=

    Name: AUG-CC-PVTZ
    Role: ORBITAL
    Keyword: BASIS
    atoms 1-5   entry O          line   327 file /home/xy3866/psi4conda/share/psi4/basis/aug-cc-pvtz.gbs 
    atoms 6-10  entry C          line   235 file /home/xy3866/psi4conda/share/psi4/basis/aug-cc-pvtz.gbs 
    atoms 11-20 entry H          line    36 file /home/xy3866/psi4conda/share/psi4/basis/aug-cc-pvtz.gbs 


         ---------------------------------------------------------
                                   SCF
               by Justin Turney, Rob Parrish, Andy Simmonett
                          and Daniel G. A. Smith
                              RHF Reference
                        8 Threads,  30517 MiB Core
         ---------------------------------------------------------

  ==> Geometry <==

    Molecular point group: c1
    Full point group: C1

    Geometry (in Angstrom), charge = 0, multiplicity = 1:

       Center              X                  Y                   Z               Mass       
    ------------   -----------------  -----------------  -----------------  -----------------
         O           -0.113577702974    -1.799745413665     0.454580163215    15.994914619570
         O            0.359621297026     1.394531586335    -1.024970836785    15.994914619570
         O           -1.953963702974     1.371873586335     0.468790163215    15.994914619570
         O            2.716007297026     0.451126586335    -0.205959836785    15.994914619570
         O           -1.681262002974    -0.804785613665    -0.995548236785    15.994914619570
         C            0.432783297026     1.014099586335     0.349454163215    12.000000000000
         C           -0.908139702974     0.474822586335     0.839777163215    12.000000000000
         C            1.535702297026    -0.028346413665     0.420110163215    12.000000000000
         C           -1.213950702974    -0.935894413665     0.339425163215    12.000000000000
         C            1.056162297026    -1.316152413665    -0.228943836785    12.000000000000
         H            0.705448297026     1.888000586335     0.960295163215     1.007825032230
         H           -0.880690702974     0.432817586335     1.935044163215     1.007825032230
         H            1.784968297026    -0.231083413665     1.467747163215     1.007825032230
         H           -1.998518202974    -1.396801313665     0.953836763215     1.007825032230
         H            0.844794297026    -1.146988413665    -1.290260836785     1.007825032230
         H            1.807106297026    -2.100840413665    -0.126805836785     1.007825032230
         H           -0.391859702974     2.012663586335    -1.083962836785     1.007825032230
         H           -2.340515702974     0.977244586335    -0.340366836785     1.007825032230
         H            2.400892297026     0.935843586335    -0.993095836785     1.007825032230
         H           -1.994449702974    -1.675712413665    -1.278787836785     1.007825032230

  Running in c1 symmetry.

  Rotational constants: A =      0.06482  B =      0.04278  C =      0.03242 [cm^-1]
  Rotational constants: A =   1943.32966  B =   1282.62565  C =    971.86542 [MHz]
  Nuclear repulsion =  633.671601256133613

  Charge       = 0
  Multiplicity = 1
  Electrons    = 80
  Nalpha       = 40
  Nbeta        = 40

  ==> Algorithm <==

  SCF Algorithm Type is DF.
  DIIS enabled.
  MOM disabled.
  Fractional occupation disabled.
  Guess Type is SAD.
  Energy threshold   = 1.00e-10
  Density threshold  = 1.00e-10
  Integral threshold = 0.00e+00

  ==> Primary Basis <==

  Basis Set: AUG-CC-PVTZ
    Blend: AUG-CC-PVTZ
    Number of shells: 230
    Number of basis function: 690
    Number of Cartesian functions: 800
    Spherical Harmonics?: true
    Max angular momentum: 3

   => Loading Basis Set <=

    Name: (AUG-CC-PVTZ AUX)
    Role: JKFIT
    Keyword: DF_BASIS_SCF
    atoms 1-5   entry O          line   286 file /home/xy3866/psi4conda/share/psi4/basis/aug-cc-pvtz-jkfit.gbs 
    atoms 6-10  entry C          line   162 file /home/xy3866/psi4conda/share/psi4/basis/aug-cc-pvtz-jkfit.gbs 
    atoms 11-20 entry H          line    70 file /home/xy3866/psi4conda/share/psi4/basis/aug-cc-pvtz-jkfit.gbs 

  ==> Pre-Iterations <==

   -------------------------------------------------------
    Irrep   Nso     Nmo     Nalpha   Nbeta   Ndocc  Nsocc
   -------------------------------------------------------
     A        690     690       0       0       0       0
   -------------------------------------------------------
    Total     690     690      40      40      40       0
   -------------------------------------------------------

  ==> Integral Setup <==

  DFHelper Memory: AOs need 5.281 GiB; user supplied 22.352 GiB. Using in-core AOs.

  ==> MemDFJK: Density-Fitted J/K Matrices <==

    J tasked:                   Yes
    K tasked:                   Yes
    wK tasked:                   No
    OpenMP threads:               8
    Memory [MiB]:             22888
    Algorithm:                 Disk
    Schwarz Cutoff:           1E-12
    Mask sparsity (%):       3.3879
    Fitting Condition:        1E-10

   => Auxiliary Basis Set <=

  Basis Set: (AUG-CC-PVTZ AUX)
    Blend: AUG-CC-PVTZ-JKFIT
    Number of shells: 440
    Number of basis function: 1500
    Number of Cartesian functions: 1860
    Spherical Harmonics?: true
    Max angular momentum: 4

  Minimum eigenvalue in the overlap matrix is 2.5305369413E-06.
  Using Symmetric Orthogonalization.

  SCF Guess: Superposition of Atomic Densities via on-the-fly atomic UHF.

  ==> Iterations <==

                           Total Energy        Delta E     RMS |[F,P]|

   @DF-RHF iter SAD:  -569.12812470636629   -5.69128e+02   0.00000e+00 
   @DF-RHF iter   1:  -569.37624824468685   -2.48124e-01   1.13054e-03 DIIS
   @DF-RHF iter   2:  -569.61364873660807   -2.37400e-01   6.04770e-04 DIIS
   @DF-RHF iter   3:  -569.67109291884901   -5.74442e-02   1.08527e-04 DIIS
   @DF-RHF iter   4:  -569.67485115234126   -3.75823e-03   3.17092e-05 DIIS
   @DF-RHF iter   5:  -569.67511788799368   -2.66736e-04   9.54073e-06 DIIS
   @DF-RHF iter   6:  -569.67514901956974   -3.11316e-05   2.64774e-06 DIIS
   @DF-RHF iter   7:  -569.67515258107426   -3.56150e-06   9.32768e-07 DIIS
   @DF-RHF iter   8:  -569.67515290904771   -3.27973e-07   3.21472e-07 DIIS
   @DF-RHF iter   9:  -569.67515295130045   -4.22527e-08   7.86104e-08 DIIS
   @DF-RHF iter  10:  -569.67515295398948   -2.68903e-09   2.35547e-08 DIIS
   @DF-RHF iter  11:  -569.67515295421515   -2.25668e-10   7.64639e-09 DIIS
   @DF-RHF iter  12:  -569.67515295423357   -1.84173e-11   2.67706e-09 DIIS
   @DF-RHF iter  13:  -569.67515295423834   -4.77485e-12   7.90656e-10 DIIS
   @DF-RHF iter  14:  -569.67515295423709    1.25056e-12   2.45218e-10 DIIS
   @DF-RHF iter  15:  -569.67515295423868   -1.59162e-12   8.54534e-11 DIIS
  Energy and wave function converged.


  ==> Post-Iterations <==

    Orbital Energies [Eh]
    ---------------------

    Doubly Occupied:                                                      

       1A    -20.590390     2A    -20.581108     3A    -20.574711  
       4A    -20.571455     5A    -20.558438     6A    -11.353928  
       7A    -11.298716     8A    -11.291260     9A    -11.285860  
      10A    -11.278461    11A     -1.438989    12A     -1.391746  
      13A     -1.375977    14A     -1.354795    15A     -1.347935  
      16A     -1.059285    17A     -1.023225    18A     -0.899215  
      19A     -0.870318    20A     -0.798938    21A     -0.752376  
      22A     -0.728459    23A     -0.712055    24A     -0.696331  
      25A     -0.669918    26A     -0.646606    27A     -0.621265  
      28A     -0.614328    29A     -0.603199    30A     -0.585142  
      31A     -0.571470    32A     -0.556393    33A     -0.542984  
      34A     -0.516436    35A     -0.502158    36A     -0.491188  
      37A     -0.487954    38A     -0.471794    39A     -0.440714  
      40A     -0.416128  

    Virtual:                                                              

      41A      0.024533    42A      0.033612    43A      0.035958  
      44A      0.039782    45A      0.050837    46A      0.053158  
      47A      0.054820    48A      0.059061    49A      0.065011  
      50A      0.077296    51A      0.099267    52A      0.104750  
      53A      0.110871    54A      0.113445    55A      0.116994  
      56A      0.117805    57A      0.119533    58A      0.123686  
      59A      0.127258    60A      0.133192    61A      0.144457  
      62A      0.146484    63A      0.150032    64A      0.153163  
      65A      0.160106    66A      0.169888    67A      0.175259  
      68A      0.183496    69A      0.186903    70A      0.195147  
      71A      0.205288    72A      0.209300    73A      0.213670  
      74A      0.219544    75A      0.237457    76A      0.240661  
      77A      0.247577    78A      0.253061    79A      0.261666  
      80A      0.265021    81A      0.267589    82A      0.270807  
      83A      0.272875    84A      0.276344    85A      0.280343  
      86A      0.284825    87A      0.292957    88A      0.296817  
      89A      0.304182    90A      0.310182    91A      0.315619  
      92A      0.316793    93A      0.318736    94A      0.322375  
      95A      0.328715    96A      0.340263    97A      0.346719  
      98A      0.357178    99A      0.362922   100A      0.364050  
     101A      0.369850   102A      0.377382   103A      0.386797  
     104A      0.392440   105A      0.396289   106A      0.398690  
     107A      0.403366   108A      0.406589   109A      0.415947  
     110A      0.421058   111A      0.428738   112A      0.432567  
     113A      0.439234   114A      0.441021   115A      0.445276  
     116A      0.452856   117A      0.461426   118A      0.465761  
     119A      0.468137   120A      0.476571   121A      0.478002  
     122A      0.483344   123A      0.488982   124A      0.490646  
     125A      0.498542   126A      0.499041   127A      0.504914  
     128A      0.509384   129A      0.511800   130A      0.520435  
     131A      0.522514   132A      0.527983   133A      0.535595  
     134A      0.540150   135A      0.545700   136A      0.546964  
     137A      0.553980   138A      0.559157   139A      0.564100  
     140A      0.565640   141A      0.568149   142A      0.571310  
     143A      0.573172   144A      0.577151   145A      0.590821  
     146A      0.593883   147A      0.609829   148A      0.612937  
     149A      0.622157   150A      0.625831   151A      0.629886  
     152A      0.637277   153A      0.644614   154A      0.651993  
     155A      0.660886   156A      0.667369   157A      0.674300  
     158A      0.691903   159A      0.693081   160A      0.697195  
     161A      0.705940   162A      0.708811   163A      0.719015  
     164A      0.731990   165A      0.740480   166A      0.748590  
     167A      0.753944   168A      0.765775   169A      0.783232  
     170A      0.789738   171A      0.797521   172A      0.798460  
     173A      0.813955   174A      0.818282   175A      0.824052  
     176A      0.835384   177A      0.850149   178A      0.855987  
     179A      0.864997   180A      0.871320   181A      0.879154  
     182A      0.881816   183A      0.889132   184A      0.899036  
     185A      0.901793   186A      0.911833   187A      0.918706  
     188A      0.923509   189A      0.932316   190A      0.938521  
     191A      0.947246   192A      0.951937   193A      0.960401  
     194A      0.969941   195A      0.974696   196A      0.982312  
     197A      0.987958   198A      0.994706   199A      1.000677  
     200A      1.017286   201A      1.026122   202A      1.032377  
     203A      1.035421   204A      1.041075   205A      1.046076  
     206A      1.056952   207A      1.059267   208A      1.062936  
     209A      1.069168   210A      1.075009   211A      1.080218  
     212A      1.086161   213A      1.090242   214A      1.099384  
     215A      1.107659   216A      1.113114   217A      1.118836  
     218A      1.130703   219A      1.135298   220A      1.142110  
     221A      1.148582   222A      1.156323   223A      1.164985  
     224A      1.167577   225A      1.170552   226A      1.187938  
     227A      1.188200   228A      1.193372   229A      1.198252  
     230A      1.199122   231A      1.213807   232A      1.215540  
     233A      1.227145   234A      1.232179   235A      1.235225  
     236A      1.241765   237A      1.252458   238A      1.257058  
     239A      1.260935   240A      1.273523   241A      1.285350  
     242A      1.289389   243A      1.293791   244A      1.308344  
     245A      1.312536   246A      1.320469   247A      1.323316  
     248A      1.343840   249A      1.347220   250A      1.359053  
     251A      1.370945   252A      1.377235   253A      1.384027  
     254A      1.397247   255A      1.401503   256A      1.410530  
     257A      1.417101   258A      1.424615   259A      1.435094  
     260A      1.435694   261A      1.439148   262A      1.447499  
     263A      1.452411   264A      1.476648   265A      1.480096  
     266A      1.487445   267A      1.493819   268A      1.501106  
     269A      1.507689   270A      1.526770   271A      1.530464  
     272A      1.541639   273A      1.551949   274A      1.559446  
     275A      1.568957   276A      1.576047   277A      1.586789  
     278A      1.591358   279A      1.595754   280A      1.606276  
     281A      1.618287   282A      1.622439   283A      1.626205  
     284A      1.642323   285A      1.651797   286A      1.664213  
     287A      1.669805   288A      1.677743   289A      1.684629  
     290A      1.697103   291A      1.703557   292A      1.720158  
     293A      1.720481   294A      1.729596   295A      1.733308  
     296A      1.742671   297A      1.745534   298A      1.762011  
     299A      1.774783   300A      1.777488   301A      1.780908  
     302A      1.793318   303A      1.811342   304A      1.817555  
     305A      1.824383   306A      1.831196   307A      1.844346  
     308A      1.851447   309A      1.858720   310A      1.868567  
     311A      1.877930   312A      1.886695   313A      1.896739  
     314A      1.900107   315A      1.905991   316A      1.922234  
     317A      1.928136   318A      1.934986   319A      1.940557  
     320A      1.960177   321A      1.963474   322A      1.975470  
     323A      1.980742   324A      1.988550   325A      2.000022  
     326A      2.002776   327A      2.009300   328A      2.020646  
     329A      2.028228   330A      2.040559   331A      2.057181  
     332A      2.060918   333A      2.072005   334A      2.076886  
     335A      2.085083   336A      2.098193   337A      2.111919  
     338A      2.113169   339A      2.126851   340A      2.139599  
     341A      2.143118   342A      2.149210   343A      2.164689  
     344A      2.181354   345A      2.199506   346A      2.205951  
     347A      2.217058   348A      2.230929   349A      2.253341  
     350A      2.261219   351A      2.272689   352A      2.275921  
     353A      2.302216   354A      2.318948   355A      2.320568  
     356A      2.329224   357A      2.344703   358A      2.349417  
     359A      2.377917   360A      2.384204   361A      2.408610  
     362A      2.424983   363A      2.444846   364A      2.449578  
     365A      2.481208   366A      2.496669   367A      2.500457  
     368A      2.526154   369A      2.545629   370A      2.561003  
     371A      2.580000   372A      2.584083   373A      2.596679  
     374A      2.620405   375A      2.630506   376A      2.658750  
     377A      2.667689   378A      2.681979   379A      2.699791  
     380A      2.706793   381A      2.714910   382A      2.719943  
     383A      2.733247   384A      2.741715   385A      2.753749  
     386A      2.765692   387A      2.783205   388A      2.794830  
     389A      2.808103   390A      2.823971   391A      2.828918  
     392A      2.842949   393A      2.852075   394A      2.865944  
     395A      2.887215   396A      2.896387   397A      2.908903  
     398A      2.911874   399A      2.923774   400A      2.936235  
     401A      2.951067   402A      2.972046   403A      2.976680  
     404A      3.010298   405A      3.013113   406A      3.041604  
     407A      3.043806   408A      3.045150   409A      3.054730  
     410A      3.070111   411A      3.077399   412A      3.082196  
     413A      3.116403   414A      3.117898   415A      3.137646  
     416A      3.144094   417A      3.155638   418A      3.159640  
     419A      3.172052   420A      3.183351   421A      3.197001  
     422A      3.220977   423A      3.236061   424A      3.257598  
     425A      3.265821   426A      3.281251   427A      3.285103  
     428A      3.295034   429A      3.301367   430A      3.326698  
     431A      3.335915   432A      3.345334   433A      3.368618  
     434A      3.388672   435A      3.401228   436A      3.438508  
     437A      3.457966   438A      3.489762   439A      3.509130  
     440A      3.526436   441A      3.549520   442A      3.561450  
     443A      3.593043   444A      3.625454   445A      3.637442  
     446A      3.669740   447A      3.674756   448A      3.692096  
     449A      3.720656   450A      3.738877   451A      3.758160  
     452A      3.770033   453A      3.779456   454A      3.800604  
     455A      3.802869   456A      3.842066   457A      3.850987  
     458A      3.866830   459A      3.876994   460A      3.909928  
     461A      3.916778   462A      3.931076   463A      3.945221  
     464A      3.949340   465A      3.976452   466A      3.982276  
     467A      3.992418   468A      4.015931   469A      4.020565  
     470A      4.024010   471A      4.043392   472A      4.061258  
     473A      4.088980   474A      4.091544   475A      4.110027  
     476A      4.118508   477A      4.128945   478A      4.135433  
     479A      4.141893   480A      4.164674   481A      4.173498  
     482A      4.190367   483A      4.200363   484A      4.206342  
     485A      4.224820   486A      4.229712   487A      4.232507  
     488A      4.243002   489A      4.273406   490A      4.277507  
     491A      4.301010   492A      4.318923   493A      4.322966  
     494A      4.329608   495A      4.335443   496A      4.353414  
     497A      4.356272   498A      4.370005   499A      4.380054  
     500A      4.397404   501A      4.405846   502A      4.414675  
     503A      4.439864   504A      4.461979   505A      4.468875  
     506A      4.477313   507A      4.484484   508A      4.497775  
     509A      4.518569   510A      4.530777   511A      4.541619  
     512A      4.550224   513A      4.574339   514A      4.580012  
     515A      4.604357   516A      4.616445   517A      4.621308  
     518A      4.636356   519A      4.644987   520A      4.663801  
     521A      4.704348   522A      4.720397   523A      4.737548  
     524A      4.747540   525A      4.750888   526A      4.773397  
     527A      4.775431   528A      4.800219   529A      4.809616  
     530A      4.817599   531A      4.848148   532A      4.855675  
     533A      4.866484   534A      4.900547   535A      4.908149  
     536A      4.922755   537A      4.946392   538A      4.971390  
     539A      4.976181   540A      5.001060   541A      5.008249  
     542A      5.018585   543A      5.025988   544A      5.049507  
     545A      5.068427   546A      5.087194   547A      5.090745  
     548A      5.102821   549A      5.114851   550A      5.139059  
     551A      5.143161   552A      5.160199   553A      5.183124  
     554A      5.194939   555A      5.223138   556A      5.224256  
     557A      5.253333   558A      5.258882   559A      5.283344  
     560A      5.293832   561A      5.304559   562A      5.332422  
     563A      5.335024   564A      5.363838   565A      5.375308  
     566A      5.382340   567A      5.404604   568A      5.414394  
     569A      5.425978   570A      5.427429   571A      5.462026  
     572A      5.470557   573A      5.489344   574A      5.501204  
     575A      5.524982   576A      5.553485   577A      5.569790  
     578A      5.576250   579A      5.582553   580A      5.597188  
     581A      5.624098   582A      5.638989   583A      5.651325  
     584A      5.666449   585A      5.673181   586A      5.710487  
     587A      5.721093   588A      5.748238   589A      5.762646  
     590A      5.784058   591A      5.814990   592A      5.832106  
     593A      5.849513   594A      5.879313   595A      5.899844  
     596A      5.931363   597A      5.944832   598A      5.992919  
     599A      6.015300   600A      6.047968   601A      6.117257  
     602A      6.125800   603A      6.172176   604A      6.213010  
     605A      6.233196   606A      6.347699   607A      6.355825  
     608A      6.384501   609A      6.396503   610A      6.518605  
     611A      6.641625   612A      6.681267   613A      6.735856  
     614A      6.744702   615A      6.756841   616A      6.797182  
     617A      6.806466   618A      6.817737   619A      6.872111  
     620A      6.913384   621A      6.965585   622A      6.979228  
     623A      7.026301   624A      7.036333   625A      7.043697  
     626A      7.058192   627A      7.078484   628A      7.093457  
     629A      7.099337   630A      7.106702   631A      7.138164  
     632A      7.156904   633A      7.166672   634A      7.193334  
     635A      7.282029   636A      7.310474   637A      7.333899  
     638A      7.340122   639A      7.359671   640A      7.369292  
     641A      7.397283   642A      7.424628   643A      7.449156  
     644A      7.478269   645A      7.497949   646A      7.513543  
     647A      7.529601   648A      7.562515   649A      7.566483  
     650A      7.571483   651A      7.597071   652A      7.610098  
     653A      7.619746   654A      7.657207   655A      7.704365  
     656A      7.726131   657A      7.746289   658A      7.772124  
     659A      7.799644   660A      7.836935   661A      7.853191  
     662A      7.897133   663A      7.913145   664A      7.943691  
     665A      7.959395   666A      8.022457   667A      8.048518  
     668A      8.076523   669A      8.117868   670A      8.161272  
     671A      8.282093   672A      8.288994   673A      8.307410  
     674A      8.367119   675A      8.446470   676A      8.491209  
     677A      8.613693   678A      8.683681   679A      8.725558  
     680A      8.741232   681A     15.955789   682A     16.831927  
     683A     16.912189   684A     17.281151   685A     17.421079  
     686A     18.547147   687A     18.974702   688A     19.096325  
     689A     19.319696   690A     19.856108  

    Final Occupation by Irrep:
              A 
    DOCC [    40 ]

  @DF-RHF Final Energy:  -569.67515295423868

   => Energetics <=

    Nuclear Repulsion Energy =            633.6716012561336129
    One-Electron Energy =               -2041.5502162697628137
    Two-Electron Energy =                 838.2034620593906311
    Total Energy =                       -569.6751529542386834

Computation Completed

*** tstop() called on node35.bme.utexas.edu at Thu Nov  5 15:57:25 2020
Module time:
	user time   =     596.02 seconds =       9.93 minutes
	system time =     114.06 seconds =       1.90 minutes
	total time  =        162 seconds =       2.70 minutes
Total time:
	user time   =     596.02 seconds =       9.93 minutes
	system time =     114.06 seconds =       1.90 minutes
	total time  =        162 seconds =       2.70 minutes
   => Loading Basis Set <=

    Name: (AUG-CC-PVTZ AUX)
    Role: RIFIT
    Keyword: DF_BASIS_MP2
    atoms 1-5   entry O          line   264 file /home/xy3866/psi4conda/share/psi4/basis/aug-cc-pvtz-ri.gbs 
    atoms 6-10  entry C          line   148 file /home/xy3866/psi4conda/share/psi4/basis/aug-cc-pvtz-ri.gbs 
    atoms 11-20 entry H          line    30 file /home/xy3866/psi4conda/share/psi4/basis/aug-cc-pvtz-ri.gbs 


*** tstart() called on node35.bme.utexas.edu
*** at Thu Nov  5 15:57:25 2020


  //>>>>>>>>>>>>>>>>>>>>>>>>>>>>>>>>>>>//
  //               DFMP2               //
  //<<<<<<<<<<<<<<<<<<<<<<<<<<<<<<<<<<<//

	 --------------------------------------------------------
	                          DF-MP2                         
	      2nd-Order Density-Fitted Moller-Plesset Theory     
	              RMP2 Wavefunction,   8 Threads             
	                                                         
	        Rob Parrish, Justin Turney, Andy Simmonett,      
	           Ed Hohenstein, and C. David Sherrill          
	 --------------------------------------------------------

   => Auxiliary Basis Set <=

  Basis Set: (AUG-CC-PVTZ AUX)
    Blend: AUG-CC-PVTZ-RI
    Number of shells: 420
    Number of basis function: 1520
    Number of Cartesian functions: 1910
    Spherical Harmonics?: true
    Max angular momentum: 4

	 --------------------------------------------------------
	                 NBF =   690, NAUX =  1520
	 --------------------------------------------------------
	   CLASS    FOCC     OCC    AOCC    AVIR     VIR    FVIR
	   PAIRS       0      40      40     650     650       0
	 --------------------------------------------------------

  DFHelper Memory: AOs need 5.281 GiB; user supplied 22.352 GiB. Using in-core AOs.


         ------------------------------------------------------------
                                     CPHF                           
                                  Rob Parrish                       
         ------------------------------------------------------------

  ==> Geometry <==

    Molecular point group: c1
    Full point group: C1

    Geometry (in Angstrom), charge = 0, multiplicity = 1:

       Center              X                  Y                   Z               Mass       
    ------------   -----------------  -----------------  -----------------  -----------------
         O           -0.113577702974    -1.799745413665     0.454580163215    15.994914619570
         O            0.359621297026     1.394531586335    -1.024970836785    15.994914619570
         O           -1.953963702974     1.371873586335     0.468790163215    15.994914619570
         O            2.716007297026     0.451126586335    -0.205959836785    15.994914619570
         O           -1.681262002974    -0.804785613665    -0.995548236785    15.994914619570
         C            0.432783297026     1.014099586335     0.349454163215    12.000000000000
         C           -0.908139702974     0.474822586335     0.839777163215    12.000000000000
         C            1.535702297026    -0.028346413665     0.420110163215    12.000000000000
         C           -1.213950702974    -0.935894413665     0.339425163215    12.000000000000
         C            1.056162297026    -1.316152413665    -0.228943836785    12.000000000000
         H            0.705448297026     1.888000586335     0.960295163215     1.007825032230
         H           -0.880690702974     0.432817586335     1.935044163215     1.007825032230
         H            1.784968297026    -0.231083413665     1.467747163215     1.007825032230
         H           -1.998518202974    -1.396801313665     0.953836763215     1.007825032230
         H            0.844794297026    -1.146988413665    -1.290260836785     1.007825032230
         H            1.807106297026    -2.100840413665    -0.126805836785     1.007825032230
         H           -0.391859702974     2.012663586335    -1.083962836785     1.007825032230
         H           -2.340515702974     0.977244586335    -0.340366836785     1.007825032230
         H            2.400892297026     0.935843586335    -0.993095836785     1.007825032230
         H           -1.994449702974    -1.675712413665    -1.278787836785     1.007825032230

  Nuclear repulsion =  633.671601256133613
  Reference energy  = -569.675152954238683

  ==> Basis Set <==

  Basis Set: AUG-CC-PVTZ
    Blend: AUG-CC-PVTZ
    Number of shells: 230
    Number of basis function: 690
    Number of Cartesian functions: 800
    Spherical Harmonics?: true
    Max angular momentum: 3

  ==> CGRSolver (by Rob Parrish) <==

   Number of roots    =         1
   Preconditioning    =    JACOBI
   Convergence cutoff =     1E-06
   Maximum iterations =       100

  ==> CPHFRHamiltonian (by Rob Parrish) <== 

  ==> MemDFJK: Density-Fitted J/K Matrices <==

    J tasked:                   Yes
    K tasked:                   Yes
    wK tasked:                   No
    OpenMP threads:               8
    Memory [MiB]:             22888
    Algorithm:                 Disk
    Schwarz Cutoff:           1E-12
    Mask sparsity (%):       3.3879
    Fitting Condition:        1E-10

   => Auxiliary Basis Set <=

  Basis Set: (AUG-CC-PVTZ AUX)
    Blend: AUG-CC-PVTZ-JKFIT
    Number of shells: 440
    Number of basis function: 1500
    Number of Cartesian functions: 1860
    Spherical Harmonics?: true
    Max angular momentum: 4

  ==> CPHF Iterations <==

  => Iterations <=

             Iter  Converged  Remaining    Residual
  CGR           1          0          1   8.279E-02
  CGR           2          0          1   1.833E-02
  CGR           3          0          1   7.366E-03
  CGR           4          0          1   2.110E-03
  CGR           5          0          1   5.771E-04
  CGR           6          0          1   1.871E-04
  CGR           7          0          1   5.682E-05
  CGR           8          0          1   1.509E-05
  CGR           9          0          1   5.119E-06
  CGR          10          0          1   1.487E-06
  CGR          11          1          0   4.541E-07

    CGRSolver converged.

	-----------------------------------------------------------
	 ==================> DF-MP2 Energies <==================== 
	-----------------------------------------------------------
	 Reference Energy          =    -569.6751529542386834 [Eh]
	 Singles Energy            =      -0.0000000000000000 [Eh]
	 Same-Spin Energy          =      -0.5544704466799548 [Eh]
	 Opposite-Spin Energy      =      -1.7035865826341074 [Eh]
	 Correlation Energy        =      -2.2580570293140623 [Eh]
	 Total Energy              =    -571.9332099835527288 [Eh]
	-----------------------------------------------------------
	 ================> DF-SCS-MP2 Energies <================== 
	-----------------------------------------------------------
	 SCS Same-Spin Scale       =       0.3333333333333333 [-]
	 SCS Opposite-Spin Scale   =       1.2000000000000000 [-]
	 SCS Same-Spin Energy      =      -0.1848234822266516 [Eh]
	 SCS Opposite-Spin Energy  =      -2.0443038991609290 [Eh]
	 SCS Correlation Energy    =      -2.2291273813875807 [Eh]
	 SCS Total Energy          =    -571.9042803356262539 [Eh]
	-----------------------------------------------------------



Properties will be evaluated at  -0.000000,  -0.000000,   0.000000 [a0]

Properties computed using the MP2 density matrix

  Nuclear Dipole Moment: [e a0]
     X:    -0.0621      Y:    -0.2828      Z:     0.1846

  Electronic Dipole Moment: [e a0]
     X:    -0.7850      Y:    -0.1047      Z:    -0.3028

  Dipole Moment: [e a0]
     X:    -0.8472      Y:    -0.3875      Z:    -0.1182     Total:     0.9391

  Dipole Moment: [D]
     X:    -2.1533      Y:    -0.9850      Z:    -0.3004     Total:     2.3868


*** tstop() called on node35.bme.utexas.edu at Thu Nov  5 16:04:47 2020
Module time:
	user time   =    2224.94 seconds =      37.08 minutes
	system time =     264.55 seconds =       4.41 minutes
	total time  =        442 seconds =       7.37 minutes
Total time:
	user time   =    2822.05 seconds =      47.03 minutes
	system time =     378.69 seconds =       6.31 minutes
	total time  =        604 seconds =      10.07 minutes

    Psi4 stopped on: Thursday, 05 November 2020 04:04PM
    Psi4 wall time for execution: 0:10:04.53

*** Psi4 exiting successfully. Buy a developer a beer!
