
    -----------------------------------------------------------------------
          Psi4: An Open-Source Ab Initio Electronic Structure Package
                               Psi4 1.3.2 release

                         Git: Rev {HEAD} ecbda83 


    R. M. Parrish, L. A. Burns, D. G. A. Smith, A. C. Simmonett,
    A. E. DePrince III, E. G. Hohenstein, U. Bozkaya, A. Yu. Sokolov,
    R. Di Remigio, R. M. Richard, J. F. Gonthier, A. M. James,
    H. R. McAlexander, A. Kumar, M. Saitow, X. Wang, B. P. Pritchard,
    P. Verma, H. F. Schaefer III, K. Patkowski, R. A. King, E. F. Valeev,
    F. A. Evangelista, J. M. Turney, T. D. Crawford, and C. D. Sherrill,
    J. Chem. Theory Comput. 13(7) pp 3185--3197 (2017).
    (doi: 10.1021/acs.jctc.7b00174)


                         Additional Contributions by
    P. Kraus, H. Kruse, M. H. Lechner, M. C. Schieber, R. A. Shaw,
    A. Alenaizan, R. Galvelis, Z. L. Glick, S. Lehtola, and J. P. Misiewicz

    -----------------------------------------------------------------------


    Psi4 started on: Friday, 06 November 2020 05:02PM

    Process ID: 57069
    Host:       node35.bme.utexas.edu
    PSIDATADIR: /home/xy3866/psi4conda/share/psi4
    Memory:     500.0 MiB
    Threads:    8
    
  ==> Input File <==

--------------------------------------------------------------------------
#psi4
#
memory 32 gb

molecule  {
0 1
  O       -0.1147700    -1.8002930     0.4548730
  O        0.3584290     1.3939840    -1.0246780
  O       -1.9551560     1.3713260     0.4690830
  O        2.7148150     0.4505790    -0.2056670
  O       -1.6716310    -0.8002260    -0.9984850
  C        0.4315910     1.0135520     0.3497470
  C       -0.9093320     0.4742750     0.8400700
  C        1.5345100    -0.0288940     0.4204030
  C       -1.2151430    -0.9364420     0.3397180
  C        1.0549700    -1.3167000    -0.2286510
  H        0.7042560     1.8874530     0.9605880
  H       -0.8818830     0.4322700     1.9353370
  H        1.7837760    -0.2316310     1.4680400
  H       -1.9939520    -1.3968640     0.9617720
  H        0.8628997    -1.1629805    -1.1930708
  H        1.8059140    -2.1013880    -0.1265130
  H       -0.3930520     2.0121160    -1.0836700
  H       -2.3417080     0.9766970    -0.3400740
  H        2.3997000     0.9352960    -0.9928030
  H       -1.9956420    -1.6762600    -1.2784950
units angstrom
no_reorient  #important for SAPT in psi4, default
symmetry c1  #important for SAPT in psi4, default
}

set PROPERTIES_ORIGIN ["COM"]
properties('MP2/aug-cc-pvtz', properties = ['dipole'])
--------------------------------------------------------------------------

  Memory set to  29.802 GiB by Python driver.
    SCF Algorithm Type (re)set to DF.

*** tstart() called on node35.bme.utexas.edu
*** at Fri Nov  6 17:02:14 2020

   => Loading Basis Set <=

    Name: AUG-CC-PVTZ
    Role: ORBITAL
    Keyword: BASIS
    atoms 1-5   entry O          line   327 file /home/xy3866/psi4conda/share/psi4/basis/aug-cc-pvtz.gbs 
    atoms 6-10  entry C          line   235 file /home/xy3866/psi4conda/share/psi4/basis/aug-cc-pvtz.gbs 
    atoms 11-20 entry H          line    36 file /home/xy3866/psi4conda/share/psi4/basis/aug-cc-pvtz.gbs 


         ---------------------------------------------------------
                                   SCF
               by Justin Turney, Rob Parrish, Andy Simmonett
                          and Daniel G. A. Smith
                              RHF Reference
                        8 Threads,  30517 MiB Core
         ---------------------------------------------------------

  ==> Geometry <==

    Molecular point group: c1
    Full point group: C1

    Geometry (in Angstrom), charge = 0, multiplicity = 1:

       Center              X                  Y                   Z               Mass       
    ------------   -----------------  -----------------  -----------------  -----------------
         O           -0.114899704256    -1.800189341124     0.454222286247    15.994914619570
         O            0.358299295744     1.394087658876    -1.025328713753    15.994914619570
         O           -1.955285704256     1.371429658876     0.468432286247    15.994914619570
         O            2.714685295744     0.450682658876    -0.206317713753    15.994914619570
         O           -1.671760704256    -0.800122341124    -0.999135713753    15.994914619570
         C            0.431461295744     1.013655658876     0.349096286247    12.000000000000
         C           -0.909461704256     0.474378658876     0.839419286247    12.000000000000
         C            1.534380295744    -0.028790341124     0.419752286247    12.000000000000
         C           -1.215272704256    -0.936338341124     0.339067286247    12.000000000000
         C            1.054840295744    -1.316596341124    -0.229301713753    12.000000000000
         H            0.704126295744     1.887556658876     0.959937286247     1.007825032230
         H           -0.882012704256     0.432373658876     1.934686286247     1.007825032230
         H            1.783646295744    -0.231527341124     1.467389286247     1.007825032230
         H           -1.994081704256    -1.396760341124     0.961121286247     1.007825032230
         H            0.862769995744    -1.162876841124    -1.193721513753     1.007825032230
         H            1.805784295744    -2.101284341124    -0.127163713753     1.007825032230
         H           -0.393181704256     2.012219658876    -1.084320713753     1.007825032230
         H           -2.341837704256     0.976800658876    -0.340724713753     1.007825032230
         H            2.399570295744     0.935399658876    -0.993453713753     1.007825032230
         H           -1.995771704256    -1.676156341124    -1.279145713753     1.007825032230

  Running in c1 symmetry.

  Rotational constants: A =      0.06487  B =      0.04286  C =      0.03246 [cm^-1]
  Rotational constants: A =   1944.77013  B =   1285.03138  C =    973.08772 [MHz]
  Nuclear repulsion =  634.333617256392358

  Charge       = 0
  Multiplicity = 1
  Electrons    = 80
  Nalpha       = 40
  Nbeta        = 40

  ==> Algorithm <==

  SCF Algorithm Type is DF.
  DIIS enabled.
  MOM disabled.
  Fractional occupation disabled.
  Guess Type is SAD.
  Energy threshold   = 1.00e-10
  Density threshold  = 1.00e-10
  Integral threshold = 0.00e+00

  ==> Primary Basis <==

  Basis Set: AUG-CC-PVTZ
    Blend: AUG-CC-PVTZ
    Number of shells: 230
    Number of basis function: 690
    Number of Cartesian functions: 800
    Spherical Harmonics?: true
    Max angular momentum: 3

   => Loading Basis Set <=

    Name: (AUG-CC-PVTZ AUX)
    Role: JKFIT
    Keyword: DF_BASIS_SCF
    atoms 1-5   entry O          line   286 file /home/xy3866/psi4conda/share/psi4/basis/aug-cc-pvtz-jkfit.gbs 
    atoms 6-10  entry C          line   162 file /home/xy3866/psi4conda/share/psi4/basis/aug-cc-pvtz-jkfit.gbs 
    atoms 11-20 entry H          line    70 file /home/xy3866/psi4conda/share/psi4/basis/aug-cc-pvtz-jkfit.gbs 

  ==> Pre-Iterations <==

   -------------------------------------------------------
    Irrep   Nso     Nmo     Nalpha   Nbeta   Ndocc  Nsocc
   -------------------------------------------------------
     A        690     690       0       0       0       0
   -------------------------------------------------------
    Total     690     690      40      40      40       0
   -------------------------------------------------------

  ==> Integral Setup <==

  DFHelper Memory: AOs need 5.282 GiB; user supplied 22.352 GiB. Using in-core AOs.

  ==> MemDFJK: Density-Fitted J/K Matrices <==

    J tasked:                   Yes
    K tasked:                   Yes
    wK tasked:                   No
    OpenMP threads:               8
    Memory [MiB]:             22888
    Algorithm:                 Disk
    Schwarz Cutoff:           1E-12
    Mask sparsity (%):       3.3795
    Fitting Condition:        1E-10

   => Auxiliary Basis Set <=

  Basis Set: (AUG-CC-PVTZ AUX)
    Blend: AUG-CC-PVTZ-JKFIT
    Number of shells: 440
    Number of basis function: 1500
    Number of Cartesian functions: 1860
    Spherical Harmonics?: true
    Max angular momentum: 4

  Minimum eigenvalue in the overlap matrix is 2.4770020512E-06.
  Using Symmetric Orthogonalization.

  SCF Guess: Superposition of Atomic Densities via on-the-fly atomic UHF.

  ==> Iterations <==

                           Total Energy        Delta E     RMS |[F,P]|

   @DF-RHF iter SAD:  -569.16804729525393   -5.69168e+02   0.00000e+00 
   @DF-RHF iter   1:  -569.36900711462681   -2.00960e-01   1.13259e-03 DIIS
   @DF-RHF iter   2:  -569.60748518843070   -2.38478e-01   6.04691e-04 DIIS
   @DF-RHF iter   3:  -569.66505776844440   -5.75726e-02   1.09471e-04 DIIS
   @DF-RHF iter   4:  -569.66884651477733   -3.78875e-03   3.22324e-05 DIIS
   @DF-RHF iter   5:  -569.66912032006189   -2.73805e-04   9.60387e-06 DIIS
   @DF-RHF iter   6:  -569.66915191492603   -3.15949e-05   2.67305e-06 DIIS
   @DF-RHF iter   7:  -569.66915552841067   -3.61348e-06   9.53574e-07 DIIS
   @DF-RHF iter   8:  -569.66915586469952   -3.36289e-07   3.23974e-07 DIIS
   @DF-RHF iter   9:  -569.66915590816222   -4.34627e-08   7.85065e-08 DIIS
   @DF-RHF iter  10:  -569.66915591087252   -2.71029e-09   2.42992e-08 DIIS
   @DF-RHF iter  11:  -569.66915591110978   -2.37264e-10   7.81758e-09 DIIS
   @DF-RHF iter  12:  -569.66915591112820   -1.84173e-11   2.76533e-09 DIIS
   @DF-RHF iter  13:  -569.66915591113354   -5.34328e-12   8.43551e-10 DIIS
   @DF-RHF iter  14:  -569.66915591113150    2.04636e-12   2.64082e-10 DIIS
   @DF-RHF iter  15:  -569.66915591113138    1.13687e-13   9.09033e-11 DIIS
  Energy and wave function converged.


  ==> Post-Iterations <==

    Orbital Energies [Eh]
    ---------------------

    Doubly Occupied:                                                      

       1A    -20.591686     2A    -20.579443     3A    -20.574545  
       4A    -20.571483     5A    -20.558359     6A    -11.353553  
       7A    -11.298229     8A    -11.290959     9A    -11.284822  
      10A    -11.266711    11A     -1.438549    12A     -1.391566  
      13A     -1.375704    14A     -1.353774    15A     -1.347879  
      16A     -1.059405    17A     -1.026667    18A     -0.903445  
      19A     -0.870788    20A     -0.801574    21A     -0.755824  
      22A     -0.728142    23A     -0.713845    24A     -0.696216  
      25A     -0.669770    26A     -0.650993    27A     -0.620985  
      28A     -0.615285    29A     -0.602835    30A     -0.584453  
      31A     -0.575770    32A     -0.556469    33A     -0.542782  
      34A     -0.516111    35A     -0.502915    36A     -0.493646  
      37A     -0.487743    38A     -0.474937    39A     -0.440536  
      40A     -0.415984  

    Virtual:                                                              

      41A      0.024368    42A      0.033691    43A      0.035982  
      44A      0.039790    45A      0.050819    46A      0.053130  
      47A      0.054855    48A      0.059243    49A      0.064988  
      50A      0.077258    51A      0.099276    52A      0.104618  
      53A      0.110754    54A      0.113461    55A      0.117157  
      56A      0.117851    57A      0.119794    58A      0.123874  
      59A      0.127404    60A      0.133501    61A      0.144467  
      62A      0.146549    63A      0.149910    64A      0.153273  
      65A      0.160232    66A      0.169707    67A      0.175840  
      68A      0.183312    69A      0.186942    70A      0.195507  
      71A      0.205291    72A      0.209256    73A      0.213963  
      74A      0.219537    75A      0.237380    76A      0.240752  
      77A      0.247743    78A      0.253199    79A      0.261692  
      80A      0.265054    81A      0.267531    82A      0.271147  
      83A      0.273311    84A      0.276271    85A      0.280717  
      86A      0.285144    87A      0.293747    88A      0.296977  
      89A      0.305696    90A      0.310665    91A      0.315904  
      92A      0.318647    93A      0.319784    94A      0.323051  
      95A      0.329022    96A      0.340193    97A      0.346798  
      98A      0.358040    99A      0.363098   100A      0.364477  
     101A      0.370207   102A      0.378150   103A      0.386392  
     104A      0.392257   105A      0.397306   106A      0.399454  
     107A      0.403356   108A      0.406790   109A      0.416338  
     110A      0.421618   111A      0.429173   112A      0.432232  
     113A      0.438614   114A      0.442215   115A      0.447700  
     116A      0.452745   117A      0.461519   118A      0.465955  
     119A      0.468632   120A      0.476468   121A      0.478148  
     122A      0.485051   123A      0.488970   124A      0.491150  
     125A      0.498450   126A      0.500088   127A      0.505707  
     128A      0.510486   129A      0.513035   130A      0.521503  
     131A      0.523009   132A      0.529527   133A      0.535430  
     134A      0.541040   135A      0.546137   136A      0.547338  
     137A      0.553972   138A      0.560961   139A      0.565500  
     140A      0.566305   141A      0.568581   142A      0.571219  
     143A      0.574763   144A      0.576001   145A      0.591739  
     146A      0.593596   147A      0.609923   148A      0.614507  
     149A      0.622877   150A      0.627845   151A      0.630781  
     152A      0.637383   153A      0.645124   154A      0.653567  
     155A      0.662663   156A      0.670354   157A      0.675481  
     158A      0.692462   159A      0.696703   160A      0.697884  
     161A      0.706359   162A      0.709003   163A      0.721043  
     164A      0.734885   165A      0.744638   166A      0.749407  
     167A      0.756667   168A      0.766168   169A      0.782971  
     170A      0.788916   171A      0.797891   172A      0.799700  
     173A      0.815730   174A      0.818369   175A      0.824185  
     176A      0.836187   177A      0.850337   178A      0.855832  
     179A      0.866209   180A      0.871882   181A      0.879918  
     182A      0.882656   183A      0.889940   184A      0.897420  
     185A      0.902850   186A      0.912300   187A      0.918785  
     188A      0.923461   189A      0.932269   190A      0.938473  
     191A      0.949141   192A      0.954263   193A      0.960307  
     194A      0.968542   195A      0.974528   196A      0.983212  
     197A      0.988322   198A      0.994686   199A      1.006351  
     200A      1.018526   201A      1.027491   202A      1.033015  
     203A      1.036546   204A      1.042611   205A      1.046430  
     206A      1.057853   207A      1.060920   208A      1.062943  
     209A      1.073557   210A      1.077087   211A      1.080432  
     212A      1.087103   213A      1.091663   214A      1.102318  
     215A      1.108183   216A      1.116186   217A      1.120309  
     218A      1.132493   219A      1.136770   220A      1.143406  
     221A      1.148800   222A      1.156738   223A      1.166973  
     224A      1.169463   225A      1.171940   226A      1.188465  
     227A      1.189039   228A      1.194864   229A      1.198951  
     230A      1.200250   231A      1.212954   232A      1.216463  
     233A      1.229465   234A      1.233284   235A      1.238155  
     236A      1.240531   237A      1.252736   238A      1.259817  
     239A      1.266101   240A      1.276811   241A      1.287833  
     242A      1.289205   243A      1.295493   244A      1.309116  
     245A      1.314016   246A      1.323945   247A      1.326786  
     248A      1.343868   249A      1.348656   250A      1.359883  
     251A      1.371122   252A      1.382338   253A      1.384949  
     254A      1.396536   255A      1.401013   256A      1.412396  
     257A      1.419278   258A      1.427003   259A      1.435559  
     260A      1.435922   261A      1.439672   262A      1.447641  
     263A      1.456410   264A      1.475909   265A      1.480324  
     266A      1.488722   267A      1.493005   268A      1.502323  
     269A      1.506747   270A      1.526830   271A      1.532566  
     272A      1.546153   273A      1.551821   274A      1.560280  
     275A      1.569688   276A      1.575307   277A      1.587575  
     278A      1.590886   279A      1.594687   280A      1.605461  
     281A      1.621043   282A      1.622614   283A      1.627844  
     284A      1.642331   285A      1.653855   286A      1.666489  
     287A      1.672526   288A      1.680323   289A      1.684762  
     290A      1.698760   291A      1.705131   292A      1.719792  
     293A      1.722685   294A      1.728737   295A      1.737672  
     296A      1.741607   297A      1.748333   298A      1.766972  
     299A      1.776074   300A      1.779081   301A      1.783202  
     302A      1.792867   303A      1.811193   304A      1.820892  
     305A      1.826136   306A      1.836612   307A      1.845656  
     308A      1.850124   309A      1.859185   310A      1.868980  
     311A      1.877862   312A      1.888636   313A      1.900742  
     314A      1.903642   315A      1.909437   316A      1.921181  
     317A      1.930096   318A      1.938607   319A      1.944549  
     320A      1.960351   321A      1.968752   322A      1.978289  
     323A      1.983321   324A      1.990473   325A      1.999624  
     326A      2.005731   327A      2.009560   328A      2.019991  
     329A      2.029023   330A      2.048644   331A      2.058571  
     332A      2.062596   333A      2.071616   334A      2.077545  
     335A      2.090321   336A      2.102371   337A      2.111047  
     338A      2.116366   339A      2.138830   340A      2.143083  
     341A      2.147402   342A      2.151329   343A      2.167383  
     344A      2.187861   345A      2.204566   346A      2.210810  
     347A      2.229386   348A      2.233587   349A      2.260014  
     350A      2.263500   351A      2.277317   352A      2.284839  
     353A      2.303369   354A      2.320654   355A      2.332027  
     356A      2.335240   357A      2.343332   358A      2.353042  
     359A      2.378362   360A      2.388666   361A      2.417903  
     362A      2.433178   363A      2.442797   364A      2.456055  
     365A      2.487044   366A      2.498671   367A      2.504849  
     368A      2.529723   369A      2.551228   370A      2.566245  
     371A      2.582262   372A      2.586506   373A      2.600525  
     374A      2.625340   375A      2.632218   376A      2.663420  
     377A      2.670803   378A      2.682021   379A      2.701126  
     380A      2.710797   381A      2.714697   382A      2.721360  
     383A      2.735732   384A      2.744922   385A      2.753231  
     386A      2.770553   387A      2.786145   388A      2.798193  
     389A      2.809824   390A      2.828134   391A      2.833595  
     392A      2.847306   393A      2.855967   394A      2.868386  
     395A      2.890631   396A      2.897875   397A      2.908770  
     398A      2.913303   399A      2.926514   400A      2.941349  
     401A      2.951812   402A      2.973008   403A      2.977939  
     404A      3.008374   405A      3.015487   406A      3.041778  
     407A      3.044270   408A      3.045300   409A      3.053843  
     410A      3.069917   411A      3.076772   412A      3.081045  
     413A      3.118141   414A      3.122552   415A      3.142451  
     416A      3.149758   417A      3.157518   418A      3.158927  
     419A      3.171630   420A      3.183807   421A      3.199390  
     422A      3.223605   423A      3.237018   424A      3.255736  
     425A      3.264931   426A      3.281993   427A      3.285961  
     428A      3.297182   429A      3.304605   430A      3.327624  
     431A      3.336721   432A      3.349452   433A      3.369805  
     434A      3.387599   435A      3.402230   436A      3.439052  
     437A      3.460150   438A      3.491168   439A      3.512006  
     440A      3.529449   441A      3.543204   442A      3.561195  
     443A      3.593742   444A      3.627135   445A      3.642621  
     446A      3.668742   447A      3.681382   448A      3.697475  
     449A      3.725816   450A      3.744005   451A      3.755952  
     452A      3.768367   453A      3.781437   454A      3.800723  
     455A      3.807790   456A      3.825756   457A      3.849287  
     458A      3.867146   459A      3.868815   460A      3.903521  
     461A      3.912008   462A      3.931273   463A      3.941123  
     464A      3.951409   465A      3.978653   466A      3.982984  
     467A      4.009632   468A      4.016671   469A      4.024050  
     470A      4.030366   471A      4.044446   472A      4.060388  
     473A      4.089776   474A      4.097038   475A      4.111652  
     476A      4.122261   477A      4.128885   478A      4.132463  
     479A      4.143151   480A      4.169724   481A      4.173906  
     482A      4.195033   483A      4.204141   484A      4.210679  
     485A      4.224530   486A      4.226740   487A      4.233337  
     488A      4.250668   489A      4.275423   490A      4.277820  
     491A      4.300126   492A      4.318396   493A      4.324661  
     494A      4.334009   495A      4.336910   496A      4.356163  
     497A      4.361174   498A      4.378967   499A      4.387092  
     500A      4.404862   501A      4.409270   502A      4.418990  
     503A      4.446745   504A      4.470567   505A      4.473976  
     506A      4.486743   507A      4.490382   508A      4.504518  
     509A      4.517025   510A      4.538089   511A      4.551738  
     512A      4.557136   513A      4.588137   514A      4.600842  
     515A      4.608426   516A      4.623489   517A      4.632685  
     518A      4.639102   519A      4.655459   520A      4.675934  
     521A      4.720009   522A      4.730039   523A      4.748789  
     524A      4.761504   525A      4.765053   526A      4.781932  
     527A      4.783903   528A      4.811355   529A      4.830726  
     530A      4.837388   531A      4.853401   532A      4.861559  
     533A      4.873917   534A      4.901634   535A      4.922559  
     536A      4.928911   537A      4.954798   538A      4.979352  
     539A      4.987794   540A      4.999768   541A      5.019762  
     542A      5.029061   543A      5.041579   544A      5.056449  
     545A      5.078589   546A      5.094545   547A      5.100865  
     548A      5.115938   549A      5.122739   550A      5.148822  
     551A      5.153917   552A      5.166508   553A      5.185993  
     554A      5.201122   555A      5.230995   556A      5.240961  
     557A      5.260137   558A      5.273407   559A      5.291317  
     560A      5.296434   561A      5.308553   562A      5.338118  
     563A      5.340559   564A      5.383138   565A      5.392110  
     566A      5.399808   567A      5.416967   568A      5.428684  
     569A      5.438608   570A      5.453335   571A      5.476264  
     572A      5.487555   573A      5.499370   574A      5.536670  
     575A      5.553485   576A      5.571176   577A      5.577059  
     578A      5.585067   579A      5.594841   580A      5.612011  
     581A      5.637625   582A      5.651775   583A      5.659877  
     584A      5.677843   585A      5.716059   586A      5.720402  
     587A      5.732264   588A      5.759689   589A      5.776038  
     590A      5.812238   591A      5.835298   592A      5.846561  
     593A      5.866153   594A      5.883337   595A      5.933689  
     596A      5.963917   597A      5.991672   598A      6.014794  
     599A      6.044781   600A      6.066008   601A      6.120112  
     602A      6.147986   603A      6.182293   604A      6.295148  
     605A      6.349366   606A      6.363026   607A      6.390544  
     608A      6.395417   609A      6.505685   610A      6.542625  
     611A      6.640368   612A      6.682108   613A      6.737460  
     614A      6.751578   615A      6.761085   616A      6.797559  
     617A      6.805725   618A      6.821491   619A      6.872825  
     620A      6.923537   621A      6.969271   622A      6.982418  
     623A      7.029136   624A      7.037555   625A      7.042844  
     626A      7.058489   627A      7.080985   628A      7.093897  
     629A      7.101543   630A      7.109484   631A      7.141857  
     632A      7.161291   633A      7.167493   634A      7.194422  
     635A      7.286677   636A      7.312572   637A      7.331418  
     638A      7.340197   639A      7.355147   640A      7.368979  
     641A      7.396135   642A      7.426190   643A      7.451805  
     644A      7.477569   645A      7.494870   646A      7.513535  
     647A      7.526750   648A      7.563200   649A      7.568497  
     650A      7.571918   651A      7.596320   652A      7.608944  
     653A      7.621426   654A      7.657841   655A      7.711214  
     656A      7.729657   657A      7.748131   658A      7.778478  
     659A      7.801003   660A      7.836522   661A      7.857893  
     662A      7.902524   663A      7.915099   664A      7.946689  
     665A      7.961264   666A      8.028469   667A      8.051906  
     668A      8.076058   669A      8.117983   670A      8.162430  
     671A      8.282360   672A      8.289308   673A      8.308095  
     674A      8.367867   675A      8.463099   676A      8.501494  
     677A      8.613968   678A      8.686120   679A      8.710949  
     680A      8.738847   681A     16.004381   682A     16.817542  
     683A     16.937786   684A     17.272909   685A     17.430745  
     686A     18.639807   687A     19.090585   688A     19.222342  
     689A     19.513121   690A     20.079550  

    Final Occupation by Irrep:
              A 
    DOCC [    40 ]

  @DF-RHF Final Energy:  -569.66915591113138

   => Energetics <=

    Nuclear Repulsion Energy =            634.3336172563923583
    One-Electron Energy =               -2042.8367808032467110
    Two-Electron Energy =                 838.8340076357230828
    Total Energy =                       -569.6691559111313836

Computation Completed

*** tstop() called on node35.bme.utexas.edu at Fri Nov  6 17:04:31 2020
Module time:
	user time   =     558.94 seconds =       9.32 minutes
	system time =      87.09 seconds =       1.45 minutes
	total time  =        137 seconds =       2.28 minutes
Total time:
	user time   =     558.94 seconds =       9.32 minutes
	system time =      87.09 seconds =       1.45 minutes
	total time  =        137 seconds =       2.28 minutes
   => Loading Basis Set <=

    Name: (AUG-CC-PVTZ AUX)
    Role: RIFIT
    Keyword: DF_BASIS_MP2
    atoms 1-5   entry O          line   264 file /home/xy3866/psi4conda/share/psi4/basis/aug-cc-pvtz-ri.gbs 
    atoms 6-10  entry C          line   148 file /home/xy3866/psi4conda/share/psi4/basis/aug-cc-pvtz-ri.gbs 
    atoms 11-20 entry H          line    30 file /home/xy3866/psi4conda/share/psi4/basis/aug-cc-pvtz-ri.gbs 


*** tstart() called on node35.bme.utexas.edu
*** at Fri Nov  6 17:04:31 2020


  //>>>>>>>>>>>>>>>>>>>>>>>>>>>>>>>>>>>//
  //               DFMP2               //
  //<<<<<<<<<<<<<<<<<<<<<<<<<<<<<<<<<<<//

	 --------------------------------------------------------
	                          DF-MP2                         
	      2nd-Order Density-Fitted Moller-Plesset Theory     
	              RMP2 Wavefunction,   8 Threads             
	                                                         
	        Rob Parrish, Justin Turney, Andy Simmonett,      
	           Ed Hohenstein, and C. David Sherrill          
	 --------------------------------------------------------

   => Auxiliary Basis Set <=

  Basis Set: (AUG-CC-PVTZ AUX)
    Blend: AUG-CC-PVTZ-RI
    Number of shells: 420
    Number of basis function: 1520
    Number of Cartesian functions: 1910
    Spherical Harmonics?: true
    Max angular momentum: 4

	 --------------------------------------------------------
	                 NBF =   690, NAUX =  1520
	 --------------------------------------------------------
	   CLASS    FOCC     OCC    AOCC    AVIR     VIR    FVIR
	   PAIRS       0      40      40     650     650       0
	 --------------------------------------------------------

  DFHelper Memory: AOs need 5.282 GiB; user supplied 22.352 GiB. Using in-core AOs.


         ------------------------------------------------------------
                                     CPHF                           
                                  Rob Parrish                       
         ------------------------------------------------------------

  ==> Geometry <==

    Molecular point group: c1
    Full point group: C1

    Geometry (in Angstrom), charge = 0, multiplicity = 1:

       Center              X                  Y                   Z               Mass       
    ------------   -----------------  -----------------  -----------------  -----------------
         O           -0.114899704256    -1.800189341124     0.454222286247    15.994914619570
         O            0.358299295744     1.394087658876    -1.025328713753    15.994914619570
         O           -1.955285704256     1.371429658876     0.468432286247    15.994914619570
         O            2.714685295744     0.450682658876    -0.206317713753    15.994914619570
         O           -1.671760704256    -0.800122341124    -0.999135713753    15.994914619570
         C            0.431461295744     1.013655658876     0.349096286247    12.000000000000
         C           -0.909461704256     0.474378658876     0.839419286247    12.000000000000
         C            1.534380295744    -0.028790341124     0.419752286247    12.000000000000
         C           -1.215272704256    -0.936338341124     0.339067286247    12.000000000000
         C            1.054840295744    -1.316596341124    -0.229301713753    12.000000000000
         H            0.704126295744     1.887556658876     0.959937286247     1.007825032230
         H           -0.882012704256     0.432373658876     1.934686286247     1.007825032230
         H            1.783646295744    -0.231527341124     1.467389286247     1.007825032230
         H           -1.994081704256    -1.396760341124     0.961121286247     1.007825032230
         H            0.862769995744    -1.162876841124    -1.193721513753     1.007825032230
         H            1.805784295744    -2.101284341124    -0.127163713753     1.007825032230
         H           -0.393181704256     2.012219658876    -1.084320713753     1.007825032230
         H           -2.341837704256     0.976800658876    -0.340724713753     1.007825032230
         H            2.399570295744     0.935399658876    -0.993453713753     1.007825032230
         H           -1.995771704256    -1.676156341124    -1.279145713753     1.007825032230

  Nuclear repulsion =  634.333617256392358
  Reference energy  = -569.669155911131384

  ==> Basis Set <==

  Basis Set: AUG-CC-PVTZ
    Blend: AUG-CC-PVTZ
    Number of shells: 230
    Number of basis function: 690
    Number of Cartesian functions: 800
    Spherical Harmonics?: true
    Max angular momentum: 3

  ==> CGRSolver (by Rob Parrish) <==

   Number of roots    =         1
   Preconditioning    =    JACOBI
   Convergence cutoff =     1E-06
   Maximum iterations =       100

  ==> CPHFRHamiltonian (by Rob Parrish) <== 

  ==> MemDFJK: Density-Fitted J/K Matrices <==

    J tasked:                   Yes
    K tasked:                   Yes
    wK tasked:                   No
    OpenMP threads:               8
    Memory [MiB]:             22888
    Algorithm:                 Disk
    Schwarz Cutoff:           1E-12
    Mask sparsity (%):       3.3795
    Fitting Condition:        1E-10

   => Auxiliary Basis Set <=

  Basis Set: (AUG-CC-PVTZ AUX)
    Blend: AUG-CC-PVTZ-JKFIT
    Number of shells: 440
    Number of basis function: 1500
    Number of Cartesian functions: 1860
    Spherical Harmonics?: true
    Max angular momentum: 4

  ==> CPHF Iterations <==

  => Iterations <=

             Iter  Converged  Remaining    Residual
  CGR           1          0          1   8.261E-02
  CGR           2          0          1   1.833E-02
  CGR           3          0          1   7.332E-03
  CGR           4          0          1   2.105E-03
  CGR           5          0          1   5.779E-04
  CGR           6          0          1   1.881E-04
  CGR           7          0          1   5.693E-05
  CGR           8          0          1   1.517E-05
  CGR           9          0          1   5.208E-06
  CGR          10          0          1   1.499E-06
  CGR          11          1          0   4.635E-07

    CGRSolver converged.

	-----------------------------------------------------------
	 ==================> DF-MP2 Energies <==================== 
	-----------------------------------------------------------
	 Reference Energy          =    -569.6691559111313836 [Eh]
	 Singles Energy            =      -0.0000000000000000 [Eh]
	 Same-Spin Energy          =      -0.5543783875778439 [Eh]
	 Opposite-Spin Energy      =      -1.7031736246658993 [Eh]
	 Correlation Energy        =      -2.2575520122437434 [Eh]
	 Total Energy              =    -571.9267079233751474 [Eh]
	-----------------------------------------------------------
	 ================> DF-SCS-MP2 Energies <================== 
	-----------------------------------------------------------
	 SCS Same-Spin Scale       =       0.3333333333333333 [-]
	 SCS Opposite-Spin Scale   =       1.2000000000000000 [-]
	 SCS Same-Spin Energy      =      -0.1847927958592813 [Eh]
	 SCS Opposite-Spin Energy  =      -2.0438083495990789 [Eh]
	 SCS Correlation Energy    =      -2.2286011454583603 [Eh]
	 SCS Total Energy          =    -571.8977570565897395 [Eh]
	-----------------------------------------------------------



Properties will be evaluated at   0.000000,   0.000000,  -0.000000 [a0]

Properties computed using the MP2 density matrix

  Nuclear Dipole Moment: [e a0]
     X:    -0.0510      Y:    -0.3010      Z:     0.2793

  Electronic Dipole Moment: [e a0]
     X:    -0.7990      Y:    -0.0918      Z:    -0.4098

  Dipole Moment: [e a0]
     X:    -0.8501      Y:    -0.3929      Z:    -0.1305     Total:     0.9455

  Dipole Moment: [D]
     X:    -2.1606      Y:    -0.9986      Z:    -0.3318     Total:     2.4032


*** tstop() called on node35.bme.utexas.edu at Fri Nov  6 17:10:23 2020
Module time:
	user time   =    1893.28 seconds =      31.55 minutes
	system time =     211.17 seconds =       3.52 minutes
	total time  =        352 seconds =       5.87 minutes
Total time:
	user time   =    2453.24 seconds =      40.89 minutes
	system time =     298.32 seconds =       4.97 minutes
	total time  =        489 seconds =       8.15 minutes

    Psi4 stopped on: Friday, 06 November 2020 05:10PM
    Psi4 wall time for execution: 0:08:10.04

*** Psi4 exiting successfully. Buy a developer a beer!
