
    -----------------------------------------------------------------------
          Psi4: An Open-Source Ab Initio Electronic Structure Package
                               Psi4 1.3.2 release

                         Git: Rev {HEAD} ecbda83 


    R. M. Parrish, L. A. Burns, D. G. A. Smith, A. C. Simmonett,
    A. E. DePrince III, E. G. Hohenstein, U. Bozkaya, A. Yu. Sokolov,
    R. Di Remigio, R. M. Richard, J. F. Gonthier, A. M. James,
    H. R. McAlexander, A. Kumar, M. Saitow, X. Wang, B. P. Pritchard,
    P. Verma, H. F. Schaefer III, K. Patkowski, R. A. King, E. F. Valeev,
    F. A. Evangelista, J. M. Turney, T. D. Crawford, and C. D. Sherrill,
    J. Chem. Theory Comput. 13(7) pp 3185--3197 (2017).
    (doi: 10.1021/acs.jctc.7b00174)


                         Additional Contributions by
    P. Kraus, H. Kruse, M. H. Lechner, M. C. Schieber, R. A. Shaw,
    A. Alenaizan, R. Galvelis, Z. L. Glick, S. Lehtola, and J. P. Misiewicz

    -----------------------------------------------------------------------


    Psi4 started on: Thursday, 05 November 2020 03:33AM

    Process ID: 5090
    Host:       node35.bme.utexas.edu
    PSIDATADIR: /home/xy3866/psi4conda/share/psi4
    Memory:     500.0 MiB
    Threads:    8
    
  ==> Input File <==

--------------------------------------------------------------------------
#psi4
#
memory 32 gb

molecule  {
0 1
  O       -0.1147700    -1.8002930     0.4548730
  O        0.3584290     1.3939840    -1.0246780
  O       -1.9467712     1.3787814     0.4636823
  O        2.7148150     0.4505790    -0.2056670
  O       -1.6716310    -0.8002260    -0.9984850
  C        0.4253734     1.0241206     0.3445479
  C       -0.9093320     0.4742750     0.8400700
  C        1.5345100    -0.0288940     0.4204030
  C       -1.2151430    -0.9364420     0.3397180
  C        1.0549700    -1.3167000    -0.2286510
  H        0.7042560     1.8874530     0.9605880
  H       -0.8818830     0.4322700     1.9353370
  H        1.7837760    -0.2316310     1.4680400
  H       -1.9939520    -1.3968640     0.9617720
  H        0.8436020    -1.1475360    -1.2899680
  H        1.8059140    -2.1013880    -0.1265130
  H       -0.3930520     2.0121160    -1.0836700
  H       -2.3417080     0.9766970    -0.3400740
  H        2.3997000     0.9352960    -0.9928030
  H       -1.9956420    -1.6762600    -1.2784950
units angstrom
no_reorient  #important for SAPT in psi4, default
symmetry c1  #important for SAPT in psi4, default
}

set PROPERTIES_ORIGIN ["COM"]
properties('MP2/aug-cc-pvtz', properties = ['dipole'])
--------------------------------------------------------------------------

  Memory set to  29.802 GiB by Python driver.
    SCF Algorithm Type (re)set to DF.

*** tstart() called on node35.bme.utexas.edu
*** at Thu Nov  5 03:33:32 2020

   => Loading Basis Set <=

    Name: AUG-CC-PVTZ
    Role: ORBITAL
    Keyword: BASIS
    atoms 1-5   entry O          line   327 file /home/xy3866/psi4conda/share/psi4/basis/aug-cc-pvtz.gbs 
    atoms 6-10  entry C          line   235 file /home/xy3866/psi4conda/share/psi4/basis/aug-cc-pvtz.gbs 
    atoms 11-20 entry H          line    36 file /home/xy3866/psi4conda/share/psi4/basis/aug-cc-pvtz.gbs 


         ---------------------------------------------------------
                                   SCF
               by Justin Turney, Rob Parrish, Andy Simmonett
                          and Daniel G. A. Smith
                              RHF Reference
                        8 Threads,  30517 MiB Core
         ---------------------------------------------------------

  ==> Geometry <==

    Molecular point group: c1
    Full point group: C1

    Geometry (in Angstrom), charge = 0, multiplicity = 1:

       Center              X                  Y                   Z               Mass       
    ------------   -----------------  -----------------  -----------------  -----------------
         O           -0.115166638620    -1.801932974027     0.455864563636    15.994914619570
         O            0.358032361380     1.392344025973    -1.023686436364    15.994914619570
         O           -1.947167838620     1.377141425973     0.464673863636    15.994914619570
         O            2.714418361380     0.448939025973    -0.204675436364    15.994914619570
         O           -1.672027638620    -0.801865974027    -0.997493436364    15.994914619570
         C            0.424976761380     1.022480625973     0.345539463636    12.000000000000
         C           -0.909728638620     0.472635025973     0.841061563636    12.000000000000
         C            1.534113361380    -0.030533974027     0.421394563636    12.000000000000
         C           -1.215539638620    -0.938081974027     0.340709563636    12.000000000000
         C            1.054573361380    -1.318339974027    -0.227659436364    12.000000000000
         H            0.703859361380     1.885813025973     0.961579563636     1.007825032230
         H           -0.882279638620     0.430630025973     1.936328563636     1.007825032230
         H            1.783379361380    -0.233270974027     1.469031563636     1.007825032230
         H           -1.994348638620    -1.398503974027     0.962763563636     1.007825032230
         H            0.843205361380    -1.149175974027    -1.288976436364     1.007825032230
         H            1.805517361380    -2.103027974027    -0.125521436364     1.007825032230
         H           -0.393448638620     2.010476025973    -1.082678436364     1.007825032230
         H           -2.342104638620     0.975057025973    -0.339082436364     1.007825032230
         H            2.399303361380     0.933656025973    -0.991811436364     1.007825032230
         H           -1.996038638620    -1.677899974027    -1.277503436364     1.007825032230

  Running in c1 symmetry.

  Rotational constants: A =      0.06470  B =      0.04292  C =      0.03246 [cm^-1]
  Rotational constants: A =   1939.70978  B =   1286.67222  C =    973.23818 [MHz]
  Nuclear repulsion =  633.827954927517339

  Charge       = 0
  Multiplicity = 1
  Electrons    = 80
  Nalpha       = 40
  Nbeta        = 40

  ==> Algorithm <==

  SCF Algorithm Type is DF.
  DIIS enabled.
  MOM disabled.
  Fractional occupation disabled.
  Guess Type is SAD.
  Energy threshold   = 1.00e-10
  Density threshold  = 1.00e-10
  Integral threshold = 0.00e+00

  ==> Primary Basis <==

  Basis Set: AUG-CC-PVTZ
    Blend: AUG-CC-PVTZ
    Number of shells: 230
    Number of basis function: 690
    Number of Cartesian functions: 800
    Spherical Harmonics?: true
    Max angular momentum: 3

   => Loading Basis Set <=

    Name: (AUG-CC-PVTZ AUX)
    Role: JKFIT
    Keyword: DF_BASIS_SCF
    atoms 1-5   entry O          line   286 file /home/xy3866/psi4conda/share/psi4/basis/aug-cc-pvtz-jkfit.gbs 
    atoms 6-10  entry C          line   162 file /home/xy3866/psi4conda/share/psi4/basis/aug-cc-pvtz-jkfit.gbs 
    atoms 11-20 entry H          line    70 file /home/xy3866/psi4conda/share/psi4/basis/aug-cc-pvtz-jkfit.gbs 

  ==> Pre-Iterations <==

   -------------------------------------------------------
    Irrep   Nso     Nmo     Nalpha   Nbeta   Ndocc  Nsocc
   -------------------------------------------------------
     A        690     690       0       0       0       0
   -------------------------------------------------------
    Total     690     690      40      40      40       0
   -------------------------------------------------------

  ==> Integral Setup <==

  DFHelper Memory: AOs need 5.282 GiB; user supplied 22.352 GiB. Using in-core AOs.

  ==> MemDFJK: Density-Fitted J/K Matrices <==

    J tasked:                   Yes
    K tasked:                   Yes
    wK tasked:                   No
    OpenMP threads:               8
    Memory [MiB]:             22888
    Algorithm:                 Disk
    Schwarz Cutoff:           1E-12
    Mask sparsity (%):       3.3808
    Fitting Condition:        1E-10

   => Auxiliary Basis Set <=

  Basis Set: (AUG-CC-PVTZ AUX)
    Blend: AUG-CC-PVTZ-JKFIT
    Number of shells: 440
    Number of basis function: 1500
    Number of Cartesian functions: 1860
    Spherical Harmonics?: true
    Max angular momentum: 4

  Minimum eigenvalue in the overlap matrix is 2.5159011792E-06.
  Using Symmetric Orthogonalization.

  SCF Guess: Superposition of Atomic Densities via on-the-fly atomic UHF.

  ==> Iterations <==

                           Total Energy        Delta E     RMS |[F,P]|

   @DF-RHF iter SAD:  -569.12447942063034   -5.69124e+02   0.00000e+00 
   @DF-RHF iter   1:  -569.37529164491013   -2.50812e-01   1.13029e-03 DIIS
   @DF-RHF iter   2:  -569.61276974304724   -2.37478e-01   6.05228e-04 DIIS
   @DF-RHF iter   3:  -569.67035158095291   -5.75818e-02   1.08450e-04 DIIS
   @DF-RHF iter   4:  -569.67411418735878   -3.76261e-03   3.15735e-05 DIIS
   @DF-RHF iter   5:  -569.67437985854917   -2.65671e-04   9.56275e-06 DIIS
   @DF-RHF iter   6:  -569.67441120372416   -3.13452e-05   2.66698e-06 DIIS
   @DF-RHF iter   7:  -569.67441481630203   -3.61258e-06   9.44866e-07 DIIS
   @DF-RHF iter   8:  -569.67441514976963   -3.33468e-07   3.25091e-07 DIIS
   @DF-RHF iter   9:  -569.67441519296472   -4.31951e-08   7.85318e-08 DIIS
   @DF-RHF iter  10:  -569.67441519568172   -2.71700e-09   2.35312e-08 DIIS
   @DF-RHF iter  11:  -569.67441519590398   -2.22258e-10   7.63514e-09 DIIS
   @DF-RHF iter  12:  -569.67441519592751   -2.35332e-11   2.69461e-09 DIIS
   @DF-RHF iter  13:  -569.67441519592808   -5.68434e-13   8.02252e-10 DIIS
   @DF-RHF iter  14:  -569.67441519592887   -7.95808e-13   2.49920e-10 DIIS
   @DF-RHF iter  15:  -569.67441519592933   -4.54747e-13   8.67953e-11 DIIS
  Energy and wave function converged.


  ==> Post-Iterations <==

    Orbital Energies [Eh]
    ---------------------

    Doubly Occupied:                                                      

       1A    -20.591769     2A    -20.580722     3A    -20.574399  
       4A    -20.571984     5A    -20.557756     6A    -11.354138  
       7A    -11.297953     8A    -11.290309     9A    -11.285417  
      10A    -11.277909    11A     -1.438776    12A     -1.393229  
      13A     -1.375354    14A     -1.353923    15A     -1.348498  
      16A     -1.056910    17A     -1.022564    18A     -0.898533  
      19A     -0.869012    20A     -0.798300    21A     -0.752229  
      22A     -0.728178    23A     -0.712298    24A     -0.695505  
      25A     -0.670178    26A     -0.646398    27A     -0.621180  
      28A     -0.614476    29A     -0.602819    30A     -0.584381  
      31A     -0.571433    32A     -0.555988    33A     -0.544260  
      34A     -0.515789    35A     -0.502752    36A     -0.491429  
      37A     -0.487190    38A     -0.470494    39A     -0.438993  
      40A     -0.415803  

    Virtual:                                                              

      41A      0.024354    42A      0.033645    43A      0.035970  
      44A      0.039856    45A      0.050777    46A      0.053155  
      47A      0.054810    48A      0.059132    49A      0.064977  
      50A      0.077290    51A      0.099276    52A      0.104585  
      53A      0.110772    54A      0.113423    55A      0.116999  
      56A      0.117831    57A      0.119596    58A      0.123758  
      59A      0.127290    60A      0.133383    61A      0.144314  
      62A      0.146370    63A      0.149932    64A      0.153218  
      65A      0.160159    66A      0.169911    67A      0.175391  
      68A      0.183321    69A      0.186868    70A      0.195187  
      71A      0.205171    72A      0.209251    73A      0.213550  
      74A      0.219620    75A      0.237199    76A      0.240804  
      77A      0.247491    78A      0.253086    79A      0.261652  
      80A      0.265303    81A      0.267788    82A      0.270847  
      83A      0.273238    84A      0.276335    85A      0.280380  
      86A      0.284921    87A      0.292957    88A      0.296852  
      89A      0.304359    90A      0.310235    91A      0.315627  
      92A      0.316988    93A      0.318992    94A      0.322274  
      95A      0.328870    96A      0.340127    97A      0.346768  
      98A      0.357595    99A      0.362646   100A      0.363692  
     101A      0.369766   102A      0.377324   103A      0.386917  
     104A      0.392358   105A      0.396761   106A      0.398850  
     107A      0.404020   108A      0.406318   109A      0.415640  
     110A      0.421155   111A      0.428935   112A      0.432409  
     113A      0.438804   114A      0.440667   115A      0.445130  
     116A      0.452876   117A      0.461510   118A      0.465739  
     119A      0.468431   120A      0.476776   121A      0.478125  
     122A      0.483558   123A      0.488653   124A      0.490653  
     125A      0.498451   126A      0.498857   127A      0.505271  
     128A      0.509717   129A      0.511902   130A      0.520410  
     131A      0.522648   132A      0.528234   133A      0.535392  
     134A      0.540161   135A      0.545786   136A      0.546760  
     137A      0.553967   138A      0.559192   139A      0.564306  
     140A      0.565420   141A      0.568284   142A      0.571244  
     143A      0.573303   144A      0.576880   145A      0.590958  
     146A      0.593864   147A      0.610008   148A      0.613291  
     149A      0.622002   150A      0.625957   151A      0.629879  
     152A      0.636857   153A      0.644396   154A      0.651745  
     155A      0.660957   156A      0.668396   157A      0.674938  
     158A      0.691684   159A      0.693062   160A      0.697154  
     161A      0.706269   162A      0.709410   163A      0.718587  
     164A      0.732020   165A      0.740040   166A      0.747186  
     167A      0.753445   168A      0.766045   169A      0.782394  
     170A      0.788662   171A      0.797435   172A      0.798478  
     173A      0.813845   174A      0.818538   175A      0.823700  
     176A      0.835309   177A      0.850268   178A      0.856582  
     179A      0.865271   180A      0.871798   181A      0.879759  
     182A      0.881546   183A      0.889410   184A      0.898825  
     185A      0.901731   186A      0.912557   187A      0.918773  
     188A      0.923532   189A      0.932930   190A      0.938450  
     191A      0.947094   192A      0.951902   193A      0.960014  
     194A      0.968782   195A      0.974683   196A      0.983102  
     197A      0.987863   198A      0.994156   199A      1.001518  
     200A      1.017084   201A      1.026169   202A      1.033076  
     203A      1.035857   204A      1.041280   205A      1.045964  
     206A      1.057089   207A      1.059921   208A      1.062727  
     209A      1.069077   210A      1.074201   211A      1.080255  
     212A      1.086213   213A      1.091265   214A      1.100025  
     215A      1.108129   216A      1.114120   217A      1.118384  
     218A      1.130670   219A      1.135395   220A      1.141959  
     221A      1.148412   222A      1.156091   223A      1.165149  
     224A      1.167854   225A      1.170918   226A      1.187774  
     227A      1.188308   228A      1.193734   229A      1.197771  
     230A      1.199764   231A      1.214501   232A      1.215311  
     233A      1.226976   234A      1.232135   235A      1.235514  
     236A      1.241775   237A      1.251962   238A      1.257239  
     239A      1.262078   240A      1.274386   241A      1.285536  
     242A      1.289818   243A      1.293836   244A      1.308404  
     245A      1.313475   246A      1.320241   247A      1.323377  
     248A      1.343403   249A      1.347492   250A      1.359003  
     251A      1.371016   252A      1.377726   253A      1.384858  
     254A      1.397003   255A      1.400545   256A      1.410362  
     257A      1.416925   258A      1.423710   259A      1.435086  
     260A      1.436251   261A      1.438984   262A      1.447610  
     263A      1.452311   264A      1.476588   265A      1.478889  
     266A      1.486965   267A      1.493487   268A      1.501370  
     269A      1.507002   270A      1.526413   271A      1.530730  
     272A      1.542126   273A      1.553457   274A      1.558959  
     275A      1.569762   276A      1.575915   277A      1.587168  
     278A      1.592163   279A      1.595572   280A      1.605848  
     281A      1.618507   282A      1.622287   283A      1.626222  
     284A      1.641228   285A      1.651661   286A      1.662848  
     287A      1.670505   288A      1.678734   289A      1.683974  
     290A      1.696675   291A      1.703174   292A      1.719129  
     293A      1.720315   294A      1.728564   295A      1.732660  
     296A      1.741539   297A      1.747244   298A      1.761685  
     299A      1.774993   300A      1.778083   301A      1.780723  
     302A      1.793287   303A      1.812200   304A      1.817140  
     305A      1.825363   306A      1.830143   307A      1.844164  
     308A      1.851275   309A      1.858483   310A      1.867768  
     311A      1.878168   312A      1.886154   313A      1.897523  
     314A      1.899688   315A      1.907586   316A      1.922915  
     317A      1.928563   318A      1.935811   319A      1.940088  
     320A      1.959676   321A      1.963815   322A      1.976835  
     323A      1.981121   324A      1.989012   325A      1.999039  
     326A      2.002496   327A      2.009281   328A      2.019609  
     329A      2.027828   330A      2.039826   331A      2.056651  
     332A      2.060082   333A      2.072540   334A      2.077540  
     335A      2.085511   336A      2.097786   337A      2.111668  
     338A      2.112982   339A      2.128324   340A      2.139532  
     341A      2.143517   342A      2.149704   343A      2.165314  
     344A      2.180459   345A      2.201035   346A      2.206232  
     347A      2.216628   348A      2.230501   349A      2.253548  
     350A      2.259733   351A      2.272222   352A      2.275824  
     353A      2.301258   354A      2.319284   355A      2.320216  
     356A      2.330333   357A      2.345009   358A      2.351212  
     359A      2.379142   360A      2.384281   361A      2.409044  
     362A      2.425265   363A      2.446809   364A      2.451723  
     365A      2.483116   366A      2.497744   367A      2.502294  
     368A      2.525937   369A      2.545899   370A      2.561197  
     371A      2.581295   372A      2.584447   373A      2.597958  
     374A      2.621224   375A      2.630125   376A      2.658355  
     377A      2.666589   378A      2.683387   379A      2.699143  
     380A      2.707332   381A      2.713245   382A      2.719034  
     383A      2.731563   384A      2.742044   385A      2.752049  
     386A      2.765465   387A      2.782604   388A      2.794231  
     389A      2.809142   390A      2.824724   391A      2.828782  
     392A      2.841740   393A      2.853968   394A      2.865870  
     395A      2.887991   396A      2.896357   397A      2.909502  
     398A      2.911629   399A      2.923146   400A      2.935461  
     401A      2.950233   402A      2.972934   403A      2.978934  
     404A      3.007149   405A      3.013742   406A      3.040853  
     407A      3.043702   408A      3.046021   409A      3.055046  
     410A      3.070841   411A      3.074527   412A      3.080428  
     413A      3.118176   414A      3.119501   415A      3.136953  
     416A      3.147353   417A      3.156531   418A      3.159514  
     419A      3.173613   420A      3.183137   421A      3.194900  
     422A      3.220123   423A      3.236276   424A      3.256308  
     425A      3.264304   426A      3.280061   427A      3.287360  
     428A      3.296343   429A      3.302258   430A      3.327494  
     431A      3.334140   432A      3.343781   433A      3.367512  
     434A      3.390577   435A      3.402577   436A      3.439911  
     437A      3.457267   438A      3.486228   439A      3.509933  
     440A      3.525412   441A      3.548942   442A      3.560669  
     443A      3.593292   444A      3.626457   445A      3.640557  
     446A      3.668126   447A      3.675752   448A      3.692929  
     449A      3.723067   450A      3.740292   451A      3.760463  
     452A      3.770050   453A      3.777617   454A      3.801679  
     455A      3.805277   456A      3.843859   457A      3.851023  
     458A      3.867583   459A      3.875489   460A      3.908686  
     461A      3.916417   462A      3.929131   463A      3.945151  
     464A      3.949018   465A      3.974673   466A      3.983621  
     467A      3.992621   468A      4.016814   469A      4.021317  
     470A      4.024436   471A      4.040368   472A      4.058638  
     473A      4.086501   474A      4.090805   475A      4.107966  
     476A      4.119186   477A      4.129518   478A      4.136817  
     479A      4.141686   480A      4.167200   481A      4.173277  
     482A      4.189596   483A      4.200493   484A      4.207828  
     485A      4.223405   486A      4.229904   487A      4.230916  
     488A      4.244067   489A      4.272325   490A      4.277848  
     491A      4.299737   492A      4.316875   493A      4.323781  
     494A      4.330846   495A      4.335729   496A      4.350880  
     497A      4.356261   498A      4.366709   499A      4.380810  
     500A      4.399107   501A      4.406431   502A      4.413880  
     503A      4.438054   504A      4.461687   505A      4.468118  
     506A      4.476129   507A      4.482921   508A      4.494424  
     509A      4.516069   510A      4.528137   511A      4.540473  
     512A      4.549133   513A      4.573839   514A      4.580057  
     515A      4.605231   516A      4.615310   517A      4.621991  
     518A      4.634830   519A      4.644104   520A      4.665017  
     521A      4.704195   522A      4.721141   523A      4.739650  
     524A      4.745831   525A      4.752078   526A      4.773440  
     527A      4.776575   528A      4.800163   529A      4.808614  
     530A      4.817404   531A      4.845746   532A      4.850929  
     533A      4.866427   534A      4.899356   535A      4.909049  
     536A      4.924459   537A      4.945651   538A      4.971395  
     539A      4.975337   540A      4.996323   541A      5.008700  
     542A      5.019219   543A      5.023619   544A      5.045497  
     545A      5.064771   546A      5.086753   547A      5.087866  
     548A      5.098006   549A      5.108959   550A      5.136073  
     551A      5.142123   552A      5.159720   553A      5.181757  
     554A      5.191580   555A      5.222226   556A      5.228060  
     557A      5.253370   558A      5.259322   559A      5.283282  
     560A      5.297287   561A      5.304754   562A      5.331200  
     563A      5.333028   564A      5.367621   565A      5.375883  
     566A      5.385027   567A      5.403413   568A      5.410888  
     569A      5.426086   570A      5.429638   571A      5.459748  
     572A      5.469365   573A      5.488845   574A      5.500958  
     575A      5.524811   576A      5.550257   577A      5.566313  
     578A      5.574103   579A      5.577087   580A      5.595932  
     581A      5.623978   582A      5.639199   583A      5.650618  
     584A      5.661513   585A      5.667750   586A      5.706284  
     587A      5.720256   588A      5.745503   589A      5.760848  
     590A      5.787063   591A      5.814647   592A      5.833242  
     593A      5.847443   594A      5.877570   595A      5.898594  
     596A      5.928185   597A      5.944806   598A      5.993416  
     599A      6.016593   600A      6.048644   601A      6.117077  
     602A      6.119701   603A      6.173361   604A      6.212227  
     605A      6.229737   606A      6.350693   607A      6.356399  
     608A      6.393171   609A      6.402749   610A      6.517949  
     611A      6.638475   612A      6.676059   613A      6.734225  
     614A      6.742329   615A      6.757338   616A      6.799076  
     617A      6.804361   618A      6.819105   619A      6.872441  
     620A      6.913402   621A      6.967976   622A      6.981194  
     623A      7.028510   624A      7.037254   625A      7.044802  
     626A      7.059725   627A      7.080675   628A      7.095229  
     629A      7.098598   630A      7.108220   631A      7.138572  
     632A      7.157426   633A      7.168698   634A      7.198437  
     635A      7.280990   636A      7.309509   637A      7.329254  
     638A      7.340424   639A      7.352199   640A      7.369785  
     641A      7.394772   642A      7.422279   643A      7.448484  
     644A      7.475502   645A      7.493431   646A      7.513007  
     647A      7.528423   648A      7.563273   649A      7.567550  
     650A      7.573612   651A      7.594686   652A      7.609199  
     653A      7.622116   654A      7.658799   655A      7.705903  
     656A      7.728609   657A      7.745563   658A      7.775846  
     659A      7.801717   660A      7.836762   661A      7.855013  
     662A      7.897336   663A      7.919603   664A      7.942818  
     665A      7.962054   666A      8.023642   667A      8.048942  
     668A      8.075030   669A      8.116394   670A      8.161807  
     671A      8.279321   672A      8.286570   673A      8.306974  
     674A      8.368927   675A      8.449394   676A      8.491810  
     677A      8.610015   678A      8.682169   679A      8.710983  
     680A      8.743992   681A     15.955743   682A     16.819304  
     683A     16.895908   684A     17.247528   685A     17.434544  
     686A     18.516756   687A     18.970155   688A     19.100932  
     689A     19.298563   690A     19.805607  

    Final Occupation by Irrep:
              A 
    DOCC [    40 ]

  @DF-RHF Final Energy:  -569.67441519592933

   => Energetics <=

    Nuclear Repulsion Energy =            633.8279549275173395
    One-Electron Energy =               -2041.8862840719853011
    Two-Electron Energy =                 838.3839139485386340
    Total Energy =                       -569.6744151959293276

Computation Completed

*** tstop() called on node35.bme.utexas.edu at Thu Nov  5 03:36:34 2020
Module time:
	user time   =     666.28 seconds =      11.10 minutes
	system time =     141.17 seconds =       2.35 minutes
	total time  =        182 seconds =       3.03 minutes
Total time:
	user time   =     666.28 seconds =      11.10 minutes
	system time =     141.17 seconds =       2.35 minutes
	total time  =        182 seconds =       3.03 minutes
   => Loading Basis Set <=

    Name: (AUG-CC-PVTZ AUX)
    Role: RIFIT
    Keyword: DF_BASIS_MP2
    atoms 1-5   entry O          line   264 file /home/xy3866/psi4conda/share/psi4/basis/aug-cc-pvtz-ri.gbs 
    atoms 6-10  entry C          line   148 file /home/xy3866/psi4conda/share/psi4/basis/aug-cc-pvtz-ri.gbs 
    atoms 11-20 entry H          line    30 file /home/xy3866/psi4conda/share/psi4/basis/aug-cc-pvtz-ri.gbs 


*** tstart() called on node35.bme.utexas.edu
*** at Thu Nov  5 03:36:34 2020


  //>>>>>>>>>>>>>>>>>>>>>>>>>>>>>>>>>>>//
  //               DFMP2               //
  //<<<<<<<<<<<<<<<<<<<<<<<<<<<<<<<<<<<//

	 --------------------------------------------------------
	                          DF-MP2                         
	      2nd-Order Density-Fitted Moller-Plesset Theory     
	              RMP2 Wavefunction,   8 Threads             
	                                                         
	        Rob Parrish, Justin Turney, Andy Simmonett,      
	           Ed Hohenstein, and C. David Sherrill          
	 --------------------------------------------------------

   => Auxiliary Basis Set <=

  Basis Set: (AUG-CC-PVTZ AUX)
    Blend: AUG-CC-PVTZ-RI
    Number of shells: 420
    Number of basis function: 1520
    Number of Cartesian functions: 1910
    Spherical Harmonics?: true
    Max angular momentum: 4

	 --------------------------------------------------------
	                 NBF =   690, NAUX =  1520
	 --------------------------------------------------------
	   CLASS    FOCC     OCC    AOCC    AVIR     VIR    FVIR
	   PAIRS       0      40      40     650     650       0
	 --------------------------------------------------------

  DFHelper Memory: AOs need 5.282 GiB; user supplied 22.352 GiB. Using in-core AOs.


         ------------------------------------------------------------
                                     CPHF                           
                                  Rob Parrish                       
         ------------------------------------------------------------

  ==> Geometry <==

    Molecular point group: c1
    Full point group: C1

    Geometry (in Angstrom), charge = 0, multiplicity = 1:

       Center              X                  Y                   Z               Mass       
    ------------   -----------------  -----------------  -----------------  -----------------
         O           -0.115166638620    -1.801932974027     0.455864563636    15.994914619570
         O            0.358032361380     1.392344025973    -1.023686436364    15.994914619570
         O           -1.947167838620     1.377141425973     0.464673863636    15.994914619570
         O            2.714418361380     0.448939025973    -0.204675436364    15.994914619570
         O           -1.672027638620    -0.801865974027    -0.997493436364    15.994914619570
         C            0.424976761380     1.022480625973     0.345539463636    12.000000000000
         C           -0.909728638620     0.472635025973     0.841061563636    12.000000000000
         C            1.534113361380    -0.030533974027     0.421394563636    12.000000000000
         C           -1.215539638620    -0.938081974027     0.340709563636    12.000000000000
         C            1.054573361380    -1.318339974027    -0.227659436364    12.000000000000
         H            0.703859361380     1.885813025973     0.961579563636     1.007825032230
         H           -0.882279638620     0.430630025973     1.936328563636     1.007825032230
         H            1.783379361380    -0.233270974027     1.469031563636     1.007825032230
         H           -1.994348638620    -1.398503974027     0.962763563636     1.007825032230
         H            0.843205361380    -1.149175974027    -1.288976436364     1.007825032230
         H            1.805517361380    -2.103027974027    -0.125521436364     1.007825032230
         H           -0.393448638620     2.010476025973    -1.082678436364     1.007825032230
         H           -2.342104638620     0.975057025973    -0.339082436364     1.007825032230
         H            2.399303361380     0.933656025973    -0.991811436364     1.007825032230
         H           -1.996038638620    -1.677899974027    -1.277503436364     1.007825032230

  Nuclear repulsion =  633.827954927517339
  Reference energy  = -569.674415195929328

  ==> Basis Set <==

  Basis Set: AUG-CC-PVTZ
    Blend: AUG-CC-PVTZ
    Number of shells: 230
    Number of basis function: 690
    Number of Cartesian functions: 800
    Spherical Harmonics?: true
    Max angular momentum: 3

  ==> CGRSolver (by Rob Parrish) <==

   Number of roots    =         1
   Preconditioning    =    JACOBI
   Convergence cutoff =     1E-06
   Maximum iterations =       100

  ==> CPHFRHamiltonian (by Rob Parrish) <== 

  ==> MemDFJK: Density-Fitted J/K Matrices <==

    J tasked:                   Yes
    K tasked:                   Yes
    wK tasked:                   No
    OpenMP threads:               8
    Memory [MiB]:             22888
    Algorithm:                 Disk
    Schwarz Cutoff:           1E-12
    Mask sparsity (%):       3.3808
    Fitting Condition:        1E-10

   => Auxiliary Basis Set <=

  Basis Set: (AUG-CC-PVTZ AUX)
    Blend: AUG-CC-PVTZ-JKFIT
    Number of shells: 440
    Number of basis function: 1500
    Number of Cartesian functions: 1860
    Spherical Harmonics?: true
    Max angular momentum: 4

  ==> CPHF Iterations <==

  => Iterations <=

             Iter  Converged  Remaining    Residual
  CGR           1          0          1   8.278E-02
  CGR           2          0          1   1.838E-02
  CGR           3          0          1   7.378E-03
  CGR           4          0          1   2.120E-03
  CGR           5          0          1   5.832E-04
  CGR           6          0          1   1.891E-04
  CGR           7          0          1   5.739E-05
  CGR           8          0          1   1.517E-05
  CGR           9          0          1   5.128E-06
  CGR          10          0          1   1.492E-06
  CGR          11          1          0   4.521E-07

    CGRSolver converged.

	-----------------------------------------------------------
	 ==================> DF-MP2 Energies <==================== 
	-----------------------------------------------------------
	 Reference Energy          =    -569.6744151959293276 [Eh]
	 Singles Energy            =      -0.0000000000000000 [Eh]
	 Same-Spin Energy          =      -0.5546247646939915 [Eh]
	 Opposite-Spin Energy      =      -1.7038880412337876 [Eh]
	 Correlation Energy        =      -2.2585128059277793 [Eh]
	 Total Energy              =    -571.9329280018571353 [Eh]
	-----------------------------------------------------------
	 ================> DF-SCS-MP2 Energies <================== 
	-----------------------------------------------------------
	 SCS Same-Spin Scale       =       0.3333333333333333 [-]
	 SCS Opposite-Spin Scale   =       1.2000000000000000 [-]
	 SCS Same-Spin Energy      =      -0.1848749215646638 [Eh]
	 SCS Opposite-Spin Energy  =      -2.0446656494805451 [Eh]
	 SCS Correlation Energy    =      -2.2295405710452090 [Eh]
	 SCS Total Energy          =    -571.9039557669744909 [Eh]
	-----------------------------------------------------------



Properties will be evaluated at   0.000000,   0.000000,  -0.000000 [a0]

Properties computed using the MP2 density matrix

  Nuclear Dipole Moment: [e a0]
     X:    -0.0716      Y:    -0.3029      Z:     0.2038

  Electronic Dipole Moment: [e a0]
     X:    -0.7975      Y:    -0.0879      Z:    -0.3251

  Dipole Moment: [e a0]
     X:    -0.8691      Y:    -0.3908      Z:    -0.1213     Total:     0.9606

  Dipole Moment: [D]
     X:    -2.2089      Y:    -0.9933      Z:    -0.3082     Total:     2.4415


*** tstop() called on node35.bme.utexas.edu at Thu Nov  5 03:43:28 2020
Module time:
	user time   =    2288.30 seconds =      38.14 minutes
	system time =     192.35 seconds =       3.21 minutes
	total time  =        414 seconds =       6.90 minutes
Total time:
	user time   =    2955.64 seconds =      49.26 minutes
	system time =     333.65 seconds =       5.56 minutes
	total time  =        596 seconds =       9.93 minutes

    Psi4 stopped on: Thursday, 05 November 2020 03:43AM
    Psi4 wall time for execution: 0:09:57.15

*** Psi4 exiting successfully. Buy a developer a beer!
