
    -----------------------------------------------------------------------
          Psi4: An Open-Source Ab Initio Electronic Structure Package
                               Psi4 1.3.2 release

                         Git: Rev {HEAD} ecbda83 


    R. M. Parrish, L. A. Burns, D. G. A. Smith, A. C. Simmonett,
    A. E. DePrince III, E. G. Hohenstein, U. Bozkaya, A. Yu. Sokolov,
    R. Di Remigio, R. M. Richard, J. F. Gonthier, A. M. James,
    H. R. McAlexander, A. Kumar, M. Saitow, X. Wang, B. P. Pritchard,
    P. Verma, H. F. Schaefer III, K. Patkowski, R. A. King, E. F. Valeev,
    F. A. Evangelista, J. M. Turney, T. D. Crawford, and C. D. Sherrill,
    J. Chem. Theory Comput. 13(7) pp 3185--3197 (2017).
    (doi: 10.1021/acs.jctc.7b00174)


                         Additional Contributions by
    P. Kraus, H. Kruse, M. H. Lechner, M. C. Schieber, R. A. Shaw,
    A. Alenaizan, R. Galvelis, Z. L. Glick, S. Lehtola, and J. P. Misiewicz

    -----------------------------------------------------------------------


    Psi4 started on: Friday, 26 February 2021 07:25PM

    Process ID: 66443
    Host:       node142.bme.utexas.edu
    PSIDATADIR: /home/xy3866/psi4conda/share/psi4
    Memory:     500.0 MiB
    Threads:    8
    
  ==> Input File <==

--------------------------------------------------------------------------
#psi4
#
memory 32 gb

molecule  {
0 1
  O        2.3713340    -0.0431960     0.0348750
  N        0.3955610    -1.1626000    -0.0589710
  C       -1.7488560    -0.0105870    -0.3076690
  C       -1.0573212     1.2837827     0.3905390
  C       -1.0433070    -1.2763970     0.1538630
  C        0.3725010     1.2935890    -0.1457680
  C        1.1404240    -0.0102390    -0.0198870
  H       -2.8074580    -0.0696450    -0.0318610
  H       -1.6959720     0.0599610    -1.4006240
  H       -1.1144190     1.1154600     1.4138390
  H       -1.6138590     2.1267960     0.0620980
  H       -1.2653590    -1.4521000     1.2170140
  H       -1.4050610    -2.1469230    -0.4038060
  H        0.9414700     2.0498950     0.4019050
  H        0.4084350     1.5789030    -1.2051520
  H        0.9624730    -1.9950670     0.0738380
units angstrom
no_reorient  #important for SAPT in psi4, default
symmetry c1  #important for SAPT in psi4, default
}

set PROPERTIES_ORIGIN ["COM"]
properties('MP2/aug-cc-pvtz', properties = ['dipole'])
--------------------------------------------------------------------------

  Memory set to  29.802 GiB by Python driver.
    SCF Algorithm Type (re)set to DF.

*** tstart() called on node142.bme.utexas.edu
*** at Fri Feb 26 19:25:03 2021

   => Loading Basis Set <=

    Name: AUG-CC-PVTZ
    Role: ORBITAL
    Keyword: BASIS
    atoms 1    entry O          line   327 file /home/xy3866/psi4conda/share/psi4/basis/aug-cc-pvtz.gbs 
    atoms 2    entry N          line   281 file /home/xy3866/psi4conda/share/psi4/basis/aug-cc-pvtz.gbs 
    atoms 3-7  entry C          line   235 file /home/xy3866/psi4conda/share/psi4/basis/aug-cc-pvtz.gbs 
    atoms 8-16 entry H          line    36 file /home/xy3866/psi4conda/share/psi4/basis/aug-cc-pvtz.gbs 


         ---------------------------------------------------------
                                   SCF
               by Justin Turney, Rob Parrish, Andy Simmonett
                          and Daniel G. A. Smith
                              RHF Reference
                        8 Threads,  30517 MiB Core
         ---------------------------------------------------------

  ==> Geometry <==

    Molecular point group: c1
    Full point group: C1

    Geometry (in Angstrom), charge = 0, multiplicity = 1:

       Center              X                  Y                   Z               Mass       
    ------------   -----------------  -----------------  -----------------  -----------------
         O            2.292797319387    -0.039845696412     0.027675630542    15.994914619570
         N            0.317024319387    -1.159249696412    -0.066170369458    14.003074004430
         C           -1.827392680613    -0.007236696412    -0.314868369458    12.000000000000
         C           -1.135857880613     1.287133003588     0.383339630542    12.000000000000
         C           -1.121843680613    -1.273046696412     0.146663630542    12.000000000000
         C            0.293964319387     1.296939303588    -0.152967369458    12.000000000000
         C            1.061887319387    -0.006888696412    -0.027086369458    12.000000000000
         H           -2.885994680613    -0.066294696412    -0.039060369458     1.007825032230
         H           -1.774508680613     0.063311303588    -1.407823369458     1.007825032230
         H           -1.192955680613     1.118810303588     1.406639630542     1.007825032230
         H           -1.692395680613     2.130146303588     0.054898630542     1.007825032230
         H           -1.343895680613    -1.448749696412     1.209814630542     1.007825032230
         H           -1.483597680613    -2.143572696412    -0.411005369458     1.007825032230
         H            0.862933319387     2.053245303588     0.394705630542     1.007825032230
         H            0.329898319387     1.582253303588    -1.212351369458     1.007825032230
         H            0.883936319387    -1.991716696412     0.066638630542     1.007825032230

  Running in c1 symmetry.

  Rotational constants: A =      0.14978  B =      0.08299  C =      0.05733 [cm^-1]
  Rotational constants: A =   4490.41886  B =   2487.85425  C =   1718.69271 [MHz]
  Nuclear repulsion =  312.315727121042642

  Charge       = 0
  Multiplicity = 1
  Electrons    = 54
  Nalpha       = 27
  Nbeta        = 27

  ==> Algorithm <==

  SCF Algorithm Type is DF.
  DIIS enabled.
  MOM disabled.
  Fractional occupation disabled.
  Guess Type is SAD.
  Energy threshold   = 1.00e-10
  Density threshold  = 1.00e-10
  Integral threshold = 0.00e+00

  ==> Primary Basis <==

  Basis Set: AUG-CC-PVTZ
    Blend: AUG-CC-PVTZ
    Number of shells: 179
    Number of basis function: 529
    Number of Cartesian functions: 610
    Spherical Harmonics?: true
    Max angular momentum: 3

   => Loading Basis Set <=

    Name: (AUG-CC-PVTZ AUX)
    Role: JKFIT
    Keyword: DF_BASIS_SCF
    atoms 1    entry O          line   286 file /home/xy3866/psi4conda/share/psi4/basis/aug-cc-pvtz-jkfit.gbs 
    atoms 2    entry N          line   224 file /home/xy3866/psi4conda/share/psi4/basis/aug-cc-pvtz-jkfit.gbs 
    atoms 3-7  entry C          line   162 file /home/xy3866/psi4conda/share/psi4/basis/aug-cc-pvtz-jkfit.gbs 
    atoms 8-16 entry H          line    70 file /home/xy3866/psi4conda/share/psi4/basis/aug-cc-pvtz-jkfit.gbs 

  ==> Pre-Iterations <==

   -------------------------------------------------------
    Irrep   Nso     Nmo     Nalpha   Nbeta   Ndocc  Nsocc
   -------------------------------------------------------
     A        529     529       0       0       0       0
   -------------------------------------------------------
    Total     529     529      27      27      27       0
   -------------------------------------------------------

  ==> Integral Setup <==

  DFHelper Memory: AOs need 2.420 GiB; user supplied 22.352 GiB. Using in-core AOs.

  ==> MemDFJK: Density-Fitted J/K Matrices <==

    J tasked:                   Yes
    K tasked:                   Yes
    wK tasked:                   No
    OpenMP threads:               8
    Memory [MiB]:             22888
    Algorithm:                 Disk
    Schwarz Cutoff:           1E-12
    Mask sparsity (%):       1.8160
    Fitting Condition:        1E-10

   => Auxiliary Basis Set <=

  Basis Set: (AUG-CC-PVTZ AUX)
    Blend: AUG-CC-PVTZ-JKFIT
    Number of shells: 336
    Number of basis function: 1142
    Number of Cartesian functions: 1412
    Spherical Harmonics?: true
    Max angular momentum: 4

  Minimum eigenvalue in the overlap matrix is 5.3384279248E-06.
  Using Symmetric Orthogonalization.

  SCF Guess: Superposition of Atomic Densities via on-the-fly atomic UHF.

  ==> Iterations <==

                           Total Energy        Delta E     RMS |[F,P]|

   @DF-RHF iter SAD:  -323.58432641039633   -3.23584e+02   0.00000e+00 
   @DF-RHF iter   1:  -323.76281034707853   -1.78484e-01   1.30357e-03 DIIS
   @DF-RHF iter   2:  -323.96419396203612   -2.01384e-01   7.16261e-04 DIIS
   @DF-RHF iter   3:  -324.01900694424671   -5.48130e-02   1.30753e-04 DIIS
   @DF-RHF iter   4:  -324.02241634779875   -3.40940e-03   6.20853e-05 DIIS
   @DF-RHF iter   5:  -324.02297795620530   -5.61608e-04   1.36332e-05 DIIS
   @DF-RHF iter   6:  -324.02303479067007   -5.68345e-05   4.91928e-06 DIIS
   @DF-RHF iter   7:  -324.02304321767093   -8.42700e-06   2.03465e-06 DIIS
   @DF-RHF iter   8:  -324.02304488399500   -1.66632e-06   8.93379e-07 DIIS
   @DF-RHF iter   9:  -324.02304522777769   -3.43783e-07   2.09574e-07 DIIS
   @DF-RHF iter  10:  -324.02304524643142   -1.86537e-08   6.66967e-08 DIIS
   @DF-RHF iter  11:  -324.02304524779197   -1.36055e-09   2.16404e-08 DIIS
   @DF-RHF iter  12:  -324.02304524792186   -1.29887e-10   5.54176e-09 DIIS
   @DF-RHF iter  13:  -324.02304524793283   -1.09708e-11   1.56675e-09 DIIS
   @DF-RHF iter  14:  -324.02304524793351   -6.82121e-13   6.23706e-10 DIIS
   @DF-RHF iter  15:  -324.02304524793243    1.08002e-12   1.33128e-10 DIIS
   @DF-RHF iter  16:  -324.02304524793294   -5.11591e-13   3.42852e-11 DIIS
  Energy and wave function converged.


  ==> Post-Iterations <==

    Orbital Energies [Eh]
    ---------------------

    Doubly Occupied:                                                      

       1A    -20.510597     2A    -15.581165     3A    -11.346821  
       4A    -11.277821     5A    -11.242588     6A    -11.238752  
       7A    -11.237489     8A     -1.365645     9A     -1.230228  
      10A     -1.079217    11A     -1.016506    12A     -0.894286  
      13A     -0.848477    14A     -0.756124    15A     -0.690007  
      16A     -0.651926    17A     -0.640394    18A     -0.614829  
      19A     -0.592011    20A     -0.587884    21A     -0.569305  
      22A     -0.511604    23A     -0.505764    24A     -0.495333  
      25A     -0.454825    26A     -0.412446    27A     -0.386151  

    Virtual:                                                              

      28A      0.023560    29A      0.031339    30A      0.034637  
      31A      0.038784    32A      0.052604    33A      0.054246  
      34A      0.056051    35A      0.063689    36A      0.067218  
      37A      0.098266    38A      0.102282    39A      0.109110  
      40A      0.110271    41A      0.113814    42A      0.117600  
      43A      0.121035    44A      0.123468    45A      0.125095  
      46A      0.135286    47A      0.135652    48A      0.147212  
      49A      0.150025    50A      0.154691    51A      0.157268  
      52A      0.170690    53A      0.176963    54A      0.179221  
      55A      0.192632    56A      0.201588    57A      0.206329  
      58A      0.214739    59A      0.227477    60A      0.242662  
      61A      0.254721    62A      0.259312    63A      0.266338  
      64A      0.270355    65A      0.277597    66A      0.280858  
      67A      0.287323    68A      0.289062    69A      0.297912  
      70A      0.301238    71A      0.310755    72A      0.312588  
      73A      0.317831    74A      0.329078    75A      0.338620  
      76A      0.345939    77A      0.351166    78A      0.353808  
      79A      0.356518    80A      0.359763    81A      0.363637  
      82A      0.375882    83A      0.379747    84A      0.386485  
      85A      0.391806    86A      0.395652    87A      0.401660  
      88A      0.409984    89A      0.416378    90A      0.420874  
      91A      0.423296    92A      0.430411    93A      0.437171  
      94A      0.439100    95A      0.447955    96A      0.449772  
      97A      0.458518    98A      0.464294    99A      0.471333  
     100A      0.475816   101A      0.484576   102A      0.487827  
     103A      0.496874   104A      0.503502   105A      0.505965  
     106A      0.512128   107A      0.514688   108A      0.525176  
     109A      0.530305   110A      0.545935   111A      0.548181  
     112A      0.552689   113A      0.557914   114A      0.561594  
     115A      0.566653   116A      0.574211   117A      0.576853  
     118A      0.587590   119A      0.592816   120A      0.597299  
     121A      0.611634   122A      0.624720   123A      0.628665  
     124A      0.636715   125A      0.654147   126A      0.663041  
     127A      0.669350   128A      0.673620   129A      0.679293  
     130A      0.689782   131A      0.701879   132A      0.715568  
     133A      0.728023   134A      0.740740   135A      0.757214  
     136A      0.765543   137A      0.780091   138A      0.789592  
     139A      0.800138   140A      0.803481   141A      0.807417  
     142A      0.827021   143A      0.834294   144A      0.838287  
     145A      0.849881   146A      0.853414   147A      0.859234  
     148A      0.865373   149A      0.872608   150A      0.877873  
     151A      0.892695   152A      0.896522   153A      0.902498  
     154A      0.912231   155A      0.918693   156A      0.928981  
     157A      0.939780   158A      0.941574   159A      0.954060  
     160A      0.962435   161A      0.968788   162A      0.978529  
     163A      0.982523   164A      0.988339   165A      0.992625  
     166A      0.998409   167A      1.020505   168A      1.026929  
     169A      1.036106   170A      1.036535   171A      1.050683  
     172A      1.062047   173A      1.066534   174A      1.073612  
     175A      1.083290   176A      1.092412   177A      1.093070  
     178A      1.096978   179A      1.105816   180A      1.113763  
     181A      1.119389   182A      1.124759   183A      1.138563  
     184A      1.147848   185A      1.153927   186A      1.155279  
     187A      1.172866   188A      1.175146   189A      1.182092  
     190A      1.195192   191A      1.215027   192A      1.218455  
     193A      1.229307   194A      1.233683   195A      1.246395  
     196A      1.249795   197A      1.254724   198A      1.267171  
     199A      1.275834   200A      1.278877   201A      1.285970  
     202A      1.306401   203A      1.314227   204A      1.326641  
     205A      1.329742   206A      1.343279   207A      1.346023  
     208A      1.359318   209A      1.370652   210A      1.375382  
     211A      1.398909   212A      1.402753   213A      1.409534  
     214A      1.422537   215A      1.439545   216A      1.446806  
     217A      1.462899   218A      1.476505   219A      1.483393  
     220A      1.488338   221A      1.496618   222A      1.505348  
     223A      1.511755   224A      1.523454   225A      1.529499  
     226A      1.535426   227A      1.554641   228A      1.561282  
     229A      1.572373   230A      1.584491   231A      1.591218  
     232A      1.607024   233A      1.616426   234A      1.624652  
     235A      1.647319   236A      1.653292   237A      1.664434  
     238A      1.670020   239A      1.678514   240A      1.702983  
     241A      1.707151   242A      1.713173   243A      1.726942  
     244A      1.733765   245A      1.740645   246A      1.748287  
     247A      1.761644   248A      1.764669   249A      1.771655  
     250A      1.781918   251A      1.785198   252A      1.801248  
     253A      1.816173   254A      1.830632   255A      1.837640  
     256A      1.847266   257A      1.868531   258A      1.874740  
     259A      1.891188   260A      1.902315   261A      1.918407  
     262A      1.925408   263A      1.948828   264A      1.955176  
     265A      1.963264   266A      1.977068   267A      1.978909  
     268A      1.987346   269A      1.994820   270A      2.015476  
     271A      2.023570   272A      2.030868   273A      2.039751  
     274A      2.050988   275A      2.066079   276A      2.074801  
     277A      2.078053   278A      2.089170   279A      2.130844  
     280A      2.133600   281A      2.149005   282A      2.159718  
     283A      2.178250   284A      2.196626   285A      2.204228  
     286A      2.207312   287A      2.229032   288A      2.270185  
     289A      2.279539   290A      2.293492   291A      2.295868  
     292A      2.303671   293A      2.314934   294A      2.337805  
     295A      2.362882   296A      2.386965   297A      2.393670  
     298A      2.405262   299A      2.423380   300A      2.447139  
     301A      2.460768   302A      2.468725   303A      2.483311  
     304A      2.514183   305A      2.526002   306A      2.531435  
     307A      2.553601   308A      2.563545   309A      2.576278  
     310A      2.585774   311A      2.594731   312A      2.603858  
     313A      2.634966   314A      2.656351   315A      2.674983  
     316A      2.685902   317A      2.712573   318A      2.726245  
     319A      2.773534   320A      2.783993   321A      2.808268  
     322A      2.825041   323A      2.850486   324A      2.876913  
     325A      2.896572   326A      2.915884   327A      2.971430  
     328A      3.031839   329A      3.039699   330A      3.051909  
     331A      3.082843   332A      3.119711   333A      3.174686  
     334A      3.211549   335A      3.286543   336A      3.290345  
     337A      3.355741   338A      3.380352   339A      3.401423  
     340A      3.407468   341A      3.435164   342A      3.483591  
     343A      3.505659   344A      3.532820   345A      3.544727  
     346A      3.560279   347A      3.577549   348A      3.587626  
     349A      3.608811   350A      3.622170   351A      3.643221  
     352A      3.653012   353A      3.674380   354A      3.692085  
     355A      3.701953   356A      3.712697   357A      3.726338  
     358A      3.734957   359A      3.765803   360A      3.771352  
     361A      3.784923   362A      3.805849   363A      3.810709  
     364A      3.824625   365A      3.850011   366A      3.855149  
     367A      3.869175   368A      3.889079   369A      3.893425  
     370A      3.898518   371A      3.926276   372A      3.942370  
     373A      3.948365   374A      3.957590   375A      3.978482  
     376A      3.989934   377A      3.996141   378A      4.020206  
     379A      4.024228   380A      4.033113   381A      4.062291  
     382A      4.065417   383A      4.082670   384A      4.087408  
     385A      4.094989   386A      4.114877   387A      4.133144  
     388A      4.149514   389A      4.160671   390A      4.193652  
     391A      4.203756   392A      4.224382   393A      4.237637  
     394A      4.251257   395A      4.267366   396A      4.273272  
     397A      4.286588   398A      4.295552   399A      4.319813  
     400A      4.341920   401A      4.347250   402A      4.366847  
     403A      4.382669   404A      4.410531   405A      4.432777  
     406A      4.435736   407A      4.462361   408A      4.482373  
     409A      4.509031   410A      4.518005   411A      4.552984  
     412A      4.561065   413A      4.575651   414A      4.593682  
     415A      4.616289   416A      4.629331   417A      4.637452  
     418A      4.656391   419A      4.679392   420A      4.702781  
     421A      4.704772   422A      4.734092   423A      4.758154  
     424A      4.779189   425A      4.797718   426A      4.822049  
     427A      4.830688   428A      4.847960   429A      4.875931  
     430A      4.894956   431A      4.906525   432A      4.921775  
     433A      4.947786   434A      4.961153   435A      4.981630  
     436A      4.989156   437A      5.007205   438A      5.017147  
     439A      5.053762   440A      5.058412   441A      5.088439  
     442A      5.097743   443A      5.116386   444A      5.128112  
     445A      5.147494   446A      5.166915   447A      5.205281  
     448A      5.218179   449A      5.254509   450A      5.268526  
     451A      5.277973   452A      5.294537   453A      5.305269  
     454A      5.322084   455A      5.347730   456A      5.371814  
     457A      5.385690   458A      5.411370   459A      5.436142  
     460A      5.454829   461A      5.476455   462A      5.488064  
     463A      5.508042   464A      5.530297   465A      5.541193  
     466A      5.556719   467A      5.590747   468A      5.604682  
     469A      5.624409   470A      5.637666   471A      5.655609  
     472A      5.708103   473A      5.710931   474A      5.731696  
     475A      5.734424   476A      5.771830   477A      5.783489  
     478A      5.804654   479A      5.841931   480A      5.874616  
     481A      5.906010   482A      5.926835   483A      5.959684  
     484A      5.971641   485A      6.029842   486A      6.066660  
     487A      6.082727   488A      6.114868   489A      6.159084  
     490A      6.164067   491A      6.200497   492A      6.224397  
     493A      6.261439   494A      6.311362   495A      6.350458  
     496A      6.400051   497A      6.443172   498A      6.469679  
     499A      6.558145   500A      6.589086   501A      6.671157  
     502A      6.703619   503A      6.737913   504A      6.782863  
     505A      6.808356   506A      6.825534   507A      6.837059  
     508A      6.872495   509A      6.911572   510A      6.961371  
     511A      7.021948   512A      7.057902   513A      7.234169  
     514A      7.257316   515A      7.437366   516A      7.468247  
     517A      7.594223   518A      7.669668   519A      7.766865  
     520A      7.848359   521A      7.958939   522A      8.031975  
     523A     15.847634   524A     17.022878   525A     17.345027  
     526A     17.874506   527A     18.726649   528A     19.233218  
     529A     20.548573  

    Final Occupation by Irrep:
              A 
    DOCC [    27 ]

  @DF-RHF Final Energy:  -324.02304524793294

   => Energetics <=

    Nuclear Repulsion Energy =            312.3157271210426416
    One-Electron Energy =               -1059.2011549655665021
    Two-Electron Energy =                 422.8623825965909191
    Total Energy =                       -324.0230452479329415

Computation Completed

*** tstop() called on node142.bme.utexas.edu at Fri Feb 26 19:25:42 2021
Module time:
	user time   =     180.02 seconds =       3.00 minutes
	system time =      22.01 seconds =       0.37 minutes
	total time  =         39 seconds =       0.65 minutes
Total time:
	user time   =     180.02 seconds =       3.00 minutes
	system time =      22.01 seconds =       0.37 minutes
	total time  =         39 seconds =       0.65 minutes
   => Loading Basis Set <=

    Name: (AUG-CC-PVTZ AUX)
    Role: RIFIT
    Keyword: DF_BASIS_MP2
    atoms 1    entry O          line   264 file /home/xy3866/psi4conda/share/psi4/basis/aug-cc-pvtz-ri.gbs 
    atoms 2    entry N          line   206 file /home/xy3866/psi4conda/share/psi4/basis/aug-cc-pvtz-ri.gbs 
    atoms 3-7  entry C          line   148 file /home/xy3866/psi4conda/share/psi4/basis/aug-cc-pvtz-ri.gbs 
    atoms 8-16 entry H          line    30 file /home/xy3866/psi4conda/share/psi4/basis/aug-cc-pvtz-ri.gbs 


*** tstart() called on node142.bme.utexas.edu
*** at Fri Feb 26 19:25:42 2021


  //>>>>>>>>>>>>>>>>>>>>>>>>>>>>>>>>>>>//
  //               DFMP2               //
  //<<<<<<<<<<<<<<<<<<<<<<<<<<<<<<<<<<<//

	 --------------------------------------------------------
	                          DF-MP2                         
	      2nd-Order Density-Fitted Moller-Plesset Theory     
	              RMP2 Wavefunction,   8 Threads             
	                                                         
	        Rob Parrish, Justin Turney, Andy Simmonett,      
	           Ed Hohenstein, and C. David Sherrill          
	 --------------------------------------------------------

   => Auxiliary Basis Set <=

  Basis Set: (AUG-CC-PVTZ AUX)
    Blend: AUG-CC-PVTZ-RI
    Number of shells: 322
    Number of basis function: 1156
    Number of Cartesian functions: 1447
    Spherical Harmonics?: true
    Max angular momentum: 4

	 --------------------------------------------------------
	                 NBF =   529, NAUX =  1156
	 --------------------------------------------------------
	   CLASS    FOCC     OCC    AOCC    AVIR     VIR    FVIR
	   PAIRS       0      27      27     502     502       0
	 --------------------------------------------------------

  DFHelper Memory: AOs need 2.420 GiB; user supplied 22.352 GiB. Using in-core AOs.


         ------------------------------------------------------------
                                     CPHF                           
                                  Rob Parrish                       
         ------------------------------------------------------------

  ==> Geometry <==

    Molecular point group: c1
    Full point group: C1

    Geometry (in Angstrom), charge = 0, multiplicity = 1:

       Center              X                  Y                   Z               Mass       
    ------------   -----------------  -----------------  -----------------  -----------------
         O            2.292797319387    -0.039845696412     0.027675630542    15.994914619570
         N            0.317024319387    -1.159249696412    -0.066170369458    14.003074004430
         C           -1.827392680613    -0.007236696412    -0.314868369458    12.000000000000
         C           -1.135857880613     1.287133003588     0.383339630542    12.000000000000
         C           -1.121843680613    -1.273046696412     0.146663630542    12.000000000000
         C            0.293964319387     1.296939303588    -0.152967369458    12.000000000000
         C            1.061887319387    -0.006888696412    -0.027086369458    12.000000000000
         H           -2.885994680613    -0.066294696412    -0.039060369458     1.007825032230
         H           -1.774508680613     0.063311303588    -1.407823369458     1.007825032230
         H           -1.192955680613     1.118810303588     1.406639630542     1.007825032230
         H           -1.692395680613     2.130146303588     0.054898630542     1.007825032230
         H           -1.343895680613    -1.448749696412     1.209814630542     1.007825032230
         H           -1.483597680613    -2.143572696412    -0.411005369458     1.007825032230
         H            0.862933319387     2.053245303588     0.394705630542     1.007825032230
         H            0.329898319387     1.582253303588    -1.212351369458     1.007825032230
         H            0.883936319387    -1.991716696412     0.066638630542     1.007825032230

  Nuclear repulsion =  312.315727121042642
  Reference energy  = -324.023045247932941

  ==> Basis Set <==

  Basis Set: AUG-CC-PVTZ
    Blend: AUG-CC-PVTZ
    Number of shells: 179
    Number of basis function: 529
    Number of Cartesian functions: 610
    Spherical Harmonics?: true
    Max angular momentum: 3

  ==> CGRSolver (by Rob Parrish) <==

   Number of roots    =         1
   Preconditioning    =    JACOBI
   Convergence cutoff =     1E-06
   Maximum iterations =       100

  ==> CPHFRHamiltonian (by Rob Parrish) <== 

  ==> MemDFJK: Density-Fitted J/K Matrices <==

    J tasked:                   Yes
    K tasked:                   Yes
    wK tasked:                   No
    OpenMP threads:               8
    Memory [MiB]:             22888
    Algorithm:                 Disk
    Schwarz Cutoff:           1E-12
    Mask sparsity (%):       1.8160
    Fitting Condition:        1E-10

   => Auxiliary Basis Set <=

  Basis Set: (AUG-CC-PVTZ AUX)
    Blend: AUG-CC-PVTZ-JKFIT
    Number of shells: 336
    Number of basis function: 1142
    Number of Cartesian functions: 1412
    Spherical Harmonics?: true
    Max angular momentum: 4

  ==> CPHF Iterations <==

  => Iterations <=

             Iter  Converged  Remaining    Residual
  CGR           1          0          1   1.198E-01
  CGR           2          0          1   3.365E-02
  CGR           3          0          1   1.364E-02
  CGR           4          0          1   3.523E-03
  CGR           5          0          1   1.103E-03
  CGR           6          0          1   3.734E-04
  CGR           7          0          1   1.244E-04
  CGR           8          0          1   4.911E-05
  CGR           9          0          1   2.043E-05
  CGR          10          0          1   7.265E-06
  CGR          11          0          1   1.941E-06
  CGR          12          1          0   6.478E-07

    CGRSolver converged.

	-----------------------------------------------------------
	 ==================> DF-MP2 Energies <==================== 
	-----------------------------------------------------------
	 Reference Energy          =    -324.0230452479329415 [Eh]
	 Singles Energy            =      -0.0000000000000000 [Eh]
	 Same-Spin Energy          =      -0.3335548891656318 [Eh]
	 Opposite-Spin Energy      =      -1.0914538140313774 [Eh]
	 Correlation Energy        =      -1.4250087031970091 [Eh]
	 Total Energy              =    -325.4480539511299639 [Eh]
	-----------------------------------------------------------
	 ================> DF-SCS-MP2 Energies <================== 
	-----------------------------------------------------------
	 SCS Same-Spin Scale       =       0.3333333333333333 [-]
	 SCS Opposite-Spin Scale   =       1.2000000000000000 [-]
	 SCS Same-Spin Energy      =      -0.1111849630552106 [Eh]
	 SCS Opposite-Spin Energy  =      -1.3097445768376528 [Eh]
	 SCS Correlation Energy    =      -1.4209295398928634 [Eh]
	 SCS Total Energy          =    -325.4439747878258231 [Eh]
	-----------------------------------------------------------



Properties will be evaluated at  -0.000000,   0.000000,  -0.000000 [a0]

Properties computed using the MP2 density matrix

  Nuclear Dipole Moment: [e a0]
     X:    -7.7677      Y:     1.2195      Z:     0.0589

  Electronic Dipole Moment: [e a0]
     X:     6.1046      Y:    -1.4427      Z:     0.0149

  Dipole Moment: [e a0]
     X:    -1.6631      Y:    -0.2232      Z:     0.0738     Total:     1.6796

  Dipole Moment: [D]
     X:    -4.2271      Y:    -0.5674      Z:     0.1875     Total:     4.2692


*** tstop() called on node142.bme.utexas.edu at Fri Feb 26 19:27:00 2021
Module time:
	user time   =     457.71 seconds =       7.63 minutes
	system time =      24.50 seconds =       0.41 minutes
	total time  =         78 seconds =       1.30 minutes
Total time:
	user time   =     637.92 seconds =      10.63 minutes
	system time =      46.51 seconds =       0.78 minutes
	total time  =        117 seconds =       1.95 minutes

    Psi4 stopped on: Friday, 26 February 2021 07:27PM
    Psi4 wall time for execution: 0:01:57.71

*** Psi4 exiting successfully. Buy a developer a beer!
