opt=Tight                                                               
Freq      RMP2-FC                                                     6-31G(d)            
Number of atoms                            I                9
Info1-9                                    I   N=           9
          18          18        1002           0           0         100
           6           2           1
Charge                                     I                0
Multiplicity                               I                1
Number of electrons                        I               38
Number of alpha electrons                  I               19
Number of beta electrons                   I               19
Number of basis functions                  I               83
Number of independent functions            I               83
Number of point charges in /Mol/           I                0
Number of translation vectors              I                0
Atomic numbers                             I   N=           9
           8           8           6           6           6           1
           1           1           1
Nuclear charges                            R   N=           9
  8.00000000E+00  8.00000000E+00  6.00000000E+00  6.00000000E+00  6.00000000E+00
  1.00000000E+00  1.00000000E+00  1.00000000E+00  1.00000000E+00
Current cartesian coordinates              R   N=          27
  3.83739694E+00 -6.10113200E-01 -5.99791516E-01 -3.05414703E+00 -1.67641763E+00
 -1.04139028E-01 -1.00552328E-02  1.70828030E+00  1.28038394E-01  1.94080732E+00
 -3.03000578E-01  6.82801516E-01 -2.61941931E+00  5.93519515E-01 -1.91508626E-01
  5.34314395E-01  2.73423151E+00 -1.58754948E+00 -6.77599099E-02  3.09216832E+00
  1.67802011E+00  1.56073804E+00 -1.49486597E+00  2.35436255E+00 -4.16128088E+00
  1.96790977E+00 -5.29370871E-01
Force Field                                I                0
Int Atom Types                             I   N=           9
           0           0           0           0           0           0
           0           0           0
MM charges                                 R   N=           9
  0.00000000E+00  0.00000000E+00  0.00000000E+00  0.00000000E+00  0.00000000E+00
  0.00000000E+00  0.00000000E+00  0.00000000E+00  0.00000000E+00
Integer atomic weights                     I   N=           9
          16          16          12          12          12           1
           1           1           1
Real atomic weights                        R   N=           9
  1.59949146E+01  1.59949146E+01  1.20000000E+01  1.20000000E+01  1.20000000E+01
  1.00782504E+00  1.00782504E+00  1.00782504E+00  1.00782504E+00
Atom fragment info                         I   N=           9
           0           0           0           0           0           0
           0           0           0
Atom residue num                           I   N=           9
           0           0           0           0           0           0
           0           0           0
Nuclear spins                              I   N=           9
           0           0           0           0           0           1
           1           1           1
Nuclear ZEff                               R   N=           9
 -5.60000000E+00 -5.60000000E+00 -3.60000000E+00 -3.60000000E+00 -3.60000000E+00
 -1.00000000E+00 -1.00000000E+00 -1.00000000E+00 -1.00000000E+00
Nuclear QMom                               R   N=           9
  0.00000000E+00  0.00000000E+00  0.00000000E+00  0.00000000E+00  0.00000000E+00
  0.00000000E+00  0.00000000E+00  0.00000000E+00  0.00000000E+00
Nuclear GFac                               R   N=           9
  0.00000000E+00  0.00000000E+00  0.00000000E+00  0.00000000E+00  0.00000000E+00
  2.79284600E+00  2.79284600E+00  2.79284600E+00  2.79284600E+00
MicOpt                                     I   N=           9
          -1          -1          -1          -1          -1          -1
          -1          -1          -1
Number of contracted shells                I               28
Number of primitive shells                 I               71
Pure/Cartesian d shells                    I                1
Pure/Cartesian f shells                    I                0
Highest angular momentum                   I                2
Largest degree of contraction              I                6
Shell types                                I   N=          28
           0          -1          -1           2           0          -1
          -1           2           0          -1          -1           2
           0          -1          -1           2           0          -1
          -1           2           0           0           0           0
           0           0           0           0
Number of primitives per shell             I   N=          28
           6           3           1           1           6           3
           1           1           6           3           1           1
           6           3           1           1           6           3
           1           1           3           1           3           1
           3           1           3           1
Shell to atom map                          I   N=          28
           1           1           1           1           2           2
           2           2           3           3           3           3
           4           4           4           4           5           5
           5           5           6           6           7           7
           8           8           9           9
Primitive exponents                        R   N=          71
  5.48467166E+03  8.25234946E+02  1.88046958E+02  5.29645000E+01  1.68975704E+01
  5.79963534E+00  1.55396162E+01  3.59993359E+00  1.01376175E+00  2.70005823E-01
  8.00000000E-01  5.48467166E+03  8.25234946E+02  1.88046958E+02  5.29645000E+01
  1.68975704E+01  5.79963534E+00  1.55396162E+01  3.59993359E+00  1.01376175E+00
  2.70005823E-01  8.00000000E-01  3.04752488E+03  4.57369518E+02  1.03948685E+02
  2.92101553E+01  9.28666296E+00  3.16392696E+00  7.86827235E+00  1.88128854E+00
  5.44249258E-01  1.68714478E-01  8.00000000E-01  3.04752488E+03  4.57369518E+02
  1.03948685E+02  2.92101553E+01  9.28666296E+00  3.16392696E+00  7.86827235E+00
  1.88128854E+00  5.44249258E-01  1.68714478E-01  8.00000000E-01  3.04752488E+03
  4.57369518E+02  1.03948685E+02  2.92101553E+01  9.28666296E+00  3.16392696E+00
  7.86827235E+00  1.88128854E+00  5.44249258E-01  1.68714478E-01  8.00000000E-01
  1.87311370E+01  2.82539436E+00  6.40121692E-01  1.61277759E-01  1.87311370E+01
  2.82539436E+00  6.40121692E-01  1.61277759E-01  1.87311370E+01  2.82539436E+00
  6.40121692E-01  1.61277759E-01  1.87311370E+01  2.82539436E+00  6.40121692E-01
  1.61277759E-01
Contraction coefficients                   R   N=          71
  1.83107443E-03  1.39501722E-02  6.84450781E-02  2.32714336E-01  4.70192898E-01
  3.58520853E-01 -1.10777550E-01 -1.48026263E-01  1.13076702E+00  1.00000000E+00
  1.00000000E+00  1.83107443E-03  1.39501722E-02  6.84450781E-02  2.32714336E-01
  4.70192898E-01  3.58520853E-01 -1.10777550E-01 -1.48026263E-01  1.13076702E+00
  1.00000000E+00  1.00000000E+00  1.83473713E-03  1.40373228E-02  6.88426223E-02
  2.32184443E-01  4.67941348E-01  3.62311985E-01 -1.19332420E-01 -1.60854152E-01
  1.14345644E+00  1.00000000E+00  1.00000000E+00  1.83473713E-03  1.40373228E-02
  6.88426223E-02  2.32184443E-01  4.67941348E-01  3.62311985E-01 -1.19332420E-01
 -1.60854152E-01  1.14345644E+00  1.00000000E+00  1.00000000E+00  1.83473713E-03
  1.40373228E-02  6.88426223E-02  2.32184443E-01  4.67941348E-01  3.62311985E-01
 -1.19332420E-01 -1.60854152E-01  1.14345644E+00  1.00000000E+00  1.00000000E+00
  3.34946043E-02  2.34726953E-01  8.13757326E-01  1.00000000E+00  3.34946043E-02
  2.34726953E-01  8.13757326E-01  1.00000000E+00  3.34946043E-02  2.34726953E-01
  8.13757326E-01  1.00000000E+00  3.34946043E-02  2.34726953E-01  8.13757326E-01
  1.00000000E+00
P(S=P) Contraction coefficients            R   N=          71
  0.00000000E+00  0.00000000E+00  0.00000000E+00  0.00000000E+00  0.00000000E+00
  0.00000000E+00  7.08742682E-02  3.39752839E-01  7.27158577E-01  1.00000000E+00
  0.00000000E+00  0.00000000E+00  0.00000000E+00  0.00000000E+00  0.00000000E+00
  0.00000000E+00  0.00000000E+00  7.08742682E-02  3.39752839E-01  7.27158577E-01
  1.00000000E+00  0.00000000E+00  0.00000000E+00  0.00000000E+00  0.00000000E+00
  0.00000000E+00  0.00000000E+00  0.00000000E+00  6.89990666E-02  3.16423961E-01
  7.44308291E-01  1.00000000E+00  0.00000000E+00  0.00000000E+00  0.00000000E+00
  0.00000000E+00  0.00000000E+00  0.00000000E+00  0.00000000E+00  6.89990666E-02
  3.16423961E-01  7.44308291E-01  1.00000000E+00  0.00000000E+00  0.00000000E+00
  0.00000000E+00  0.00000000E+00  0.00000000E+00  0.00000000E+00  0.00000000E+00
  6.89990666E-02  3.16423961E-01  7.44308291E-01  1.00000000E+00  0.00000000E+00
  0.00000000E+00  0.00000000E+00  0.00000000E+00  0.00000000E+00  0.00000000E+00
  0.00000000E+00  0.00000000E+00  0.00000000E+00  0.00000000E+00  0.00000000E+00
  0.00000000E+00  0.00000000E+00  0.00000000E+00  0.00000000E+00  0.00000000E+00
  0.00000000E+00
Coordinates of each shell                  R   N=          84
  3.83739670E+00 -6.10113252E-01 -5.99791665E-01  3.83739670E+00 -6.10113252E-01
 -5.99791665E-01  3.83739670E+00 -6.10113252E-01 -5.99791665E-01  3.83739670E+00
 -6.10113252E-01 -5.99791665E-01 -3.05414734E+00 -1.67641723E+00 -1.04139177E-01
 -3.05414734E+00 -1.67641723E+00 -1.04139177E-01 -3.05414734E+00 -1.67641723E+00
 -1.04139177E-01 -3.05414734E+00 -1.67641723E+00 -1.04139177E-01 -1.00553197E-02
  1.70828050E+00  1.28038245E-01 -1.00553197E-02  1.70828050E+00  1.28038245E-01
 -1.00553197E-02  1.70828050E+00  1.28038245E-01 -1.00553197E-02  1.70828050E+00
  1.28038245E-01  1.94080710E+00 -3.03000506E-01  6.82801366E-01  1.94080710E+00
 -3.03000506E-01  6.82801366E-01  1.94080710E+00 -3.03000506E-01  6.82801366E-01
  1.94080710E+00 -3.03000506E-01  6.82801366E-01 -2.61941947E+00  5.93519885E-01
 -1.91508775E-01 -2.61941947E+00  5.93519885E-01 -1.91508775E-01 -2.61941947E+00
  5.93519885E-01 -1.91508775E-01 -2.61941947E+00  5.93519885E-01 -1.91508775E-01
  5.34314375E-01  2.73423168E+00 -1.58754962E+00  5.34314375E-01  2.73423168E+00
 -1.58754962E+00 -6.77599063E-02  3.09216852E+00  1.67801997E+00 -6.77599063E-02
  3.09216852E+00  1.67801997E+00  1.56073774E+00 -1.49486587E+00  2.35436240E+00
  1.56073774E+00 -1.49486587E+00  2.35436240E+00 -4.16128095E+00  1.96791024E+00
 -5.29371021E-01 -4.16128095E+00  1.96791024E+00 -5.29371021E-01
Constraint Structure                       R   N=          27
  3.83739670E+00 -6.10113252E-01 -5.99791665E-01 -3.05414734E+00 -1.67641723E+00
 -1.04139177E-01 -1.00553197E-02  1.70828050E+00  1.28038245E-01  1.94080710E+00
 -3.03000506E-01  6.82801366E-01 -2.61941947E+00  5.93519885E-01 -1.91508775E-01
  5.34314375E-01  2.73423168E+00 -1.58754962E+00 -6.77599063E-02  3.09216852E+00
  1.67801997E+00  1.56073774E+00 -1.49486587E+00  2.35436240E+00 -4.16128095E+00
  1.96791024E+00 -5.29371021E-01
Num ILSW                                   I              100
ILSW                                       I   N=         100
           0           1           0           0           2           0
           0           0           0           0           0          -1
           0           0           0           0           0           0
           0           0           0           0           1           0
           1           0           0           0           0           0
           0           0      100000           0          -1           0
           0           0           0           0           0           0
           0           0           0           1           1           0
           0           0           1           0           0           0
           0           0           4          40           0           0
           0           0           0           0           0           0
           0           0           0           0           0           0
           0           0           0           0           0           0
           0           0           0           0           0           0
           0           0           0           0           0           0
           0           0           0           0           0           0
           0           0           0           0
Num RLSW                                   I               40
RLSW                                       R   N=          40
  1.00000000E+00  1.00000000E+00  1.00000000E+00  1.00000000E+00  1.00000000E+00
  0.00000000E+00  0.00000000E+00  1.00000000E+00  0.00000000E+00  0.00000000E+00
  0.00000000E+00  0.00000000E+00  1.00000000E+00  0.00000000E+00  0.00000000E+00
  0.00000000E+00  0.00000000E+00  1.00000000E+00  0.00000000E+00  0.00000000E+00
  0.00000000E+00  0.00000000E+00  1.00000000E+00  0.00000000E+00  0.00000000E+00
  0.00000000E+00  0.00000000E+00  1.00000000E+00  0.00000000E+00  0.00000000E+00
  0.00000000E+00  0.00000000E+00  0.00000000E+00  0.00000000E+00  0.00000000E+00
  0.00000000E+00  0.00000000E+00  0.00000000E+00  1.00000000E+00  1.00000000E+00
MxBond                                     I                4
NBond                                      I   N=           9
           1           1           4           3           3           1
           1           1           1
IBond                                      I   N=          36
           4           0           0           0           5           0
           0           0           4           5           6           7
           1           3           8           0           2           3
           9           0           3           0           0           0
           3           0           0           0           4           0
           0           0           5           0           0           0
RBond                                      R   N=          36
  2.00000000E+00  0.00000000E+00  0.00000000E+00  0.00000000E+00  2.00000000E+00
  0.00000000E+00  0.00000000E+00  0.00000000E+00  1.00000000E+00  1.00000000E+00
  1.00000000E+00  1.00000000E+00  2.00000000E+00  1.00000000E+00  1.00000000E+00
  0.00000000E+00  2.00000000E+00  1.00000000E+00  1.00000000E+00  0.00000000E+00
  1.00000000E+00  0.00000000E+00  0.00000000E+00  0.00000000E+00  1.00000000E+00
  0.00000000E+00  0.00000000E+00  0.00000000E+00  1.00000000E+00  0.00000000E+00
  0.00000000E+00  0.00000000E+00  1.00000000E+00  0.00000000E+00  0.00000000E+00
  0.00000000E+00
Virial Ratio                               R      2.003229567632971E+00
SCF Energy                                 R     -2.656293946564575E+02
MP2 Energy                                 R     -2.663610286360896E+02
Total Energy                               R     -2.663610286360896E+02
Post-SCF wavefunction norm                 R      1.570661807299677E+00
RMS Force                                  R      2.567058490775034E-07
RMS Density                                R      7.340932865318584E-10
External E-field                           R   N=          35
  0.00000000E+00  0.00000000E+00  0.00000000E+00  0.00000000E+00  0.00000000E+00
  0.00000000E+00  0.00000000E+00  0.00000000E+00  0.00000000E+00  0.00000000E+00
  0.00000000E+00  0.00000000E+00  0.00000000E+00  0.00000000E+00  0.00000000E+00
  0.00000000E+00  0.00000000E+00  0.00000000E+00  0.00000000E+00  0.00000000E+00
  0.00000000E+00  0.00000000E+00  0.00000000E+00  0.00000000E+00  0.00000000E+00
  0.00000000E+00  0.00000000E+00  0.00000000E+00  0.00000000E+00  0.00000000E+00
  0.00000000E+00  0.00000000E+00  0.00000000E+00  0.00000000E+00  0.00000000E+00
IOpCl                                      I                0
IROHF                                      I                0
Alpha Orbital Energies                     R   N=          83
 -2.05924034E+01 -2.05785420E+01 -1.13656782E+01 -1.13503153E+01 -1.12723437E+01
 -1.40870435E+00 -1.39225452E+00 -1.07121925E+00 -8.70456018E-01 -7.87747580E-01
 -6.97672869E-01 -6.85409498E-01 -6.48189741E-01 -6.16611599E-01 -6.03476882E-01
 -5.24374262E-01 -5.10494704E-01 -4.58243175E-01 -4.25719497E-01  1.27259149E-01
  1.38550359E-01  2.37056235E-01  2.58441808E-01  2.77373862E-01  2.89299659E-01
  3.79227336E-01  4.00061214E-01  4.61401001E-01  4.84661430E-01  7.41110865E-01
  7.56737200E-01  7.76976868E-01  7.82212174E-01  8.21131991E-01  8.74403471E-01
  9.12264001E-01  9.32114909E-01  9.72778617E-01  1.03839090E+00  1.07853401E+00
  1.08249388E+00  1.09216450E+00  1.11052450E+00  1.13108576E+00  1.15900288E+00
  1.20105026E+00  1.27750444E+00  1.29934299E+00  1.34974825E+00  1.39116732E+00
  1.57763284E+00  1.66577065E+00  1.70549580E+00  1.71850028E+00  1.80608518E+00
  1.81303633E+00  1.91621727E+00  2.00692919E+00  2.03674102E+00  2.08343973E+00
  2.09972798E+00  2.13715727E+00  2.16716287E+00  2.28051038E+00  2.32483253E+00
  2.37163272E+00  2.44527969E+00  2.54553281E+00  2.63117651E+00  2.67180557E+00
  2.77952976E+00  2.86480813E+00  2.91503376E+00  2.95402936E+00  3.15969383E+00
  3.23202203E+00  3.28680153E+00  3.31152947E+00  4.20190582E+00  4.24192322E+00
  4.46651690E+00  4.57807127E+00  4.85188202E+00
Alpha MO coefficients                      R   N=        6889
 -6.41723551E-06 -2.52603725E-05  8.05169391E-06  1.99902806E-06  1.77026464E-06
  1.39136558E-04 -5.79717007E-05  6.14448029E-06  2.98121916E-07 -9.74924997E-06
 -1.94280550E-05 -2.14511716E-05 -2.04723990E-07 -7.51804304E-07  1.06775572E-06
  9.94709486E-01  2.09203473E-02  3.11588677E-04  1.49981276E-03 -4.59718211E-05
  4.44752661E-03 -2.47484440E-05 -4.23516204E-05 -5.13903441E-06 -3.85584167E-03
 -3.59706346E-03 -4.16628630E-03  6.01871795E-05  5.35174266E-05 -3.80979928E-05
 -3.65953393E-06 -9.95216027E-06  7.89517728E-06  2.32227344E-05  1.24492001E-06
  1.36076737E-05  2.05216458E-04 -6.62587719E-05  7.55895759E-06  2.27728445E-05
 -3.92662361E-05 -2.37249181E-05 -4.56457427E-05  9.32376586E-06 -4.38212887E-06
  6.18834614E-06  3.05517490E-05 -1.40066682E-05 -1.13744882E-05 -4.50286113E-06
 -2.48585813E-04  5.49071950E-05 -6.56194970E-05  1.03309154E-04  5.92001135E-06
 -3.62941723E-06  1.01626189E-05  6.57032688E-06  1.62316354E-06  8.35389076E-06
 -3.93845149E-06  4.64930706E-04  1.16662803E-06  5.55080032E-05 -3.32894713E-06
 -1.78696492E-04  1.74309985E-04  5.38679007E-04 -3.26615954E-06 -8.66442685E-05
 -7.29056697E-04 -3.70265986E-05 -1.47019467E-04  1.66743988E-06  3.21790146E-05
  7.66870974E-06 -4.35569128E-05  1.15081196E-05 -2.45515576E-05  2.48947037E-05
 -6.45444235E-05 -2.56158639E-05 -1.10079817E-04  9.94710515E-01  2.09226625E-02
 -1.25959090E-03  2.19480889E-04  8.43037142E-04  4.46386025E-03  3.73440437E-05
 -1.65357744E-05 -3.59939355E-06 -3.74645303E-03 -3.98554202E-03 -3.87109922E-03
 -1.53337353E-04 -2.52314667E-04 -1.16760337E-04  3.18478246E-06  7.82189784E-06
  5.21483486E-06  1.68169792E-06  4.07109473E-06 -7.94819313E-06 -2.51633399E-06
 -5.30945582E-06 -9.67522602E-06  6.99923809E-06  3.78369676E-06  1.48636450E-05
  1.93842074E-06 -4.50131165E-06  1.21703458E-06 -1.71806027E-06  4.83794611E-06
 -2.48282194E-05  4.89000098E-06  1.70268285E-05 -7.53457186E-05 -5.84200055E-05
  7.21271686E-05 -9.56183782E-05 -4.73420021E-05  6.06722472E-06 -4.78676538E-06
  1.14950589E-05  1.86048544E-05 -3.51291024E-05 -5.10574129E-06  4.58658422E-04
 -4.03638684E-05  9.63603681E-06  3.23515990E-05 -1.76286510E-04 -5.14078479E-04
  1.03900796E-04  3.02801556E-04 -5.30565930E-04 -6.12567424E-05 -2.69571595E-04
  1.00315323E-04  3.79105588E-04 -4.82434026E-05  4.35496942E-06  1.75890640E-05
  1.31202973E-05 -7.64409755E-06  4.90442183E-06 -5.63548355E-05 -8.70007964E-05
  4.92912787E-05 -1.04991038E-05  3.95607375E-06  7.07965936E-06  1.17847626E-05
  6.36571724E-06 -3.89691783E-06  5.58629714E-06  3.39832320E-06 -6.98568292E-05
  1.63483649E-05 -1.84717373E-05 -3.09511274E-05 -1.41840331E-04 -4.56853412E-06
 -5.24416414E-05  2.01427047E-05  9.62516380E-05 -2.75800911E-05  1.30091735E-05
 -1.58134696E-05 -5.64128224E-04  2.51784419E-04 -1.21095763E-04  3.37243775E-05
  2.78189185E-05  7.08151821E-05  6.94975621E-05  1.63122454E-05 -2.80379266E-06
 -1.61672110E-05 -3.26095743E-04  3.99789880E-04  4.27183190E-05  2.61415281E-04
 -1.26189356E-05 -1.59581708E-03 -1.37795754E-04 -1.32916012E-03  7.29009834E-05
  3.51823249E-05 -1.48778128E-04  2.77175624E-04 -1.63554882E-05 -4.38929557E-05
  3.16433129E-05  3.33018824E-03  4.15134014E-04  1.32370476E-04  9.02087605E-05
  8.80818733E-06  1.45016057E-03 -1.99721520E-03  4.15325008E-05 -1.76048073E-04
 -5.02660717E-04 -2.33020145E-04 -3.07147611E-05 -1.37366064E-04 -6.76025130E-05
 -9.43541616E-06 -2.46196029E-04 -2.33785074E-04  6.41122620E-05 -1.92619989E-05
  1.14107978E-05  1.38327618E-03 -3.12257390E-04  6.32779536E-04 -5.23529753E-04
  2.36922761E-05 -5.73434072E-06 -6.76490969E-05 -3.54754510E-05 -3.22838115E-08
 -4.12730462E-05  9.95769590E-01  2.64882756E-02  7.07133677E-05 -6.14630592E-04
  5.22565593E-05 -8.06915377E-03 -9.70443856E-04 -2.31886283E-03 -4.13079240E-06
 -1.79413450E-03 -9.58471288E-04 -2.41874602E-03  2.39349106E-04  9.56409844E-05
 -8.48067801E-05 -9.50685266E-05  3.66951610E-04 -1.06682157E-04  2.49708970E-04
 -5.64940403E-05  2.76080433E-04 -8.46502068E-05  2.09338214E-03 -3.30652896E-04
  4.05137787E-04 -1.85435566E-04  2.92220262E-05  1.65960462E-04 -1.77702443E-03
  1.04300808E-03 -1.46699353E-04 -8.98579552E-04 -2.11274841E-05  1.19599252E-04
  2.55116342E-05  1.08392467E-04  1.90895471E-04  8.77129464E-05 -4.27157661E-05
 -1.60272622E-04 -9.34686543E-05 -2.60093345E-05 -1.70899686E-05  3.70503024E-04
  1.61759717E-04  6.58351282E-05  5.96816167E-05 -8.56181617E-05 -1.28923864E-04
 -2.24134594E-04  4.71573215E-06  2.33852425E-05  1.82641173E-06  4.00834455E-03
  4.10218102E-04 -4.50660020E-05  7.58952672E-05 -5.46089501E-05  1.90290349E-03
  7.98208277E-04 -7.42026764E-04  8.21327671E-04 -3.66478804E-04 -3.37291987E-04
 -7.21161964E-05  2.42939375E-04 -4.42860076E-05  9.91227636E-05  9.95779322E-01
  2.65783899E-02  3.22009463E-04  6.35719517E-05 -4.42953423E-04 -8.06104922E-03
  2.47323515E-03 -5.02693503E-04 -1.26773460E-03 -1.27429693E-03 -2.04522730E-03
 -1.72979006E-03 -3.76346515E-04 -6.99055118E-04 -1.68247245E-04  1.54647219E-04
 -2.59544596E-04 -1.27970730E-04  9.81616621E-05 -8.01160452E-06  3.93187867E-04
  8.10842946E-04 -4.49442718E-04 -1.29758105E-05  4.57926622E-05 -1.94116878E-06
 -1.29274041E-04  1.73861782E-05  1.46909893E-05 -2.11875514E-05 -2.07752820E-05
  3.31926785E-04 -1.74337295E-04  1.31848121E-04 -1.63365802E-05  2.30086678E-03
  5.01430381E-05  5.05290091E-04 -3.18062991E-05 -1.97726260E-04  5.71543399E-05
 -1.92715168E-05 -5.17190128E-06  5.71538992E-04 -1.13690416E-04 -2.01578542E-04
  2.80321017E-04 -8.06673294E-05 -1.46270899E-04 -7.77244270E-05 -3.64894507E-05
 -8.81595569E-05 -6.94243542E-05  1.32149847E-05 -9.48032771E-06 -9.89635930E-06
 -1.98917093E-05  3.38596023E-06 -5.05448642E-04 -3.69054391E-04 -1.48764003E-08
 -7.04684555E-05  4.55788877E-05  1.19102773E-04 -7.02465790E-05 -4.06421245E-05
  2.07718274E-05 -2.25088249E-05  9.95774717E-01  2.91295216E-02 -1.48073402E-04
 -1.23380519E-04  1.14823519E-04 -1.83152548E-02  2.88178430E-04  1.46125205E-03
 -2.17471523E-04 -1.71845956E-03 -1.78420750E-03 -1.69943202E-03 -1.91050125E-05
 -2.52539352E-06 -1.69145556E-06 -4.28734425E-03 -6.09756869E-05 -1.29293777E-04
  3.12371308E-05  4.49058976E-05  4.17901840E-03 -1.75904879E-03  1.75666161E-03
 -5.38819395E-04 -3.10876942E-04 -3.34933525E-04 -1.02487523E-04  1.79013091E-04
 -5.51069451E-05  2.26196386E-05 -3.61118435E-03 -3.19657482E-05  3.84016703E-05
  5.63866431E-05  8.67559054E-06  4.72741861E-03  2.39862061E-03  3.30180524E-04
  3.54343666E-04 -4.48159733E-04 -2.24432530E-04 -1.60868717E-04 -2.13237873E-04
 -3.59304023E-05 -2.74327279E-05  2.58907401E-04  2.56496586E-03  2.40383545E-04
  2.65266837E-03 -1.41610878E-04  2.40949616E-04 -9.86067538E-05  2.39328505E-04
 -4.27322629E-02  9.49791554E-02 -2.56037608E-02  4.38419635E-03  1.59869483E-02
  8.56608778E-02 -1.01699556E-02  2.82747212E-03  5.98190116E-03  2.87342631E-03
 -3.23263088E-04  7.72161938E-04 -6.19974159E-04 -2.27193081E-03  6.12118356E-04
 -1.89415139E-01  4.21306793E-01  2.74457065E-02  1.27389026E-01 -4.24258120E-03
  3.79183763E-01  1.28405884E-02  4.97351155E-02 -1.01084262E-03 -9.41194427E-04
  1.73345789E-02 -1.65153667E-03  4.92156522E-03 -1.20506276E-04 -7.14059917E-04
 -2.21857592E-02  3.99194764E-02 -1.63009390E-02 -1.98716989E-02 -1.62309402E-03
  2.52108503E-02  7.07375420E-03 -1.02707217E-02  1.62469893E-04  5.97111050E-03
  2.65129662E-03 -7.52363764E-04  3.14091565E-03  7.77868641E-04  3.02341985E-04
 -3.00230843E-02  5.79161235E-02  2.14430096E-02 -9.46179024E-04 -2.20042902E-02
  1.24756032E-02 -3.56815241E-03 -5.05761793E-03  5.39471537E-03  4.95898399E-03
 -3.05415342E-03 -2.42095734E-04 -1.74172512E-03 -5.16578353E-03  3.61783087E-04
 -1.09400166E-01  2.08659517E-01 -2.45499603E-02 -1.62077997E-01  7.48515946E-03
  7.30824417E-02 -7.48504519E-04  2.28793548E-02 -1.24467490E-03 -1.27685595E-02
  2.94281967E-02 -1.58855923E-02  8.66596235E-03  5.89630292E-05 -2.26438330E-03
  7.24732856E-03 -6.43870341E-04  6.94621716E-03  9.68720513E-05  8.97340046E-03
 -2.04758919E-03  2.72915759E-02 -9.22841906E-03 -1.90799542E-01  4.24458619E-01
 -1.07658238E-01  1.90144567E-02  7.16967804E-02  3.82609650E-01 -4.21811120E-02
  9.10245921E-03  2.69315889E-02  1.19440974E-02 -1.40054544E-03  4.22170423E-03
 -2.77743682E-03 -1.04559992E-02  2.12219216E-03  4.73925104E-02 -1.04802525E-01
 -4.76138008E-03 -3.11649334E-02  1.34248352E-03 -9.62019046E-02 -3.69492595E-03
 -1.24950494E-02 -5.04016777E-04  3.44750590E-04 -4.03445094E-03  8.72755266E-04
 -1.17440258E-03 -1.09526384E-04  1.55580997E-04 -1.35616608E-02  2.52784407E-02
  2.52440862E-02 -1.24565798E-02  1.02016502E-03  1.19162443E-02  7.57173730E-03
  1.41997561E-03 -8.52767973E-03  2.88276956E-03  2.60218392E-03 -2.12204731E-04
 -5.85403698E-03  1.93762052E-04 -5.15493935E-04 -1.08069437E-01  2.06525634E-01
  1.37275022E-01 -1.86914520E-02 -9.46708467E-02  6.97956443E-02 -1.60648334E-02
 -1.57855722E-03  1.68706324E-02  1.49971525E-02 -1.46199749E-02 -3.09185161E-04
 -5.43754047E-03 -2.48419910E-02  2.98054060E-03  2.42661422E-02 -4.55937469E-02
  1.23313190E-02  4.19849380E-02 -1.06420233E-03 -1.37151273E-02  3.51398679E-04
 -1.80956976E-03  1.18095474E-03  3.90317797E-03 -7.55653681E-03  3.64661407E-03
 -1.77375711E-03  2.27873729E-04  7.37578881E-04  6.97039695E-03 -2.59298262E-03
  4.67189959E-03  1.75654200E-03  2.66211319E-02 -1.05348128E-02 -6.58316677E-03
  8.68739108E-04  4.55163500E-02 -1.03681757E-01 -1.36896875E-02  1.57466125E-02
 -6.19895406E-03 -1.09823041E-01 -7.68052293E-03  6.59901709E-03 -2.44536225E-03
  5.87090955E-04 -1.51172631E-04 -1.95799565E-03 -1.01107847E-03  9.83427321E-04
  1.36442907E-03  5.08691212E-02 -1.15847123E-01  2.64532119E-02  8.48712197E-03
  4.08882618E-03 -1.24562736E-01  1.12848300E-02  5.28366249E-03  1.68289004E-03
 -3.19360582E-04 -1.03181146E-03  1.62808581E-04  2.60984629E-03 -2.67376800E-04
  6.10070475E-04 -1.72746666E-01  3.20495294E-01 -1.74294085E-02 -2.80779433E-02
  7.49334068E-03  3.21985004E-01 -6.80064739E-03 -6.65849348E-03  3.95844716E-03
  7.45262113E-03  6.69198382E-03  6.86618348E-03  5.34413270E-05  5.63559088E-04
 -4.60502967E-05 -5.93922554E-02  1.24546994E-01 -1.23287769E-01  7.68370219E-02
  1.81085609E-02  7.17651371E-02 -1.79697174E-02  5.10870262E-03  1.34189599E-02
  1.34822938E-03  8.24492596E-03 -1.60742051E-03 -1.07374620E-02  6.38268340E-03
 -7.60791253E-03 -6.48484015E-02  1.35237324E-01  1.12546701E-01  1.09909793E-01
  1.10768348E-02  8.18073662E-02  7.72784363E-03  2.59576763E-02 -5.55354213E-04
  1.87809407E-02 -6.69142108E-03 -4.19283589E-03  2.78826099E-03  4.17535987E-03
  6.26182765E-04  9.88595054E-02  1.30322786E-02  1.04989670E-01  1.61518429E-02
  3.66761847E-02  7.66712368E-04  3.90283726E-02  2.35606609E-03 -6.04128029E-02
  1.40130177E-01  7.74248707E-02 -1.50787013E-02 -5.59312065E-02  1.75500639E-01
  3.99557011E-02 -8.12757012E-03 -2.77993565E-02 -2.90435615E-03  2.23081663E-03
 -5.85239058E-04  3.75875322E-04  4.33725172E-03 -1.98371439E-03  5.50376967E-02
 -1.28041665E-01 -2.31085479E-02  1.09565414E-01 -1.50269521E-02 -1.63759753E-01
 -1.05179512E-02  5.47459627E-02 -7.92258951E-03 -4.93315760E-03  6.93652482E-03
 -1.39007987E-03 -1.10767333E-03 -7.33855097E-04 -1.16652708E-03  6.98887813E-03
 -1.33287462E-02 -1.78658388E-01  6.54161817E-02 -5.56946260E-02 -2.24264381E-02
 -4.69317863E-02  1.71692548E-02 -1.23773534E-02  7.61494458E-03 -8.04654673E-03
  4.89588807E-04  1.47567659E-02 -2.17084074E-03  3.78555403E-03  1.11697743E-01
 -2.35411106E-01  9.86787492E-02 -2.17758378E-02 -7.70423807E-02 -2.07459093E-01
  4.63567655E-02 -3.34737816E-03 -4.15368018E-02  4.02979232E-03 -5.66303455E-03
 -3.87546422E-03  4.87788204E-03  4.90864152E-04  1.26461778E-02 -1.18404800E-01
  2.47723051E-01 -4.30366038E-02  1.40849728E-01 -2.10338971E-02  2.32844383E-01
 -8.55952805E-03  6.82962181E-02 -7.05098746E-03  1.10918316E-02  3.47792584E-03
 -8.93711299E-03 -6.00638587E-03  3.65531567E-03 -1.90808095E-03  1.17048090E-02
  8.76395420E-03 -1.85869895E-03 -6.79334600E-04 -1.20018757E-01 -4.03495256E-02
  1.53134119E-01  5.76282778E-02 -4.45435764E-02  1.04813273E-01  7.44242510E-02
  6.60266685E-02 -1.27775412E-01  1.36868217E-01  4.18363694E-02  3.41797392E-02
 -6.66332857E-02 -1.40216959E-03  4.68376654E-03 -4.82963126E-03 -5.53908830E-03
  8.12373323E-03  1.16639499E-03 -5.37664391E-02  1.24340683E-01  6.21934859E-03
 -1.48936215E-01  1.67232055E-03  1.75731018E-01  2.77025765E-03 -7.83136655E-02
  1.16350374E-03  4.28365610E-03 -1.06367213E-02  1.46751029E-03  7.43333841E-04
  2.20490539E-04  1.35437009E-04 -7.16228018E-02  1.31933194E-01  6.08594160E-02