
    -----------------------------------------------------------------------
          Psi4: An Open-Source Ab Initio Electronic Structure Package
                               Psi4 1.4a3.dev225 

                         Git: Rev {master} 7105e37 


    D. G. A. Smith, L. A. Burns, A. C. Simmonett, R. M. Parrish,
    M. C. Schieber, R. Galvelis, P. Kraus, H. Kruse, R. Di Remigio,
    A. Alenaizan, A. M. James, S. Lehtola, J. P. Misiewicz, M. Scheurer,
    R. A. Shaw, J. B. Schriber, Y. Xie, Z. L. Glick, D. A. Sirianni,
    J. S. O'Brien, J. M. Waldrop, A. Kumar, E. G. Hohenstein,
    B. P. Pritchard, B. R. Brooks, H. F. Schaefer III, A. Yu. Sokolov,
    K. Patkowski, A. E. DePrince III, U. Bozkaya, R. A. King,
    F. A. Evangelista, J. M. Turney, T. D. Crawford, C. D. Sherrill,
    J. Chem. Phys. 152(18) 184108 (2020). https://doi.org/10.1063/5.0006002

                            Additional Code Authors
    E. T. Seidl, C. L. Janssen, E. F. Valeev, M. L. Leininger,
    J. F. Gonthier, R. M. Richard, H. R. McAlexander, M. Saitow, X. Wang,
    P. Verma, and M. H. Lechner

             Previous Authors, Complete List of Code Contributors,
                       and Citations for Specific Modules
    https://github.com/psi4/psi4/blob/master/codemeta.json
    https://github.com/psi4/psi4/graphs/contributors
    http://psicode.org/psi4manual/master/introduction.html#citing-psifour

    -----------------------------------------------------------------------


    Psi4 started on: Saturday, 20 March 2021 04:42AM

    Process ID: 76571
    Host:       c446-101.stampede2.tacc.utexas.edu
    PSIDATADIR: /home1/07844/xy3866/miniconda3/envs/p4env/share/psi4
    Memory:     500.0 MiB
    Threads:    32
    
  ==> Input File <==

--------------------------------------------------------------------------
#psi4
#
memory 32 gb

molecule  {
0 1
  O       -1.5212240    -0.7093150     0.0000610
  N        1.9901180    -0.3643950    -0.0000520
  C       -0.1745487    -0.2508511     0.0000144
  C        0.8549480    -1.1405170    -0.0000250
  C        0.2804280     1.0605730     0.0000120
  C        1.6640340     0.9642470    -0.0000360
  C       -2.4886080     0.3325760     0.0000260
  H        0.8850560    -2.2196710    -0.0000390
  H       -0.2825830     1.9831120     0.0000370
  H        2.9325900    -0.7289320    -0.0000930
  H        2.4244870     1.7323050    -0.0000480
  H       -3.4598190    -0.1623920     0.0000440
  H       -2.3971420     0.9606620    -0.8937380
  H       -2.3971430     0.9607210     0.8937490
units angstrom
no_reorient  #important for SAPT in psi4, default
symmetry c1  #important for SAPT in psi4, default
}

set PROPERTIES_ORIGIN ["COM"]
properties('MP2/aug-cc-pvtz', properties = ['dipole'])
--------------------------------------------------------------------------

  Memory set to  29.802 GiB by Python driver.
    SCF Algorithm Type (re)set to DF.

*** tstart() called on c446-101.stampede2.tacc.utexas.edu
*** at Sat Mar 20 04:42:37 2021

   => Loading Basis Set <=

    Name: AUG-CC-PVTZ
    Role: ORBITAL
    Keyword: BASIS
    atoms 1    entry O          line   331 file /home1/07844/xy3866/miniconda3/envs/p4env/share/psi4/basis/aug-cc-pvtz.gbs 
    atoms 2    entry N          line   285 file /home1/07844/xy3866/miniconda3/envs/p4env/share/psi4/basis/aug-cc-pvtz.gbs 
    atoms 3-7  entry C          line   239 file /home1/07844/xy3866/miniconda3/envs/p4env/share/psi4/basis/aug-cc-pvtz.gbs 
    atoms 8-14 entry H          line    40 file /home1/07844/xy3866/miniconda3/envs/p4env/share/psi4/basis/aug-cc-pvtz.gbs 


         ---------------------------------------------------------
                                   SCF
               by Justin Turney, Rob Parrish, Andy Simmonett
                          and Daniel G. A. Smith
                              RHF Reference
                       32 Threads,  30517 MiB Core
         ---------------------------------------------------------

  ==> Geometry <==

    Molecular point group: c1
    Full point group: C1

    Geometry (in Angstrom), charge = 0, multiplicity = 1:

       Center              X                  Y                   Z               Mass       
    ------------   -----------------  -----------------  -----------------  -----------------
         O           -1.550676559226    -0.685511672634     0.000060426690    15.994914619570
         N            1.960665440774    -0.340591672634    -0.000052573310    14.003074004430
         C           -0.204001259226    -0.227047772634     0.000013826690    12.000000000000
         C            0.825495440774    -1.116713672634    -0.000025573310    12.000000000000
         C            0.250975440774     1.084376327366     0.000011426690    12.000000000000
         C            1.634581440774     0.988050327366    -0.000036573310    12.000000000000
         C           -2.518060559226     0.356379327366     0.000025426690    12.000000000000
         H            0.855603440774    -2.195867672634    -0.000039573310     1.007825032230
         H           -0.312035559226     2.006915327366     0.000036426690     1.007825032230
         H            2.903137440774    -0.705128672634    -0.000093573310     1.007825032230
         H            2.395034440774     1.756108327366    -0.000048573310     1.007825032230
         H           -3.489271559226    -0.138588672634     0.000043426690     1.007825032230
         H           -2.426594559226     0.984465327366    -0.893738573310     1.007825032230
         H           -2.426595559226     0.984524327366     0.893748426690     1.007825032230

  Running in c1 symmetry.

  Rotational constants: A =      0.24761  B =      0.06721  C =      0.05340 [cm^-1]
  Rotational constants: A =   7423.19714  B =   2014.76038  C =   1600.82447 [MHz]
  Nuclear repulsion =  292.381624334725529

  Charge       = 0
  Multiplicity = 1
  Electrons    = 52
  Nalpha       = 26
  Nbeta        = 26

  ==> Algorithm <==

  SCF Algorithm Type is DF.
  DIIS enabled.
  MOM disabled.
  Fractional occupation disabled.
  Guess Type is SAD.
  Energy threshold   = 1.00e-10
  Density threshold  = 1.00e-10
  Integral threshold = 1.00e-12

  ==> Primary Basis <==

  Basis Set: AUG-CC-PVTZ
    Blend: AUG-CC-PVTZ
    Number of shells: 161
    Number of basis functions: 483
    Number of Cartesian functions: 560
    Spherical Harmonics?: true
    Max angular momentum: 3

   => Loading Basis Set <=

    Name: (AUG-CC-PVTZ AUX)
    Role: JKFIT
    Keyword: DF_BASIS_SCF
    atoms 1    entry O          line   286 file /home1/07844/xy3866/miniconda3/envs/p4env/share/psi4/basis/aug-cc-pvtz-jkfit.gbs 
    atoms 2    entry N          line   224 file /home1/07844/xy3866/miniconda3/envs/p4env/share/psi4/basis/aug-cc-pvtz-jkfit.gbs 
    atoms 3-7  entry C          line   162 file /home1/07844/xy3866/miniconda3/envs/p4env/share/psi4/basis/aug-cc-pvtz-jkfit.gbs 
    atoms 8-14 entry H          line    70 file /home1/07844/xy3866/miniconda3/envs/p4env/share/psi4/basis/aug-cc-pvtz-jkfit.gbs 

  ==> Integral Setup <==

  DFHelper Memory: AOs need 1.837 GiB; user supplied 22.352 GiB. Using in-core AOs.

  ==> MemDFJK: Density-Fitted J/K Matrices <==

    J tasked:                   Yes
    K tasked:                   Yes
    wK tasked:                   No
    OpenMP threads:              32
    Memory [MiB]:             22888
    Algorithm:                 Core
    Schwarz Cutoff:           1E-12
    Mask sparsity (%):       5.4250
    Fitting Condition:        1E-10

   => Auxiliary Basis Set <=

  Basis Set: (AUG-CC-PVTZ AUX)
    Blend: AUG-CC-PVTZ-JKFIT
    Number of shells: 308
    Number of basis functions: 1050
    Number of Cartesian functions: 1302
    Spherical Harmonics?: true
    Max angular momentum: 4

  Minimum eigenvalue in the overlap matrix is 2.5365689018E-06.
  Reciprocal condition number of the overlap matrix is 1.5258524831E-07.
    Using symmetric orthogonalization.

  ==> Pre-Iterations <==

  SCF Guess: Superposition of Atomic Densities via on-the-fly atomic UHF (no occupation information).

   -------------------------
    Irrep   Nso     Nmo    
   -------------------------
     A        483     483 
   -------------------------
    Total     483     483
   -------------------------

  ==> Iterations <==

                           Total Energy        Delta E     RMS |[F,P]|

   @DF-RHF iter SAD:  -322.33448166372290   -3.22334e+02   0.00000e+00 
   @DF-RHF iter   1:  -322.60356592830288   -2.69084e-01   1.20365e-03 DIIS
   @DF-RHF iter   2:  -322.76216601201378   -1.58600e-01   5.58399e-04 DIIS
   @DF-RHF iter   3:  -322.79540646928990   -3.32405e-02   1.09967e-04 DIIS
   @DF-RHF iter   4:  -322.79749032026763   -2.08385e-03   3.06745e-05 DIIS
   @DF-RHF iter   5:  -322.79763463534914   -1.44315e-04   9.49277e-06 DIIS
   @DF-RHF iter   6:  -322.79765175630325   -1.71210e-05   3.36269e-06 DIIS
   @DF-RHF iter   7:  -322.79765482527813   -3.06897e-06   1.40911e-06 DIIS
   @DF-RHF iter   8:  -322.79765568153346   -8.56255e-07   6.12170e-07 DIIS
   @DF-RHF iter   9:  -322.79765585591167   -1.74378e-07   1.58253e-07 DIIS
   @DF-RHF iter  10:  -322.79765586695959   -1.10479e-08   7.19483e-08 DIIS
   @DF-RHF iter  11:  -322.79765586842615   -1.46656e-09   2.07162e-08 DIIS
   @DF-RHF iter  12:  -322.79765586856155   -1.35401e-10   8.36955e-09 DIIS
   @DF-RHF iter  13:  -322.79765586857650   -1.49498e-11   2.11553e-09 DIIS
   @DF-RHF iter  14:  -322.79765586857815   -1.64846e-12   5.26142e-10 DIIS
   @DF-RHF iter  15:  -322.79765586857820   -5.68434e-14   2.43016e-10 DIIS
   @DF-RHF iter  16:  -322.79765586857820    0.00000e+00   8.46984e-11 DIIS
  Energy and wave function converged.


  ==> Post-Iterations <==

    Orbital Energies [Eh]
    ---------------------

    Doubly Occupied:                                                      

       1A    -20.563750     2A    -15.609886     3A    -11.269166  
       4A    -11.267961     5A    -11.261850     6A    -11.240740  
       7A    -11.212627     8A     -1.368439     9A     -1.293083  
      10A     -1.048074    11A     -0.987618    12A     -0.916426  
      13A     -0.804355    14A     -0.753538    15A     -0.737174  
      16A     -0.638170    17A     -0.634162    18A     -0.609537  
      19A     -0.587877    20A     -0.571242    21A     -0.569782  
      22A     -0.540168    23A     -0.483865    24A     -0.472194  
      25A     -0.341775    26A     -0.289761  

    Virtual:                                                              

      27A      0.025347    28A      0.033142    29A      0.036093  
      30A      0.049437    31A      0.050533    32A      0.053980  
      33A      0.073050    34A      0.083206    35A      0.085101  
      36A      0.101309    37A      0.110031    38A      0.111393  
      39A      0.117357    40A      0.122662    41A      0.126302  
      42A      0.131736    43A      0.136230    44A      0.142412  
      45A      0.146418    46A      0.150252    47A      0.155052  
      48A      0.163471    49A      0.165982    50A      0.172634  
      51A      0.187331    52A      0.194811    53A      0.199380  
      54A      0.206307    55A      0.222852    56A      0.236287  
      57A      0.236485    58A      0.246731    59A      0.253815  
      60A      0.260916    61A      0.265693    62A      0.272604  
      63A      0.274637    64A      0.290201    65A      0.296027  
      66A      0.305477    67A      0.314338    68A      0.315292  
      69A      0.322377    70A      0.328618    71A      0.336039  
      72A      0.336990    73A      0.349364    74A      0.349987  
      75A      0.353988    76A      0.355364    77A      0.363994  
      78A      0.378143    79A      0.386037    80A      0.388173  
      81A      0.404917    82A      0.408571    83A      0.409712  
      84A      0.411963    85A      0.412569    86A      0.422739  
      87A      0.438863    88A      0.441283    89A      0.455033  
      90A      0.456972    91A      0.462807    92A      0.466452  
      93A      0.468837    94A      0.477896    95A      0.483657  
      96A      0.490613    97A      0.490678    98A      0.500419  
      99A      0.509277   100A      0.509786   101A      0.520111  
     102A      0.531622   103A      0.535846   104A      0.539179  
     105A      0.546271   106A      0.551150   107A      0.555267  
     108A      0.564110   109A      0.568684   110A      0.577682  
     111A      0.587253   112A      0.592956   113A      0.614617  
     114A      0.630322   115A      0.632395   116A      0.643204  
     117A      0.667876   118A      0.670300   119A      0.683039  
     120A      0.693534   121A      0.703881   122A      0.711007  
     123A      0.720495   124A      0.722739   125A      0.747260  
     126A      0.761723   127A      0.762005   128A      0.772934  
     129A      0.781766   130A      0.805109   131A      0.810180  
     132A      0.814524   133A      0.821464   134A      0.825535  
     135A      0.828484   136A      0.841137   137A      0.859576  
     138A      0.871671   139A      0.887928   140A      0.892984  
     141A      0.894032   142A      0.905391   143A      0.909099  
     144A      0.914478   145A      0.925845   146A      0.948384  
     147A      0.949350   148A      0.958973   149A      0.969990  
     150A      0.976518   151A      0.977128   152A      0.982397  
     153A      0.986569   154A      1.006079   155A      1.006466  
     156A      1.011883   157A      1.022231   158A      1.023364  
     159A      1.040208   160A      1.043389   161A      1.054051  
     162A      1.059393   163A      1.071163   164A      1.075957  
     165A      1.079956   166A      1.085757   167A      1.087902  
     168A      1.091433   169A      1.095324   170A      1.109284  
     171A      1.121867   172A      1.132974   173A      1.138686  
     174A      1.161377   175A      1.163848   176A      1.164798  
     177A      1.181169   178A      1.182053   179A      1.183148  
     180A      1.197855   181A      1.210462   182A      1.214524  
     183A      1.224076   184A      1.233487   185A      1.234759  
     186A      1.246938   187A      1.253696   188A      1.257191  
     189A      1.258296   190A      1.273431   191A      1.304637  
     192A      1.319694   193A      1.324952   194A      1.329181  
     195A      1.336082   196A      1.341186   197A      1.352287  
     198A      1.386562   199A      1.397877   200A      1.404672  
     201A      1.415203   202A      1.422176   203A      1.435082  
     204A      1.455907   205A      1.455937   206A      1.464064  
     207A      1.505122   208A      1.507941   209A      1.519569  
     210A      1.526157   211A      1.529384   212A      1.547786  
     213A      1.550934   214A      1.561564   215A      1.597713  
     216A      1.607037   217A      1.614494   218A      1.618168  
     219A      1.628572   220A      1.645216   221A      1.651472  
     222A      1.658280   223A      1.667943   224A      1.683992  
     225A      1.686407   226A      1.709103   227A      1.720947  
     228A      1.732965   229A      1.747702   230A      1.759448  
     231A      1.773589   232A      1.790170   233A      1.812518  
     234A      1.815025   235A      1.834860   236A      1.838813  
     237A      1.839874   238A      1.845486   239A      1.868626  
     240A      1.872112   241A      1.886657   242A      1.911299  
     243A      1.921620   244A      1.960305   245A      1.972036  
     246A      1.983927   247A      1.985719   248A      1.999748  
     249A      2.014169   250A      2.020624   251A      2.031110  
     252A      2.036282   253A      2.060782   254A      2.075563  
     255A      2.081240   256A      2.088317   257A      2.116898  
     258A      2.142461   259A      2.142848   260A      2.158855  
     261A      2.176724   262A      2.197787   263A      2.201552  
     264A      2.211123   265A      2.214968   266A      2.241802  
     267A      2.245784   268A      2.250779   269A      2.271627  
     270A      2.284052   271A      2.339709   272A      2.340403  
     273A      2.374547   274A      2.419851   275A      2.424194  
     276A      2.453481   277A      2.462305   278A      2.479256  
     279A      2.487614   280A      2.526005   281A      2.555775  
     282A      2.570273   283A      2.598583   284A      2.602925  
     285A      2.653770   286A      2.671600   287A      2.685737  
     288A      2.689821   289A      2.714033   290A      2.724859  
     291A      2.750688   292A      2.769657   293A      2.817464  
     294A      2.817485   295A      2.850313   296A      2.882410  
     297A      2.956817   298A      2.962777   299A      3.000388  
     300A      3.024910   301A      3.049226   302A      3.054750  
     303A      3.118134   304A      3.143626   305A      3.153488  
     306A      3.238159   307A      3.244347   308A      3.257321  
     309A      3.280261   310A      3.358362   311A      3.368476  
     312A      3.399782   313A      3.405974   314A      3.423819  
     315A      3.426934   316A      3.434085   317A      3.440617  
     318A      3.457739   319A      3.476914   320A      3.494232  
     321A      3.532136   322A      3.556068   323A      3.565064  
     324A      3.577165   325A      3.592351   326A      3.614306  
     327A      3.629680   328A      3.655160   329A      3.661430  
     330A      3.665314   331A      3.680677   332A      3.700351  
     333A      3.725699   334A      3.762563   335A      3.774945  
     336A      3.786498   337A      3.793595   338A      3.808639  
     339A      3.826093   340A      3.839801   341A      3.863720  
     342A      3.866649   343A      3.875196   344A      3.888832  
     345A      3.905002   346A      3.924403   347A      3.925905  
     348A      3.940643   349A      3.976736   350A      3.992846  
     351A      4.001078   352A      4.020792   353A      4.035657  
     354A      4.038976   355A      4.060639   356A      4.094579  
     357A      4.096372   358A      4.120979   359A      4.138471  
     360A      4.145634   361A      4.161509   362A      4.178696  
     363A      4.193793   364A      4.207577   365A      4.225119  
     366A      4.235431   367A      4.251197   368A      4.278911  
     369A      4.286802   370A      4.310464   371A      4.312292  
     372A      4.327674   373A      4.337203   374A      4.346602  
     375A      4.374072   376A      4.381072   377A      4.410872  
     378A      4.426923   379A      4.441062   380A      4.443127  
     381A      4.449955   382A      4.508556   383A      4.524077  
     384A      4.549413   385A      4.554893   386A      4.561033  
     387A      4.600763   388A      4.619212   389A      4.634072  
     390A      4.656170   391A      4.672918   392A      4.733449  
     393A      4.743685   394A      4.779634   395A      4.796054  
     396A      4.814664   397A      4.819444   398A      4.832748  
     399A      4.865187   400A      4.867437   401A      4.915826  
     402A      4.916440   403A      4.959120   404A      4.960433  
     405A      4.985151   406A      5.017560   407A      5.044777  
     408A      5.050492   409A      5.062435   410A      5.088004  
     411A      5.098036   412A      5.106070   413A      5.158979  
     414A      5.165066   415A      5.171229   416A      5.184569  
     417A      5.196522   418A      5.250913   419A      5.297768  
     420A      5.313655   421A      5.378195   422A      5.392849  
     423A      5.408601   424A      5.430534   425A      5.441140  
     426A      5.519860   427A      5.548847   428A      5.572337  
     429A      5.591632   430A      5.597810   431A      5.610221  
     432A      5.661174   433A      5.672102   434A      5.693792  
     435A      5.718501   436A      5.746634   437A      5.801169  
     438A      5.817523   439A      5.853471   440A      5.870523  
     441A      5.985610   442A      6.038543   443A      6.074514  
     444A      6.115129   445A      6.117134   446A      6.151925  
     447A      6.182001   448A      6.226556   449A      6.241247  
     450A      6.332198   451A      6.404354   452A      6.473698  
     453A      6.529361   454A      6.572435   455A      6.667736  
     456A      6.684064   457A      6.774062   458A      6.794118  
     459A      6.839817   460A      6.940902   461A      6.970221  
     462A      7.026067   463A      7.068526   464A      7.151013  
     465A      7.171380   466A      7.189890   467A      7.295911  
     468A      7.420721   469A      7.551817   470A      7.586756  
     471A      7.738443   472A      7.793262   473A      7.903995  
     474A      7.915472   475A      8.422690   476A      8.531289  
     477A     15.874210   478A     16.310224   479A     17.434050  
     480A     18.220494   481A     18.575145   482A     19.127599  
     483A     19.825732  

    Final Occupation by Irrep:
              A 
    DOCC [    26 ]

  @DF-RHF Final Energy:  -322.79765586857820

   => Energetics <=

    Nuclear Repulsion Energy =            292.3816243347255295
    One-Electron Energy =               -1018.2121235831928061
    Two-Electron Energy =                 403.0328433798890728
    Total Energy =                       -322.7976558685782038

Computation Completed

*** tstop() called on c446-101.stampede2.tacc.utexas.edu at Sat Mar 20 04:42:56 2021
Module time:
	user time   =     298.01 seconds =       4.97 minutes
	system time =      26.05 seconds =       0.43 minutes
	total time  =         19 seconds =       0.32 minutes
Total time:
	user time   =     298.01 seconds =       4.97 minutes
	system time =      26.05 seconds =       0.43 minutes
	total time  =         19 seconds =       0.32 minutes
   => Loading Basis Set <=

    Name: (AUG-CC-PVTZ AUX)
    Role: RIFIT
    Keyword: DF_BASIS_MP2
    atoms 1    entry O          line   264 file /home1/07844/xy3866/miniconda3/envs/p4env/share/psi4/basis/aug-cc-pvtz-ri.gbs 
    atoms 2    entry N          line   206 file /home1/07844/xy3866/miniconda3/envs/p4env/share/psi4/basis/aug-cc-pvtz-ri.gbs 
    atoms 3-7  entry C          line   148 file /home1/07844/xy3866/miniconda3/envs/p4env/share/psi4/basis/aug-cc-pvtz-ri.gbs 
    atoms 8-14 entry H          line    30 file /home1/07844/xy3866/miniconda3/envs/p4env/share/psi4/basis/aug-cc-pvtz-ri.gbs 


*** tstart() called on c446-101.stampede2.tacc.utexas.edu
*** at Sat Mar 20 04:42:56 2021


  //>>>>>>>>>>>>>>>>>>>>>>>>>>>>>>>>>>>//
  //               DFMP2               //
  //<<<<<<<<<<<<<<<<<<<<<<<<<<<<<<<<<<<//

	 --------------------------------------------------------
	                          DF-MP2                         
	      2nd-Order Density-Fitted Moller-Plesset Theory     
	              RMP2 Wavefunction,  32 Threads             
	                                                         
	        Rob Parrish, Justin Turney, Andy Simmonett,      
	           Ed Hohenstein, and C. David Sherrill          
	 --------------------------------------------------------

   => Auxiliary Basis Set <=

  Basis Set: (AUG-CC-PVTZ AUX)
    Blend: AUG-CC-PVTZ-RI
    Number of shells: 294
    Number of basis functions: 1064
    Number of Cartesian functions: 1337
    Spherical Harmonics?: true
    Max angular momentum: 4

	 --------------------------------------------------------
	                 NBF =   483, NAUX =  1064
	 --------------------------------------------------------
	   CLASS    FOCC     OCC    AOCC    AVIR     VIR    FVIR
	   PAIRS       0      26      26     457     457       0
	 --------------------------------------------------------

  DFHelper Memory: AOs need 1.877 GiB; user supplied 22.352 GiB. Using in-core AOs.


         ------------------------------------------------------------
                                     CPHF                           
                                  Rob Parrish                       
         ------------------------------------------------------------

  ==> Geometry <==

    Molecular point group: c1
    Full point group: C1

    Geometry (in Angstrom), charge = 0, multiplicity = 1:

       Center              X                  Y                   Z               Mass       
    ------------   -----------------  -----------------  -----------------  -----------------
         O           -1.550676559226    -0.685511672634     0.000060426690    15.994914619570
         N            1.960665440774    -0.340591672634    -0.000052573310    14.003074004430
         C           -0.204001259226    -0.227047772634     0.000013826690    12.000000000000
         C            0.825495440774    -1.116713672634    -0.000025573310    12.000000000000
         C            0.250975440774     1.084376327366     0.000011426690    12.000000000000
         C            1.634581440774     0.988050327366    -0.000036573310    12.000000000000
         C           -2.518060559226     0.356379327366     0.000025426690    12.000000000000
         H            0.855603440774    -2.195867672634    -0.000039573310     1.007825032230
         H           -0.312035559226     2.006915327366     0.000036426690     1.007825032230
         H            2.903137440774    -0.705128672634    -0.000093573310     1.007825032230
         H            2.395034440774     1.756108327366    -0.000048573310     1.007825032230
         H           -3.489271559226    -0.138588672634     0.000043426690     1.007825032230
         H           -2.426594559226     0.984465327366    -0.893738573310     1.007825032230
         H           -2.426595559226     0.984524327366     0.893748426690     1.007825032230

  Nuclear repulsion =  292.381624334725586
  Reference energy  = -322.797655868578204

  ==> Basis Set <==

  Basis Set: AUG-CC-PVTZ
    Blend: AUG-CC-PVTZ
    Number of shells: 161
    Number of basis functions: 483
    Number of Cartesian functions: 560
    Spherical Harmonics?: true
    Max angular momentum: 3

  ==> CGRSolver (by Rob Parrish) <==

   Number of roots    =         1
   Preconditioning    =    JACOBI
   Convergence cutoff =     1E-06
   Maximum iterations =       100

  ==> CPHFRHamiltonian (by Rob Parrish) <== 

  ==> MemDFJK: Density-Fitted J/K Matrices <==

    J tasked:                   Yes
    K tasked:                   Yes
    wK tasked:                   No
    OpenMP threads:              32
    Memory [MiB]:             22888
    Algorithm:                 Core
    Schwarz Cutoff:           1E-12
    Mask sparsity (%):       3.2492
    Fitting Condition:        1E-10

   => Auxiliary Basis Set <=

  Basis Set: (AUG-CC-PVTZ AUX)
    Blend: AUG-CC-PVTZ-JKFIT
    Number of shells: 308
    Number of basis functions: 1050
    Number of Cartesian functions: 1302
    Spherical Harmonics?: true
    Max angular momentum: 4

  ==> CPHF Iterations <==

  => Iterations <=

             Iter  Converged  Remaining    Residual
  CGR           1          0          1   9.743E-02
  CGR           2          0          1   3.270E-02
  CGR           3          0          1   1.768E-02
  CGR           4          0          1   5.313E-03
  CGR           5          0          1   1.563E-03
  CGR           6          0          1   5.910E-04
  CGR           7          0          1   1.947E-04
  CGR           8          0          1   7.400E-05
  CGR           9          0          1   3.341E-05
  CGR          10          0          1   1.403E-05
  CGR          11          0          1   4.723E-06
  CGR          12          0          1   1.448E-06
  CGR          13          1          0   4.333E-07

    CGRSolver converged.

	-----------------------------------------------------------
	 ==================> DF-MP2 Energies <==================== 
	-----------------------------------------------------------
	 Reference Energy          =    -322.7976558685782038 [Eh]
	 Singles Energy            =      -0.0000000000000000 [Eh]
	 Same-Spin Energy          =      -0.3398490523233615 [Eh]
	 Opposite-Spin Energy      =      -1.0640517162898731 [Eh]
	 Correlation Energy        =      -1.4039007686132345 [Eh]
	 Total Energy              =    -324.2015566371914588 [Eh]
	-----------------------------------------------------------
	 ================> DF-SCS-MP2 Energies <================== 
	-----------------------------------------------------------
	 SCS Same-Spin Scale       =       0.3333333333333333 [-]
	 SCS Opposite-Spin Scale   =       1.2000000000000000 [-]
	 SCS Same-Spin Energy      =      -0.1132830174411205 [Eh]
	 SCS Opposite-Spin Energy  =      -1.2768620595478477 [Eh]
	 SCS Correlation Energy    =      -1.3901450769889683 [Eh]
	 SCS Total Energy          =    -324.1878009455671759 [Eh]
	-----------------------------------------------------------



Properties will be evaluated at   0.000000,  -0.000000,   0.000000 [a0]

Properties computed using the MP2 density matrix

  Nuclear Dipole Moment: [e a0]
     X:    -2.3575      Y:     2.5218      Z:    -0.0001

  Electronic Dipole Moment: [e a0]
     X:     3.0157      Y:    -2.2803      Z:     0.0000

  Dipole Moment: [e a0]
     X:     0.6582      Y:     0.2414      Z:    -0.0001     Total:     0.7011

  Dipole Moment: [D]
     X:     1.6731      Y:     0.6137      Z:    -0.0001     Total:     1.7821


*** tstop() called on c446-101.stampede2.tacc.utexas.edu at Sat Mar 20 04:44:35 2021
Module time:
	user time   =     747.67 seconds =      12.46 minutes
	system time =      31.36 seconds =       0.52 minutes
	total time  =         99 seconds =       1.65 minutes
Total time:
	user time   =    1046.38 seconds =      17.44 minutes
	system time =      57.43 seconds =       0.96 minutes
	total time  =        118 seconds =       1.97 minutes

    Psi4 stopped on: Saturday, 20 March 2021 04:44AM
    Psi4 wall time for execution: 0:01:58.79

*** Psi4 exiting successfully. Buy a developer a beer!
