012_Pentane Gaussian SP Calculation on node142.bme.utexas.edu           
Freq      RMP2-FC                                                     6-31G(d)            
Number of atoms                            I               17
Info1-9                                    I   N=           9
          28          27        1002           0           0         100
           6           2           1
Charge                                     I                0
Multiplicity                               I                1
Number of electrons                        I               42
Number of alpha electrons                  I               21
Number of beta electrons                   I               21
Number of basis functions                  I               99
Number of independent functions            I               99
Number of point charges in /Mol/           I                0
Number of translation vectors              I                0
Atomic numbers                             I   N=          17
           6           1           1           1           6           1
           1           6           1           1           6           1
           1           6           1           1           1
Nuclear charges                            R   N=          17
  6.00000000E+00  1.00000000E+00  1.00000000E+00  1.00000000E+00  6.00000000E+00
  1.00000000E+00  1.00000000E+00  6.00000000E+00  1.00000000E+00  1.00000000E+00
  6.00000000E+00  1.00000000E+00  1.00000000E+00  6.00000000E+00  1.00000000E+00
  1.00000000E+00  1.00000000E+00
Current cartesian coordinates              R   N=          51
  4.80635420E+00 -6.15808033E-01  3.71337515E-06  4.87532969E+00 -1.83313591E+00
  1.67061425E+00  4.87526986E+00 -1.83326889E+00 -1.67051269E+00  6.50748655E+00
  5.59000311E-01 -7.39192638E-05  2.41120782E+00  9.91562760E-01 -2.28034309E-05
  2.40739041E+00  2.23516746E+00 -1.65923526E+00  2.40738269E+00  2.23520788E+00
  1.65915993E+00 -3.27894696E-06 -5.92914957E-01 -9.51641393E-06 -2.06823804E-05
 -1.83911353E+00 -1.66056791E+00  3.31818016E-07 -1.83911874E+00  1.66054598E+00
 -2.41119665E+00  9.91590952E-01  6.56571604E-06 -2.40737374E+00  2.23521587E+00
 -1.65919194E+00 -2.40734965E+00  2.23521438E+00  1.65920443E+00 -4.80636123E+00
 -6.15754423E-01  2.05162709E-05 -4.87533348E+00 -1.83311802E+00  1.67060491E+00
 -6.50748102E+00  5.59071671E-01 -1.78903474E-05 -4.87530611E+00 -1.83318026E+00
 -1.67052074E+00
Force Field                                I                0
Int Atom Types                             I   N=          17
           0           0           0           0           0           0
           0           0           0           0           0           0
           0           0           0           0           0
MM charges                                 R   N=          17
  0.00000000E+00  0.00000000E+00  0.00000000E+00  0.00000000E+00  0.00000000E+00
  0.00000000E+00  0.00000000E+00  0.00000000E+00  0.00000000E+00  0.00000000E+00
  0.00000000E+00  0.00000000E+00  0.00000000E+00  0.00000000E+00  0.00000000E+00
  0.00000000E+00  0.00000000E+00
Integer atomic weights                     I   N=          17
          12           1           1           1          12           1
           1          12           1           1          12           1
           1          12           1           1           1
Real atomic weights                        R   N=          17
  1.20000000E+01  1.00782504E+00  1.00782504E+00  1.00782504E+00  1.20000000E+01
  1.00782504E+00  1.00782504E+00  1.20000000E+01  1.00782504E+00  1.00782504E+00
  1.20000000E+01  1.00782504E+00  1.00782504E+00  1.20000000E+01  1.00782504E+00
  1.00782504E+00  1.00782504E+00
Atom fragment info                         I   N=          17
           0           0           0           0           0           0
           0           0           0           0           0           0
           0           0           0           0           0
Atom residue num                           I   N=          17
           0           0           0           0           0           0
           0           0           0           0           0           0
           0           0           0           0           0
Nuclear spins                              I   N=          17
           0           1           1           1           0           1
           1           0           1           1           0           1
           1           0           1           1           1
Nuclear ZEff                               R   N=          17
 -3.60000000E+00 -1.00000000E+00 -1.00000000E+00 -1.00000000E+00 -3.60000000E+00
 -1.00000000E+00 -1.00000000E+00 -3.60000000E+00 -1.00000000E+00 -1.00000000E+00
 -3.60000000E+00 -1.00000000E+00 -1.00000000E+00 -3.60000000E+00 -1.00000000E+00
 -1.00000000E+00 -1.00000000E+00
Nuclear QMom                               R   N=          17
  0.00000000E+00  0.00000000E+00  0.00000000E+00  0.00000000E+00  0.00000000E+00
  0.00000000E+00  0.00000000E+00  0.00000000E+00  0.00000000E+00  0.00000000E+00
  0.00000000E+00  0.00000000E+00  0.00000000E+00  0.00000000E+00  0.00000000E+00
  0.00000000E+00  0.00000000E+00
Nuclear GFac                               R   N=          17
  0.00000000E+00  2.79284600E+00  2.79284600E+00  2.79284600E+00  0.00000000E+00
  2.79284600E+00  2.79284600E+00  0.00000000E+00  2.79284600E+00  2.79284600E+00
  0.00000000E+00  2.79284600E+00  2.79284600E+00  0.00000000E+00  2.79284600E+00
  2.79284600E+00  2.79284600E+00
MicOpt                                     I   N=          17
          -1          -1          -1          -1          -1          -1
          -1          -1          -1          -1          -1          -1
          -1          -1          -1          -1          -1
Number of contracted shells                I               44
Number of primitive shells                 I              103
Pure/Cartesian d shells                    I                1
Pure/Cartesian f shells                    I                0
Highest angular momentum                   I                2
Largest degree of contraction              I                6
Shell types                                I   N=          44
           0          -1          -1           2           0           0
           0           0           0           0           0          -1
          -1           2           0           0           0           0
           0          -1          -1           2           0           0
           0           0           0          -1          -1           2
           0           0           0           0           0          -1
          -1           2           0           0           0           0
           0           0
Number of primitives per shell             I   N=          44
           6           3           1           1           3           1
           3           1           3           1           6           3
           1           1           3           1           3           1
           6           3           1           1           3           1
           3           1           6           3           1           1
           3           1           3           1           6           3
           1           1           3           1           3           1
           3           1
Shell to atom map                          I   N=          44
           1           1           1           1           2           2
           3           3           4           4           5           5
           5           5           6           6           7           7
           8           8           8           8           9           9
          10          10          11          11          11          11
          12          12          13          13          14          14
          14          14          15          15          16          16
          17          17
Primitive exponents                        R   N=         103
  3.04752488E+03  4.57369518E+02  1.03948685E+02  2.92101553E+01  9.28666296E+00
  3.16392696E+00  7.86827235E+00  1.88128854E+00  5.44249258E-01  1.68714478E-01
  8.00000000E-01  1.87311370E+01  2.82539436E+00  6.40121692E-01  1.61277759E-01
  1.87311370E+01  2.82539436E+00  6.40121692E-01  1.61277759E-01  1.87311370E+01
  2.82539436E+00  6.40121692E-01  1.61277759E-01  3.04752488E+03  4.57369518E+02
  1.03948685E+02  2.92101553E+01  9.28666296E+00  3.16392696E+00  7.86827235E+00
  1.88128854E+00  5.44249258E-01  1.68714478E-01  8.00000000E-01  1.87311370E+01
  2.82539436E+00  6.40121692E-01  1.61277759E-01  1.87311370E+01  2.82539436E+00
  6.40121692E-01  1.61277759E-01  3.04752488E+03  4.57369518E+02  1.03948685E+02
  2.92101553E+01  9.28666296E+00  3.16392696E+00  7.86827235E+00  1.88128854E+00
  5.44249258E-01  1.68714478E-01  8.00000000E-01  1.87311370E+01  2.82539436E+00
  6.40121692E-01  1.61277759E-01  1.87311370E+01  2.82539436E+00  6.40121692E-01
  1.61277759E-01  3.04752488E+03  4.57369518E+02  1.03948685E+02  2.92101553E+01
  9.28666296E+00  3.16392696E+00  7.86827235E+00  1.88128854E+00  5.44249258E-01
  1.68714478E-01  8.00000000E-01  1.87311370E+01  2.82539436E+00  6.40121692E-01
  1.61277759E-01  1.87311370E+01  2.82539436E+00  6.40121692E-01  1.61277759E-01
  3.04752488E+03  4.57369518E+02  1.03948685E+02  2.92101553E+01  9.28666296E+00
  3.16392696E+00  7.86827235E+00  1.88128854E+00  5.44249258E-01  1.68714478E-01
  8.00000000E-01  1.87311370E+01  2.82539436E+00  6.40121692E-01  1.61277759E-01
  1.87311370E+01  2.82539436E+00  6.40121692E-01  1.61277759E-01  1.87311370E+01
  2.82539436E+00  6.40121692E-01  1.61277759E-01
Contraction coefficients                   R   N=         103
  1.83473713E-03  1.40373228E-02  6.88426223E-02  2.32184443E-01  4.67941348E-01
  3.62311985E-01 -1.19332420E-01 -1.60854152E-01  1.14345644E+00  1.00000000E+00
  1.00000000E+00  3.34946043E-02  2.34726953E-01  8.13757326E-01  1.00000000E+00
  3.34946043E-02  2.34726953E-01  8.13757326E-01  1.00000000E+00  3.34946043E-02
  2.34726953E-01  8.13757326E-01  1.00000000E+00  1.83473713E-03  1.40373228E-02
  6.88426223E-02  2.32184443E-01  4.67941348E-01  3.62311985E-01 -1.19332420E-01
 -1.60854152E-01  1.14345644E+00  1.00000000E+00  1.00000000E+00  3.34946043E-02
  2.34726953E-01  8.13757326E-01  1.00000000E+00  3.34946043E-02  2.34726953E-01
  8.13757326E-01  1.00000000E+00  1.83473713E-03  1.40373228E-02  6.88426223E-02
  2.32184443E-01  4.67941348E-01  3.62311985E-01 -1.19332420E-01 -1.60854152E-01
  1.14345644E+00  1.00000000E+00  1.00000000E+00  3.34946043E-02  2.34726953E-01
  8.13757326E-01  1.00000000E+00  3.34946043E-02  2.34726953E-01  8.13757326E-01
  1.00000000E+00  1.83473713E-03  1.40373228E-02  6.88426223E-02  2.32184443E-01
  4.67941348E-01  3.62311985E-01 -1.19332420E-01 -1.60854152E-01  1.14345644E+00
  1.00000000E+00  1.00000000E+00  3.34946043E-02  2.34726953E-01  8.13757326E-01
  1.00000000E+00  3.34946043E-02  2.34726953E-01  8.13757326E-01  1.00000000E+00
  1.83473713E-03  1.40373228E-02  6.88426223E-02  2.32184443E-01  4.67941348E-01
  3.62311985E-01 -1.19332420E-01 -1.60854152E-01  1.14345644E+00  1.00000000E+00
  1.00000000E+00  3.34946043E-02  2.34726953E-01  8.13757326E-01  1.00000000E+00
  3.34946043E-02  2.34726953E-01  8.13757326E-01  1.00000000E+00  3.34946043E-02
  2.34726953E-01  8.13757326E-01  1.00000000E+00
P(S=P) Contraction coefficients            R   N=         103
  0.00000000E+00  0.00000000E+00  0.00000000E+00  0.00000000E+00  0.00000000E+00
  0.00000000E+00  6.89990666E-02  3.16423961E-01  7.44308291E-01  1.00000000E+00
  0.00000000E+00  0.00000000E+00  0.00000000E+00  0.00000000E+00  0.00000000E+00
  0.00000000E+00  0.00000000E+00  0.00000000E+00  0.00000000E+00  0.00000000E+00
  0.00000000E+00  0.00000000E+00  0.00000000E+00  0.00000000E+00  0.00000000E+00
  0.00000000E+00  0.00000000E+00  0.00000000E+00  0.00000000E+00  6.89990666E-02
  3.16423961E-01  7.44308291E-01  1.00000000E+00  0.00000000E+00  0.00000000E+00
  0.00000000E+00  0.00000000E+00  0.00000000E+00  0.00000000E+00  0.00000000E+00
  0.00000000E+00  0.00000000E+00  0.00000000E+00  0.00000000E+00  0.00000000E+00
  0.00000000E+00  0.00000000E+00  0.00000000E+00  6.89990666E-02  3.16423961E-01
  7.44308291E-01  1.00000000E+00  0.00000000E+00  0.00000000E+00  0.00000000E+00
  0.00000000E+00  0.00000000E+00  0.00000000E+00  0.00000000E+00  0.00000000E+00
  0.00000000E+00  0.00000000E+00  0.00000000E+00  0.00000000E+00  0.00000000E+00
  0.00000000E+00  0.00000000E+00  6.89990666E-02  3.16423961E-01  7.44308291E-01
  1.00000000E+00  0.00000000E+00  0.00000000E+00  0.00000000E+00  0.00000000E+00
  0.00000000E+00  0.00000000E+00  0.00000000E+00  0.00000000E+00  0.00000000E+00
  0.00000000E+00  0.00000000E+00  0.00000000E+00  0.00000000E+00  0.00000000E+00
  0.00000000E+00  6.89990666E-02  3.16423961E-01  7.44308291E-01  1.00000000E+00
  0.00000000E+00  0.00000000E+00  0.00000000E+00  0.00000000E+00  0.00000000E+00
  0.00000000E+00  0.00000000E+00  0.00000000E+00  0.00000000E+00  0.00000000E+00
  0.00000000E+00  0.00000000E+00  0.00000000E+00
Coordinates of each shell                  R   N=         132
  4.80635763E+00 -6.15781186E-01  3.71337515E-06  4.80635763E+00 -6.15781186E-01
  3.71337515E-06  4.80635763E+00 -6.15781186E-01  3.71337515E-06  4.80635763E+00
 -6.15781186E-01  3.71337515E-06  4.87533993E+00 -1.83310868E+00  1.67061425E+00
  4.87533993E+00 -1.83310868E+00  1.67061425E+00  4.87528010E+00 -1.83324166E+00
 -1.67051269E+00  4.87528010E+00 -1.83324166E+00 -1.67051269E+00  6.50748343E+00
  5.59036660E-01 -7.39192638E-05  6.50748343E+00  5.59036660E-01 -7.39192638E-05
  2.41120228E+00  9.91576228E-01 -2.28034309E-05  2.41120228E+00  9.91576228E-01
 -2.28034309E-05  2.41120228E+00  9.91576228E-01 -2.28034309E-05  2.41120228E+00
  9.91576228E-01 -2.28034309E-05  2.40737793E+00  2.23518090E+00 -1.65923526E+00
  2.40737793E+00  2.23518090E+00 -1.65923526E+00  2.40737020E+00  2.23522132E+00
  1.65915993E+00  2.40737020E+00  2.23522132E+00  1.65915993E+00  3.28361763E-08
 -5.92914957E-01 -9.51641393E-06  3.28361763E-08 -5.92914957E-01 -9.51641393E-06
  3.28361763E-08 -5.92914957E-01 -9.51641393E-06  3.28361763E-08 -5.92914957E-01
 -9.51641393E-06 -1.04098361E-05 -1.83911353E+00 -1.66056791E+00 -1.04098361E-05
 -1.83911353E+00 -1.66056791E+00  1.06043914E-05 -1.83911874E+00  1.66054598E+00
  1.06043914E-05 -1.83911874E+00  1.66054598E+00 -2.41120218E+00  9.91577484E-01
  6.56571604E-06 -2.41120218E+00  9.91577484E-01  6.56571604E-06 -2.41120218E+00
  9.91577484E-01  6.56571604E-06 -2.41120218E+00  9.91577484E-01  6.56571604E-06
 -2.40738622E+00  2.23520242E+00 -1.65919194E+00 -2.40738622E+00  2.23520242E+00
 -1.65919194E+00 -2.40736214E+00  2.23520094E+00  1.65920443E+00 -2.40736214E+00
  2.23520094E+00  1.65920443E+00 -4.80635779E+00 -6.15781270E-01  2.05162709E-05
 -4.80635779E+00 -6.15781270E-01  2.05162709E-05 -4.80635779E+00 -6.15781270E-01
  2.05162709E-05 -4.80635779E+00 -6.15781270E-01  2.05162709E-05 -4.87532324E+00
 -1.83314525E+00  1.67060491E+00 -4.87532324E+00 -1.83314525E+00  1.67060491E+00
 -6.50748414E+00  5.59035323E-01 -1.78903474E-05 -6.50748414E+00  5.59035323E-01
 -1.78903474E-05 -4.87529587E+00 -1.83320749E+00 -1.67052074E+00 -4.87529587E+00
 -1.83320749E+00 -1.67052074E+00
Constraint Structure                       R   N=          51
  4.80635763E+00 -6.15781186E-01  3.71337515E-06  4.87533993E+00 -1.83310868E+00
  1.67061425E+00  4.87528010E+00 -1.83324166E+00 -1.67051269E+00  6.50748343E+00
  5.59036660E-01 -7.39192638E-05  2.41120228E+00  9.91576228E-01 -2.28034309E-05
  2.40737793E+00  2.23518090E+00 -1.65923526E+00  2.40737020E+00  2.23522132E+00
  1.65915993E+00  3.28361763E-08 -5.92914957E-01 -9.51641393E-06 -1.04098361E-05
 -1.83911353E+00 -1.66056791E+00  1.06043914E-05 -1.83911874E+00  1.66054598E+00
 -2.41120218E+00  9.91577484E-01  6.56571604E-06 -2.40738622E+00  2.23520242E+00
 -1.65919194E+00 -2.40736214E+00  2.23520094E+00  1.65920443E+00 -4.80635779E+00
 -6.15781270E-01  2.05162709E-05 -4.87532324E+00 -1.83314525E+00  1.67060491E+00
 -6.50748414E+00  5.59035323E-01 -1.78903474E-05 -4.87529587E+00 -1.83320749E+00
 -1.67052074E+00
Num ILSW                                   I              100
ILSW                                       I   N=         100
           0           1           0           0           2           0
           0           0           0           0           0          -1
           0           0           0           0           0           0
           0           0           0           0           1           0
           1           0           0           0           0           0
           0           0      100000           0          -1           0
           0           0           0           0           0           0
           0           0           0           1           1           0
           0           0           1           0           0           0
           0           0           4          40           0           0
           0           0           0           0           0           0
           0           0           0           0           0           0
           0           0           0           0           0           0
           0           0           0           0           0           0
           0           0           0           0           0           0
           0           0           0           0           0           0
           0           0           0           0
Num RLSW                                   I               40
RLSW                                       R   N=          40
  1.00000000E+00  1.00000000E+00  1.00000000E+00  1.00000000E+00  1.00000000E+00
  0.00000000E+00  0.00000000E+00  1.00000000E+00  0.00000000E+00  0.00000000E+00
  0.00000000E+00  0.00000000E+00  1.00000000E+00  0.00000000E+00  0.00000000E+00
  0.00000000E+00  0.00000000E+00  1.00000000E+00  0.00000000E+00  0.00000000E+00
  0.00000000E+00  0.00000000E+00  1.00000000E+00  0.00000000E+00  0.00000000E+00
  0.00000000E+00  0.00000000E+00  1.00000000E+00  0.00000000E+00  0.00000000E+00
  0.00000000E+00  0.00000000E+00  0.00000000E+00  0.00000000E+00  0.00000000E+00
  0.00000000E+00  0.00000000E+00  0.00000000E+00  1.00000000E+00  1.00000000E+00
MxBond                                     I                4
NBond                                      I   N=          17
           4           1           1           1           4           1
           1           4           1           1           4           1
           1           4           1           1           1
IBond                                      I   N=          68
           2           3           4           5           1           0
           0           0           1           0           0           0
           1           0           0           0           1           6
           7           8           5           0           0           0
           5           0           0           0           5           9
          10          11           8           0           0           0
           8           0           0           0           8          12
          13          14          11           0           0           0
          11           0           0           0          11          15
          16          17          14           0           0           0
          14           0           0           0          14           0
           0           0
RBond                                      R   N=          68
  1.00000000E+00  1.00000000E+00  1.00000000E+00  1.00000000E+00  1.00000000E+00
  0.00000000E+00  0.00000000E+00  0.00000000E+00  1.00000000E+00  0.00000000E+00
  0.00000000E+00  0.00000000E+00  1.00000000E+00  0.00000000E+00  0.00000000E+00
  0.00000000E+00  1.00000000E+00  1.00000000E+00  1.00000000E+00  1.00000000E+00
  1.00000000E+00  0.00000000E+00  0.00000000E+00  0.00000000E+00  1.00000000E+00
  0.00000000E+00  0.00000000E+00  0.00000000E+00  1.00000000E+00  1.00000000E+00
  1.00000000E+00  1.00000000E+00  1.00000000E+00  0.00000000E+00  0.00000000E+00
  0.00000000E+00  1.00000000E+00  0.00000000E+00  0.00000000E+00  0.00000000E+00
  1.00000000E+00  1.00000000E+00  1.00000000E+00  1.00000000E+00  1.00000000E+00
  0.00000000E+00  0.00000000E+00  0.00000000E+00  1.00000000E+00  0.00000000E+00
  0.00000000E+00  0.00000000E+00  1.00000000E+00  1.00000000E+00  1.00000000E+00
  1.00000000E+00  1.00000000E+00  0.00000000E+00  0.00000000E+00  0.00000000E+00
  1.00000000E+00  0.00000000E+00  0.00000000E+00  0.00000000E+00  1.00000000E+00
  0.00000000E+00  0.00000000E+00  0.00000000E+00
Virial Ratio                               R      2.001010944845954E+00
SCF Energy                                 R     -1.963324447476066E+02
MP2 Energy                                 R     -1.969917257300617E+02
Total Energy                               R     -1.969917257300617E+02
Post-SCF wavefunction norm                 R      1.562225600991719E+00
RMS Force                                  R      3.686699194593749E-07
RMS Density                                R      5.116056458622480E-10
External E-field                           R   N=          35
  0.00000000E+00  0.00000000E+00  0.00000000E+00  0.00000000E+00  0.00000000E+00
  0.00000000E+00  0.00000000E+00  0.00000000E+00  0.00000000E+00  0.00000000E+00
  0.00000000E+00  0.00000000E+00  0.00000000E+00  0.00000000E+00  0.00000000E+00
  0.00000000E+00  0.00000000E+00  0.00000000E+00  0.00000000E+00  0.00000000E+00
  0.00000000E+00  0.00000000E+00  0.00000000E+00  0.00000000E+00  0.00000000E+00
  0.00000000E+00  0.00000000E+00  0.00000000E+00  0.00000000E+00  0.00000000E+00
  0.00000000E+00  0.00000000E+00  0.00000000E+00  0.00000000E+00  0.00000000E+00
IOpCl                                      I                0
IROHF                                      I                0
Alpha Orbital Energies                     R   N=          99
 -1.12158238E+01 -1.12157525E+01 -1.12135882E+01 -1.12104407E+01 -1.12104393E+01
 -1.07930165E+00 -1.01388274E+00 -9.17834709E-01 -8.18578607E-01 -7.83258923E-01
 -6.45499484E-01 -5.96915882E-01 -5.91856742E-01 -5.52919862E-01 -5.46527977E-01
 -5.25414354E-01 -4.93768441E-01 -4.75216827E-01 -4.60878344E-01 -4.57568759E-01
 -4.46514773E-01  2.30101879E-01  2.50524923E-01  2.72352057E-01  2.78320408E-01
  3.01820683E-01  3.25292297E-01  3.27360139E-01  3.30844443E-01  3.45483514E-01
  3.51332092E-01  3.52649836E-01  3.63380602E-01  3.96066591E-01  4.27374918E-01
  4.52567238E-01  4.61994108E-01  6.90603926E-01  7.16917193E-01  7.17097116E-01
  7.50488123E-01  7.63071362E-01  8.07690702E-01  8.17169387E-01  8.90001999E-01
  9.23647045E-01  9.50570384E-01  9.68836631E-01  1.01574250E+00  1.05061299E+00
  1.09447350E+00  1.12157564E+00  1.16410029E+00  1.16637334E+00  1.17138791E+00
  1.19509792E+00  1.20267164E+00  1.20569961E+00  1.20920402E+00  1.21187735E+00
  1.21991880E+00  1.22327364E+00  1.26108087E+00  1.26198108E+00  1.34600134E+00
  1.58392809E+00  1.67910824E+00  1.68555814E+00  1.73185240E+00  1.74446587E+00
  1.84712042E+00  1.98029229E+00  2.08939452E+00  2.09089813E+00  2.21735369E+00
  2.22468066E+00  2.25898290E+00  2.29232506E+00  2.30775063E+00  2.32821965E+00
  2.33517167E+00  2.41392353E+00  2.55100091E+00  2.56449128E+00  2.62454501E+00
  2.65410131E+00  2.66518842E+00  2.74479749E+00  2.77356159E+00  2.77524428E+00
  2.92110572E+00  2.92985675E+00  3.09720490E+00  3.15059063E+00  4.55813258E+00
  4.64457823E+00  4.74834016E+00  4.84131662E+00  4.97425902E+00
Alpha MO coefficients                      R   N=        9801
  3.80042723E-02  1.00096296E-03 -2.27848749E-05  1.78370826E-05  6.22761393E-10
  2.93828235E-03 -1.42768402E-03  6.20753949E-04 -1.29817357E-08 -3.26329679E-04
 -3.07966032E-04 -1.73832027E-04  1.46960013E-04 -1.20762650E-09  4.02350101E-09
 -1.45497369E-04  1.32151834E-05 -1.45498934E-04  1.32091807E-05 -9.72718553E-05
  1.33337838E-04  6.89164104E-01  1.96881455E-02  6.83971692E-05 -6.64853365E-05
  1.37875063E-09 -1.14728928E-02 -2.03759982E-04  8.12640233E-04 -1.83150502E-08
 -1.22228681E-03 -1.19279476E-03 -1.12480719E-03 -5.24487479E-05 -5.05915303E-11
  1.58680901E-09  1.27412825E-04  1.68696529E-03  1.27412691E-04  1.68697408E-03
  1.92891288E-01  5.51584041E-03 -5.14386767E-08 -3.15180107E-05 -7.00299897E-10
  2.99496991E-03 -2.08767833E-06  1.59250622E-03  1.20860927E-08 -7.73042526E-04
 -6.97457080E-04 -4.59386902E-04  1.94238265E-07  2.63115973E-09  3.86168024E-10
 -1.62773542E-04  5.89647112E-04 -1.62771834E-04  5.89628718E-04  6.90280394E-01
  1.97202339E-02 -6.83251211E-05 -6.65106354E-05 -5.63474551E-10 -1.14922933E-02
  2.03003551E-04  8.13019842E-04  8.78623907E-10 -1.22408757E-03 -1.19457937E-03
 -1.12648073E-03  5.24645246E-05  3.75912114E-10  6.12470167E-10  1.27703118E-04
  1.69035916E-03  1.27702401E-04  1.69035582E-03  3.80664006E-02  1.00296060E-03
  2.29009582E-05  1.78157437E-05  5.17520470E-11  2.94101181E-03  1.42876620E-03
  6.21911497E-04 -9.17434706E-09 -3.26847278E-04 -3.08316920E-04 -1.73998294E-04
 -1.47230018E-04  2.98804695E-10  1.63168241E-09 -1.45601292E-04  1.34577273E-05
 -9.74103867E-05  1.33177132E-04 -1.45600907E-04  1.34505800E-05  3.95960244E-02
  1.27138860E-03 -7.29775121E-05 -1.36115095E-05  2.34827538E-09  1.71543164E-03
 -6.82725671E-04  7.29785586E-04 -2.72725237E-08 -3.27128515E-04 -2.22012206E-04
 -1.05558530E-04  1.70209742E-04 -3.50974263E-09  1.09716830E-09 -6.48028871E-05
  1.53889283E-04 -6.47988909E-05  1.53866326E-04 -8.72100732E-05 -1.00239301E-04
  7.03627144E-01  2.02279168E-02 -4.51771816E-05 -1.58055033E-05 -5.55766131E-10
 -1.22302283E-02  4.76977189E-04  2.38399131E-04  5.66542597E-09 -1.13529101E-03
 -1.12531113E-03 -1.05565400E-03 -1.00272838E-05  1.67125782E-09 -4.49282842E-10
  1.82884071E-04  2.13558583E-03  1.82884722E-04  2.13557567E-03  1.58303867E-04
  4.52678622E-06  6.43572055E-05 -2.50043640E-08 -1.32147620E-09  2.28103352E-06
  2.63164872E-03  1.25820300E-06 -1.08919892E-08 -6.21595051E-07 -5.61575698E-07
 -3.72604141E-07 -2.44591480E-04 -5.09461877E-10  1.53293603E-09 -1.27386024E-07
  4.85259237E-07 -1.28032913E-07  4.79782000E-07 -7.02533585E-01 -2.01966721E-02
 -4.52845486E-05  1.57005337E-05  6.60848078E-10  1.22120657E-02  4.77315485E-04
 -2.37124441E-04 -7.47554634E-09  1.13334773E-03  1.12341474E-03  1.05386706E-03
 -9.94190255E-06 -7.85456572E-10 -3.93364442E-10 -1.82684681E-04 -2.13289943E-03
 -1.82682131E-04 -2.13290574E-03 -3.95350742E-02 -1.26978353E-03 -7.29428253E-05
  1.36396430E-05 -1.68638232E-09 -1.71077684E-03 -6.80459659E-04 -7.28803340E-04
  1.63844608E-08  3.26609051E-04  2.21522238E-04  1.05280713E-04  1.69976116E-04
 -2.10385878E-09 -5.90859891E-10  6.45708038E-05 -1.53864748E-04  8.70558175E-05
  1.00454990E-04  6.45693730E-05 -1.53850358E-04 -1.51530488E-02 -6.08476331E-04
  1.07715539E-04  1.75288537E-05 -4.98469305E-09 -6.61029378E-06  1.09360312E-04
 -3.65785821E-04  3.24296257E-08  5.39887535E-05  4.55284391E-05 -4.71019946E-05
 -5.65348632E-07  1.64594866E-09 -9.43533699E-10  5.45093299E-06 -3.13073511E-04
  5.44704627E-06 -3.13039688E-04 -2.66359083E-06  2.07977506E-04 -1.36061043E-01
 -3.81521851E-03 -1.02748216E-04  2.45183614E-05 -1.04524169E-09  6.27034379E-03
 -1.63997678E-03 -1.16362756E-03  9.91284430E-09 -1.22500970E-04 -4.38406000E-05
  1.27679555E-04 -1.89891233E-04  9.55181912E-10  1.62053751E-09 -1.71760832E-04
 -3.01303796E-04 -1.71759768E-04 -3.01308831E-04  9.76953742E-01  2.79697948E-02
  2.25946670E-11  2.45129665E-05  5.21160640E-10 -1.83070325E-02 -1.59760334E-08
 -1.05779673E-03  2.15444599E-09 -1.47185151E-03 -1.50594530E-03 -1.49598072E-03
  1.58089604E-09 -5.87134521E-10  3.15309687E-10  2.75513006E-04  2.71424325E-03
  2.75513014E-04  2.71423722E-03 -1.36053602E-01 -3.81500377E-03  1.02749120E-04
  2.45181042E-05 -2.74722400E-10  6.27021146E-03  1.63996894E-03 -1.16362564E-03
 -1.75598027E-08 -1.22512829E-04 -4.38528614E-05  1.27668205E-04  1.89891377E-04
  2.54114776E-09 -1.26442668E-09 -1.71758602E-04 -3.01287078E-04 -1.71758294E-04
 -3.01279883E-04 -1.51524646E-02 -6.08457992E-04 -1.07714908E-04  1.75285774E-05
 -2.10574761E-09 -6.59582053E-06 -1.09352904E-04 -3.65779041E-04  1.74170265E-08
  5.39849612E-05  4.55256952E-05 -4.71033333E-05  5.63392049E-07 -1.18700996E-09
  5.19587150E-10  5.44928508E-06 -3.13062227E-04 -2.66438767E-06  2.07977095E-04
  5.44727959E-06 -3.13046567E-04 -6.95061264E-01 -1.98521488E-02  5.67719021E-05
  2.09202190E-05 -1.03161278E-09  1.08361279E-02 -6.77617658E-04  2.28703541E-04
  2.65976807E-09  1.25821951E-03  1.25976263E-03  1.24285617E-03 -2.48451686E-05
  9.38811779E-10  1.00041980E-09 -1.24094220E-04 -1.80761543E-03 -1.24097082E-04
 -1.80760677E-03 -8.86706594E-05 -1.63325184E-03  3.92740946E-02  9.48874897E-04
  6.94103958E-07 -2.15518904E-05  7.90117739E-10 -2.37053674E-03 -1.59920184E-03
  5.74916334E-04 -1.91575985E-08  1.83338812E-04  8.11763827E-05 -3.10445067E-05
 -8.89211402E-05  1.31823488E-09 -1.66155760E-09  6.26998156E-05  4.95603955E-05
  6.27002923E-05  4.95690113E-05  1.18217941E-04  6.30087644E-07  1.77896729E-04
  9.11672541E-07 -1.57192316E-09 -3.25943277E-06 -9.88116630E-04 -1.06814842E-05
  1.23855640E-08 -2.38939911E-07 -7.90274497E-07 -1.12086753E-06 -5.24292390E-05
 -1.91919211E-09  1.61113863E-09 -7.70671366E-07 -4.39206290E-06 -7.67492772E-07
 -4.41024493E-06 -4.01830224E-02 -9.75062020E-04  4.77795384E-07  2.16927753E-05
 -1.17566011E-09  2.45710981E-03 -1.61530128E-03 -5.92232325E-04  1.56697057E-08
 -1.87764753E-04 -8.44863350E-05  3.03454738E-05 -9.19224411E-05  9.08412767E-10
  1.06400537E-09 -6.56970170E-05 -5.16485861E-05 -6.56996979E-05 -5.16499689E-05
  7.10848222E-01  2.03025592E-02  5.73698967E-05 -2.14348631E-05  4.25455350E-10
 -1.10804206E-02 -6.90505399E-04 -2.31158127E-04 -2.62715367E-09 -1.28691746E-03