
    -----------------------------------------------------------------------
          Psi4: An Open-Source Ab Initio Electronic Structure Package
                               Psi4 1.3.2 release

                         Git: Rev {HEAD} ecbda83 


    R. M. Parrish, L. A. Burns, D. G. A. Smith, A. C. Simmonett,
    A. E. DePrince III, E. G. Hohenstein, U. Bozkaya, A. Yu. Sokolov,
    R. Di Remigio, R. M. Richard, J. F. Gonthier, A. M. James,
    H. R. McAlexander, A. Kumar, M. Saitow, X. Wang, B. P. Pritchard,
    P. Verma, H. F. Schaefer III, K. Patkowski, R. A. King, E. F. Valeev,
    F. A. Evangelista, J. M. Turney, T. D. Crawford, and C. D. Sherrill,
    J. Chem. Theory Comput. 13(7) pp 3185--3197 (2017).
    (doi: 10.1021/acs.jctc.7b00174)


                         Additional Contributions by
    P. Kraus, H. Kruse, M. H. Lechner, M. C. Schieber, R. A. Shaw,
    A. Alenaizan, R. Galvelis, Z. L. Glick, S. Lehtola, and J. P. Misiewicz

    -----------------------------------------------------------------------


    Psi4 started on: Tuesday, 17 November 2020 07:36PM

    Process ID: 37817
    Host:       node142.bme.utexas.edu
    PSIDATADIR: /home/xy3866/psi4conda/share/psi4
    Memory:     500.0 MiB
    Threads:    8
    
  ==> Input File <==

--------------------------------------------------------------------------
#psi4
#
memory 32 gb

molecule  {
0 1
  S       -0.7822307    -0.0006924    -0.4124130
  O       -1.0107130     0.9314480    -1.3993950
  O       -0.9666500    -1.4966470    -0.5970260
  N        0.8588360     0.0833010     0.0699440
  C        1.3822580     1.4387740     0.2709440
  C        1.4230980    -0.9933220     0.9046550
  C       -1.6975890     0.4015790     1.0774410
  C        2.8090910     1.5534440    -0.2422640
  C        2.2024570    -1.9997400     0.0750250
  C       -3.1888920     0.2878700     0.7901350
  H        0.7441850     2.1234290    -0.2885820
  H        1.3352270     1.7155400     1.3356310
  H        2.0636810    -0.5196560     1.6565250
  H        0.6239660    -1.5103280     1.4462590
  H       -1.4274687    -0.2305753     1.9275946
  H       -1.4092710     1.4273450     1.3241250
  H        3.4861350     0.8840910     0.2940530
  H        2.8396270     1.3037350    -1.3040650
  H        3.1732700     2.5763490    -0.1082090
  H        1.5321020    -2.4670540    -0.6475950
  H        3.0150810    -1.5100200    -0.4652590
  H        2.6275220    -2.7764500     0.7187370
  H       -3.7600990     0.5807950     1.6744350
  H       -3.4644480     0.9408190    -0.0387940
  H       -3.4474850    -0.7394320     0.5291400
units angstrom
no_reorient  #important for SAPT in psi4, default
symmetry c1  #important for SAPT in psi4, default
}

set PROPERTIES_ORIGIN ["COM"]
properties('MP2/aug-cc-pvtz', properties = ['dipole'])
--------------------------------------------------------------------------

  Memory set to  29.802 GiB by Python driver.
    SCF Algorithm Type (re)set to DF.

*** tstart() called on node142.bme.utexas.edu
*** at Tue Nov 17 19:36:46 2020

   => Loading Basis Set <=

    Name: AUG-CC-PVTZ
    Role: ORBITAL
    Keyword: BASIS
    atoms 1     entry S          line   902 file /home/xy3866/psi4conda/share/psi4/basis/aug-cc-pvtz.gbs 
    atoms 2-3   entry O          line   327 file /home/xy3866/psi4conda/share/psi4/basis/aug-cc-pvtz.gbs 
    atoms 4     entry N          line   281 file /home/xy3866/psi4conda/share/psi4/basis/aug-cc-pvtz.gbs 
    atoms 5-10  entry C          line   235 file /home/xy3866/psi4conda/share/psi4/basis/aug-cc-pvtz.gbs 
    atoms 11-25 entry H          line    36 file /home/xy3866/psi4conda/share/psi4/basis/aug-cc-pvtz.gbs 


         ---------------------------------------------------------
                                   SCF
               by Justin Turney, Rob Parrish, Andy Simmonett
                          and Daniel G. A. Smith
                              RHF Reference
                        8 Threads,  30517 MiB Core
         ---------------------------------------------------------

  ==> Geometry <==

    Molecular point group: c1
    Full point group: C1

    Geometry (in Angstrom), charge = 0, multiplicity = 1:

       Center              X                  Y                   Z               Mass       
    ------------   -----------------  -----------------  -----------------  -----------------
         S           -0.773436451181    -0.013897594653    -0.403262416388    31.972071174400
         O           -1.001918751181     0.918242805347    -1.390244416388    15.994914619570
         O           -0.957855751181    -1.509852194653    -0.587875416388    15.994914619570
         N            0.867630248819     0.070095805347     0.079094583612    14.003074004430
         C            1.391052248819     1.425568805347     0.280094583612    12.000000000000
         C            1.431892248819    -1.006527194653     0.913805583612    12.000000000000
         C           -1.688794751181     0.388373805347     1.086591583612    12.000000000000
         C            2.817885248819     1.540238805347    -0.233113416388    12.000000000000
         C            2.211251248819    -2.012945194653     0.084175583612    12.000000000000
         C           -3.180097751181     0.274664805347     0.799285583612    12.000000000000
         H            0.752979248819     2.110223805347    -0.279431416388     1.007825032230
         H            1.344021248819     1.702334805347     1.344781583612     1.007825032230
         H            2.072475248819    -0.532861194653     1.665675583612     1.007825032230
         H            0.632760248819    -1.523533194653     1.455409583612     1.007825032230
         H           -1.418674451181    -0.243780494653     1.936745183612     1.007825032230
         H           -1.400476751181     1.414139805347     1.333275583612     1.007825032230
         H            3.494929248819     0.870885805347     0.303203583612     1.007825032230
         H            2.848421248819     1.290529805347    -1.294914416388     1.007825032230
         H            3.182064248819     2.563143805347    -0.099058416388     1.007825032230
         H            1.540896248819    -2.480259194653    -0.638444416388     1.007825032230
         H            3.023875248819    -1.523225194653    -0.456108416388     1.007825032230
         H            2.636316248819    -2.789655194653     0.727887583612     1.007825032230
         H           -3.751304751181     0.567589805347     1.683585583612     1.007825032230
         H           -3.455653751181     0.927613805347    -0.029643416388     1.007825032230
         H           -3.438690751181    -0.752637194653     0.538290583612     1.007825032230

  Running in c1 symmetry.

  Rotational constants: A =      0.05634  B =      0.02768  C =      0.02331 [cm^-1]
  Rotational constants: A =   1688.96739  B =    829.83454  C =    698.67170 [MHz]
  Nuclear repulsion =  742.590088237785494

  Charge       = 0
  Multiplicity = 1
  Electrons    = 90
  Nalpha       = 45
  Nbeta        = 45

  ==> Algorithm <==

  SCF Algorithm Type is DF.
  DIIS enabled.
  MOM disabled.
  Fractional occupation disabled.
  Guess Type is SAD.
  Energy threshold   = 1.00e-10
  Density threshold  = 1.00e-10
  Integral threshold = 0.00e+00

  ==> Primary Basis <==

  Basis Set: AUG-CC-PVTZ
    Blend: AUG-CC-PVTZ
    Number of shells: 277
    Number of basis function: 809
    Number of Cartesian functions: 929
    Spherical Harmonics?: true
    Max angular momentum: 3

   => Loading Basis Set <=

    Name: (AUG-CC-PVTZ AUX)
    Role: JKFIT
    Keyword: DF_BASIS_SCF
    atoms 1     entry S          line   730 file /home/xy3866/psi4conda/share/psi4/basis/aug-cc-pvtz-jkfit.gbs 
    atoms 2-3   entry O          line   286 file /home/xy3866/psi4conda/share/psi4/basis/aug-cc-pvtz-jkfit.gbs 
    atoms 4     entry N          line   224 file /home/xy3866/psi4conda/share/psi4/basis/aug-cc-pvtz-jkfit.gbs 
    atoms 5-10  entry C          line   162 file /home/xy3866/psi4conda/share/psi4/basis/aug-cc-pvtz-jkfit.gbs 
    atoms 11-25 entry H          line    70 file /home/xy3866/psi4conda/share/psi4/basis/aug-cc-pvtz-jkfit.gbs 

  ==> Pre-Iterations <==

   -------------------------------------------------------
    Irrep   Nso     Nmo     Nalpha   Nbeta   Ndocc  Nsocc
   -------------------------------------------------------
     A        809     809       0       0       0       0
   -------------------------------------------------------
    Total     809     809      45      45      45       0
   -------------------------------------------------------

  ==> Integral Setup <==

  DFHelper Memory: AOs need 8.234 GiB; user supplied 22.352 GiB. Using in-core AOs.

  ==> MemDFJK: Density-Fitted J/K Matrices <==

    J tasked:                   Yes
    K tasked:                   Yes
    wK tasked:                   No
    OpenMP threads:               8
    Memory [MiB]:             22888
    Algorithm:                 Disk
    Schwarz Cutoff:           1E-12
    Mask sparsity (%):       6.9499
    Fitting Condition:        1E-10

   => Auxiliary Basis Set <=

  Basis Set: (AUG-CC-PVTZ AUX)
    Blend: AUG-CC-PVTZ-JKFIT
    Number of shells: 522
    Number of basis function: 1772
    Number of Cartesian functions: 2184
    Spherical Harmonics?: true
    Max angular momentum: 4

  Minimum eigenvalue in the overlap matrix is 3.0181700709E-06.
  Using Symmetric Orthogonalization.

  SCF Guess: Superposition of Atomic Densities via on-the-fly atomic UHF.

  ==> Iterations <==

                           Total Energy        Delta E     RMS |[F,P]|

   @DF-RHF iter SAD:  -837.77063671497990   -8.37771e+02   0.00000e+00 
   @DF-RHF iter   1:  -837.30416129156731    4.66475e-01   1.17478e-03 DIIS
   @DF-RHF iter   2:  -837.62781586437848   -3.23655e-01   7.16847e-04 DIIS
   @DF-RHF iter   3:  -837.75354859708432   -1.25733e-01   1.33359e-04 DIIS
   @DF-RHF iter   4:  -837.75989767609360   -6.34908e-03   5.03849e-05 DIIS
   @DF-RHF iter   5:  -837.76091998662582   -1.02231e-03   1.11369e-05 DIIS
   @DF-RHF iter   6:  -837.76097014991888   -5.01633e-05   3.96154e-06 DIIS
   @DF-RHF iter   7:  -837.76097753134559   -7.38143e-06   1.09639e-06 DIIS
   @DF-RHF iter   8:  -837.76097821107373   -6.79728e-07   3.91064e-07 DIIS
   @DF-RHF iter   9:  -837.76097832238941   -1.11316e-07   1.46710e-07 DIIS
   @DF-RHF iter  10:  -837.76097834152438   -1.91350e-08   5.55971e-08 DIIS
   @DF-RHF iter  11:  -837.76097834376571   -2.24134e-09   1.96282e-08 DIIS
   @DF-RHF iter  12:  -837.76097834401833   -2.52612e-10   6.70606e-09 DIIS
   @DF-RHF iter  13:  -837.76097834406005   -4.17231e-11   1.90658e-09 DIIS
   @DF-RHF iter  14:  -837.76097834406232   -2.27374e-12   5.99333e-10 DIIS
   @DF-RHF iter  15:  -837.76097834406096    1.36424e-12   2.41260e-10 DIIS
   @DF-RHF iter  16:  -837.76097834405812    2.84217e-12   9.00364e-11 DIIS
  Energy and wave function converged.


  ==> Post-Iterations <==

    Orbital Energies [Eh]
    ---------------------

    Doubly Occupied:                                                      

       1A    -92.190876     2A    -20.563361     3A    -20.528070  
       4A    -15.584826     5A    -11.276685     6A    -11.271974  
       7A    -11.269425     8A    -11.238344     9A    -11.224777  
      10A    -11.210604    11A     -9.157864    12A     -6.842991  
      13A     -6.842452    14A     -6.841708    15A     -1.481270  
      16A     -1.324907    17A     -1.232887    18A     -1.080649  
      19A     -1.040600    20A     -1.000708    21A     -0.914558  
      22A     -0.864380    23A     -0.849043    24A     -0.777030  
      25A     -0.720764    26A     -0.684062    27A     -0.670018  
      28A     -0.647323    29A     -0.637908    30A     -0.621472  
      31A     -0.599093    32A     -0.577257    33A     -0.572765  
      34A     -0.551400    35A     -0.540362    36A     -0.537696  
      37A     -0.525913    38A     -0.519046    39A     -0.510389  
      40A     -0.499200    41A     -0.498280    42A     -0.484614  
      43A     -0.459727    44A     -0.438607    45A     -0.385416  

    Virtual:                                                              

      46A      0.022316    47A      0.029708    48A      0.033555  
      49A      0.038270    50A      0.047049    51A      0.048205  
      52A      0.049950    53A      0.056320    54A      0.056730  
      55A      0.068445    56A      0.071098    57A      0.073475  
      58A      0.076717    59A      0.084950    60A      0.086988  
      61A      0.105039    62A      0.108210    63A      0.112420  
      64A      0.119746    65A      0.120641    66A      0.126843  
      67A      0.129978    68A      0.130787    69A      0.134572  
      70A      0.136876    71A      0.140527    72A      0.144215  
      73A      0.146030    74A      0.150468    75A      0.151935  
      76A      0.157381    77A      0.163525    78A      0.164745  
      79A      0.167565    80A      0.173069    81A      0.181756  
      82A      0.186417    83A      0.192418    84A      0.202442  
      85A      0.207959    86A      0.214619    87A      0.217414  
      88A      0.222823    89A      0.227823    90A      0.231887  
      91A      0.239996    92A      0.246346    93A      0.247954  
      94A      0.251268    95A      0.254262    96A      0.256724  
      97A      0.262533    98A      0.267142    99A      0.273386  
     100A      0.275761   101A      0.286092   102A      0.291050  
     103A      0.292193   104A      0.295510   105A      0.298840  
     106A      0.303901   107A      0.311455   108A      0.319346  
     109A      0.320651   110A      0.323282   111A      0.330348  
     112A      0.338368   113A      0.340402   114A      0.343926  
     115A      0.346793   116A      0.349389   117A      0.351172  
     118A      0.356920   119A      0.359312   120A      0.362782  
     121A      0.368186   122A      0.370188   123A      0.373552  
     124A      0.379243   125A      0.379779   126A      0.382596  
     127A      0.387849   128A      0.389000   129A      0.396519  
     130A      0.400541   131A      0.403698   132A      0.408511  
     133A      0.411503   134A      0.415906   135A      0.420043  
     136A      0.422633   137A      0.423482   138A      0.430001  
     139A      0.432516   140A      0.436176   141A      0.440994  
     142A      0.447645   143A      0.450154   144A      0.455001  
     145A      0.456997   146A      0.460336   147A      0.461716  
     148A      0.468094   149A      0.473677   150A      0.477228  
     151A      0.480983   152A      0.484440   153A      0.486093  
     154A      0.494225   155A      0.498853   156A      0.502406  
     157A      0.506723   158A      0.507207   159A      0.516280  
     160A      0.519860   161A      0.521378   162A      0.524268  
     163A      0.530115   164A      0.534393   165A      0.539521  
     166A      0.540620   167A      0.546948   168A      0.550061  
     169A      0.557280   170A      0.564386   171A      0.567379  
     172A      0.571529   173A      0.577201   174A      0.580419  
     175A      0.582742   176A      0.586076   177A      0.591229  
     178A      0.599639   179A      0.602487   180A      0.605939  
     181A      0.611570   182A      0.613762   183A      0.617328  
     184A      0.623861   185A      0.633509   186A      0.639078  
     187A      0.641328   188A      0.643560   189A      0.653341  
     190A      0.661876   191A      0.665438   192A      0.671333  
     193A      0.673959   194A      0.680550   195A      0.682173  
     196A      0.685288   197A      0.699358   198A      0.700799  
     199A      0.707517   200A      0.713800   201A      0.715502  
     202A      0.723399   203A      0.734143   204A      0.746229  
     205A      0.754521   206A      0.761489   207A      0.773383  
     208A      0.783862   209A      0.787800   210A      0.794660  
     211A      0.806747   212A      0.808368   213A      0.808863  
     214A      0.816337   215A      0.825468   216A      0.826582  
     217A      0.833807   218A      0.839637   219A      0.843789  
     220A      0.847868   221A      0.856348   222A      0.859798  
     223A      0.861565   224A      0.868355   225A      0.879049  
     226A      0.880233   227A      0.885960   228A      0.892812  
     229A      0.902415   230A      0.904999   231A      0.914177  
     232A      0.916394   233A      0.922222   234A      0.925775  
     235A      0.933045   236A      0.934097   237A      0.937628  
     238A      0.940709   239A      0.941835   240A      0.944837  
     241A      0.948273   242A      0.954678   243A      0.960800  
     244A      0.964593   245A      0.968154   246A      0.975584  
     247A      0.984009   248A      0.989241   249A      0.992536  
     250A      0.996123   251A      0.997874   252A      1.002953  
     253A      1.009279   254A      1.012577   255A      1.020082  
     256A      1.021950   257A      1.028019   258A      1.032716  
     259A      1.045126   260A      1.047274   261A      1.053369  
     262A      1.060798   263A      1.063038   264A      1.072204  
     265A      1.078386   266A      1.081711   267A      1.089143  
     268A      1.097151   269A      1.098193   270A      1.104334  
     271A      1.105960   272A      1.113549   273A      1.121497  
     274A      1.123183   275A      1.128358   276A      1.140591  
     277A      1.141773   278A      1.147325   279A      1.151215  
     280A      1.153026   281A      1.163811   282A      1.164817  
     283A      1.167207   284A      1.176571   285A      1.178103  
     286A      1.188682   287A      1.194346   288A      1.199135  
     289A      1.206503   290A      1.210356   291A      1.219615  
     292A      1.226654   293A      1.232316   294A      1.235982  
     295A      1.244551   296A      1.248569   297A      1.252363  
     298A      1.261076   299A      1.262673   300A      1.272972  
     301A      1.279254   302A      1.283592   303A      1.292290  
     304A      1.297548   305A      1.300465   306A      1.311914  
     307A      1.314379   308A      1.319627   309A      1.321656  
     310A      1.326051   311A      1.331482   312A      1.339676  
     313A      1.345374   314A      1.347606   315A      1.365996  
     316A      1.367766   317A      1.375505   318A      1.379024  
     319A      1.382105   320A      1.392117   321A      1.404166  
     322A      1.407395   323A      1.413608   324A      1.416643  
     325A      1.421420   326A      1.429303   327A      1.433767  
     328A      1.439014   329A      1.448094   330A      1.459725  
     331A      1.466914   332A      1.469989   333A      1.481352  
     334A      1.487629   335A      1.492461   336A      1.506102  
     337A      1.510421   338A      1.518831   339A      1.532169  
     340A      1.539214   341A      1.542908   342A      1.550703  
     343A      1.554062   344A      1.568591   345A      1.574941  
     346A      1.577915   347A      1.582594   348A      1.587458  
     349A      1.596657   350A      1.599363   351A      1.608082  
     352A      1.617978   353A      1.623418   354A      1.627948  
     355A      1.635897   356A      1.641168   357A      1.646030  
     358A      1.654848   359A      1.658179   360A      1.665986  
     361A      1.673994   362A      1.676322   363A      1.681119  
     364A      1.687292   365A      1.691705   366A      1.699311  
     367A      1.706598   368A      1.711695   369A      1.716442  
     370A      1.720827   371A      1.730393   372A      1.736306  
     373A      1.740187   374A      1.746433   375A      1.753396  
     376A      1.760946   377A      1.763205   378A      1.769279  
     379A      1.774283   380A      1.781651   381A      1.785221  
     382A      1.789403   383A      1.798988   384A      1.802510  
     385A      1.814005   386A      1.819443   387A      1.822691  
     388A      1.830052   389A      1.840014   390A      1.849094  
     391A      1.859399   392A      1.867272   393A      1.870114  
     394A      1.872840   395A      1.875426   396A      1.877457  
     397A      1.883975   398A      1.896651   399A      1.901743  
     400A      1.908416   401A      1.917160   402A      1.924739  
     403A      1.926988   404A      1.942886   405A      1.945417  
     406A      1.956546   407A      1.961348   408A      1.968307  
     409A      1.977037   410A      1.979499   411A      1.993909  
     412A      2.001891   413A      2.011593   414A      2.018094  
     415A      2.024328   416A      2.028525   417A      2.039799  
     418A      2.045953   419A      2.064693   420A      2.067465  
     421A      2.076616   422A      2.081629   423A      2.090712  
     424A      2.100165   425A      2.118461   426A      2.122414  
     427A      2.129080   428A      2.140662   429A      2.148454  
     430A      2.156094   431A      2.176543   432A      2.184337  
     433A      2.190955   434A      2.192401   435A      2.203900  
     436A      2.215148   437A      2.224105   438A      2.233908  
     439A      2.240905   440A      2.248085   441A      2.252762  
     442A      2.259815   443A      2.263861   444A      2.275856  
     445A      2.282955   446A      2.286161   447A      2.295410  
     448A      2.304874   449A      2.308717   450A      2.313282  
     451A      2.321229   452A      2.330781   453A      2.336671  
     454A      2.344533   455A      2.357015   456A      2.359289  
     457A      2.383245   458A      2.396036   459A      2.398746  
     460A      2.417441   461A      2.428741   462A      2.436396  
     463A      2.448887   464A      2.451959   465A      2.461998  
     466A      2.464268   467A      2.495039   468A      2.495325  
     469A      2.505014   470A      2.514482   471A      2.524760  
     472A      2.534515   473A      2.543804   474A      2.550826  
     475A      2.570524   476A      2.580119   477A      2.595542  
     478A      2.609443   479A      2.613083   480A      2.624073  
     481A      2.643045   482A      2.657462   483A      2.676384  
     484A      2.690629   485A      2.698315   486A      2.707809  
     487A      2.720750   488A      2.742524   489A      2.751821  
     490A      2.768591   491A      2.777929   492A      2.796388  
     493A      2.808143   494A      2.811676   495A      2.828932  
     496A      2.845232   497A      2.857143   498A      2.871555  
     499A      2.886537   500A      2.903560   501A      2.917660  
     502A      2.935735   503A      2.955284   504A      2.969565  
     505A      2.981296   506A      3.003405   507A      3.012833  
     508A      3.033652   509A      3.059221   510A      3.076629  
     511A      3.102005   512A      3.128603   513A      3.141904  
     514A      3.144488   515A      3.174736   516A      3.188094  
     517A      3.206957   518A      3.250411   519A      3.288669  
     520A      3.315626   521A      3.330446   522A      3.367151  
     523A      3.394600   524A      3.407654   525A      3.433199  
     526A      3.441118   527A      3.460206   528A      3.476455  
     529A      3.484854   530A      3.493126   531A      3.509048  
     532A      3.517167   533A      3.524683   534A      3.543941  
     535A      3.547836   536A      3.568523   537A      3.577748  
     538A      3.582645   539A      3.591292   540A      3.616623  
     541A      3.628001   542A      3.632299   543A      3.643588  
     544A      3.652161   545A      3.661154   546A      3.676151  
     547A      3.682710   548A      3.686470   549A      3.694004  
     550A      3.715223   551A      3.725197   552A      3.726786  
     553A      3.735137   554A      3.740344   555A      3.754511  
     556A      3.760090   557A      3.761884   558A      3.775995  
     559A      3.787376   560A      3.799845   561A      3.810251  
     562A      3.821376   563A      3.829282   564A      3.840456  
     565A      3.854512   566A      3.870897   567A      3.874718  
     568A      3.889133   569A      3.891954   570A      3.893965  
     571A      3.904610   572A      3.916689   573A      3.918096  
     574A      3.929868   575A      3.942833   576A      3.949531  
     577A      3.956551   578A      3.972702   579A      3.973510  
     580A      3.990551   581A      4.001686   582A      4.008905  
     583A      4.022786   584A      4.030059   585A      4.036606  
     586A      4.041466   587A      4.046645   588A      4.056432  
     589A      4.060475   590A      4.079432   591A      4.081343  
     592A      4.095210   593A      4.105597   594A      4.120142  
     595A      4.127414   596A      4.132297   597A      4.139709  
     598A      4.149659   599A      4.168368   600A      4.177658  
     601A      4.191020   602A      4.195947   603A      4.201388  
     604A      4.214209   605A      4.223393   606A      4.238705  
     607A      4.241527   608A      4.247135   609A      4.255570  
     610A      4.262584   611A      4.272199   612A      4.282617  
     613A      4.293673   614A      4.308156   615A      4.311843  
     616A      4.342900   617A      4.355761   618A      4.359804  
     619A      4.366780   620A      4.376091   621A      4.393220  
     622A      4.414978   623A      4.420464   624A      4.441095  
     625A      4.452032   626A      4.472564   627A      4.480276  
     628A      4.488941   629A      4.500924   630A      4.524346  
     631A      4.528962   632A      4.535585   633A      4.542331  
     634A      4.565438   635A      4.581035   636A      4.598148  
     637A      4.604417   638A      4.613925   639A      4.632713  
     640A      4.645583   641A      4.655888   642A      4.663315  
     643A      4.678709   644A      4.699739   645A      4.719295  
     646A      4.729448   647A      4.739531   648A      4.752156  
     649A      4.768930   650A      4.776375   651A      4.802491  
     652A      4.807993   653A      4.826027   654A      4.848892  
     655A      4.855293   656A      4.872478   657A      4.877198  
     658A      4.882875   659A      4.893362   660A      4.899579  
     661A      4.902300   662A      4.925431   663A      4.928715  
     664A      4.929033   665A      4.937800   666A      4.961175  
     667A      4.974445   668A      4.981783   669A      4.986293  
     670A      5.016914   671A      5.019455   672A      5.036702  
     673A      5.054648   674A      5.066125   675A      5.071709  
     676A      5.097370   677A      5.100993   678A      5.114192  
     679A      5.123600   680A      5.141453   681A      5.154312  
     682A      5.157586   683A      5.176584   684A      5.182308  
     685A      5.188270   686A      5.212188   687A      5.228610  
     688A      5.256906   689A      5.257259   690A      5.274943  
     691A      5.285798   692A      5.307389   693A      5.313353  
     694A      5.331888   695A      5.336751   696A      5.345183  
     697A      5.354043   698A      5.358485   699A      5.372456  
     700A      5.379971   701A      5.397528   702A      5.403885  
     703A      5.414747   704A      5.423640   705A      5.436782  
     706A      5.448677   707A      5.464242   708A      5.495058  
     709A      5.502969   710A      5.512116   711A      5.529744  
     712A      5.539944   713A      5.553131   714A      5.570057  
     715A      5.581464   716A      5.608293   717A      5.609408  
     718A      5.632106   719A      5.647583   720A      5.666531  
     721A      5.674844   722A      5.705508   723A      5.720866  
     724A      5.738546   725A      5.750749   726A      5.767102  
     727A      5.772362   728A      5.803068   729A      5.812132  
     730A      5.820837   731A      5.838779   732A      5.857495  
     733A      5.907749   734A      5.929554   735A      5.979083  
     736A      5.981737   737A      6.005854   738A      6.036110  
     739A      6.041236   740A      6.045563   741A      6.070241  
     742A      6.077991   743A      6.092313   744A      6.122786  
     745A      6.180704   746A      6.188427   747A      6.189917  
     748A      6.201056   749A      6.219806   750A      6.227295  
     751A      6.257430   752A      6.271501   753A      6.294199  
     754A      6.315904   755A      6.327650   756A      6.343251  
     757A      6.400157   758A      6.412132   759A      6.428849  
     760A      6.452792   761A      6.464145   762A      6.524626  
     763A      6.712094   764A      6.744027   765A      6.751576  
     766A      6.771269   767A      6.796311   768A      6.806593  
     769A      6.820581   770A      6.829365   771A      6.834906  
     772A      6.848197   773A      6.888856   774A      6.896510  
     775A      6.907701   776A      6.919676   777A      6.967182  
     778A      6.983344   779A      6.993099   780A      7.012437  
     781A      7.035568   782A      7.049007   783A      7.059904  
     784A      7.081601   785A      7.126528   786A      7.138050  
     787A      7.163588   788A      7.196156   789A      7.222051  
     790A      7.400857   791A      7.437158   792A      7.482276  
     793A      7.527946   794A      7.715405   795A      7.752746  
     796A      7.813403   797A      7.865954   798A      7.895101  
     799A      7.914690   800A     13.535937   801A     14.255564  
     802A     14.979472   803A     17.676212   804A     18.045447  
     805A     18.131663   806A     18.338404   807A     18.628853  
     808A     18.962524   809A     19.488920  

    Final Occupation by Irrep:
              A 
    DOCC [    45 ]

  @DF-RHF Final Energy:  -837.76097834405812

   => Energetics <=

    Nuclear Repulsion Energy =            742.5900882377854941
    One-Electron Energy =               -2624.1195252260945381
    Two-Electron Energy =                1043.7684586442510408
    Total Energy =                       -837.7609783440580031

Computation Completed

*** tstop() called on node142.bme.utexas.edu at Tue Nov 17 19:38:57 2020
Module time:
	user time   =     614.06 seconds =      10.23 minutes
	system time =      64.02 seconds =       1.07 minutes
	total time  =        131 seconds =       2.18 minutes
Total time:
	user time   =     614.06 seconds =      10.23 minutes
	system time =      64.02 seconds =       1.07 minutes
	total time  =        131 seconds =       2.18 minutes
   => Loading Basis Set <=

    Name: (AUG-CC-PVTZ AUX)
    Role: RIFIT
    Keyword: DF_BASIS_MP2
    atoms 1     entry S          line   666 file /home/xy3866/psi4conda/share/psi4/basis/aug-cc-pvtz-ri.gbs 
    atoms 2-3   entry O          line   264 file /home/xy3866/psi4conda/share/psi4/basis/aug-cc-pvtz-ri.gbs 
    atoms 4     entry N          line   206 file /home/xy3866/psi4conda/share/psi4/basis/aug-cc-pvtz-ri.gbs 
    atoms 5-10  entry C          line   148 file /home/xy3866/psi4conda/share/psi4/basis/aug-cc-pvtz-ri.gbs 
    atoms 11-25 entry H          line    30 file /home/xy3866/psi4conda/share/psi4/basis/aug-cc-pvtz-ri.gbs 


*** tstart() called on node142.bme.utexas.edu
*** at Tue Nov 17 19:38:58 2020


  //>>>>>>>>>>>>>>>>>>>>>>>>>>>>>>>>>>>//
  //               DFMP2               //
  //<<<<<<<<<<<<<<<<<<<<<<<<<<<<<<<<<<<//

	 --------------------------------------------------------
	                          DF-MP2                         
	      2nd-Order Density-Fitted Moller-Plesset Theory     
	              RMP2 Wavefunction,   8 Threads             
	                                                         
	        Rob Parrish, Justin Turney, Andy Simmonett,      
	           Ed Hohenstein, and C. David Sherrill          
	 --------------------------------------------------------

   => Auxiliary Basis Set <=

  Basis Set: (AUG-CC-PVTZ AUX)
    Blend: AUG-CC-PVTZ-RI
    Number of shells: 499
    Number of basis function: 1791
    Number of Cartesian functions: 2240
    Spherical Harmonics?: true
    Max angular momentum: 4

	 --------------------------------------------------------
	                 NBF =   809, NAUX =  1791
	 --------------------------------------------------------
	   CLASS    FOCC     OCC    AOCC    AVIR     VIR    FVIR
	   PAIRS       0      45      45     764     764       0
	 --------------------------------------------------------

  DFHelper Memory: AOs need 8.234 GiB; user supplied 22.352 GiB. Using in-core AOs.


         ------------------------------------------------------------
                                     CPHF                           
                                  Rob Parrish                       
         ------------------------------------------------------------

  ==> Geometry <==

    Molecular point group: c1
    Full point group: C1

    Geometry (in Angstrom), charge = 0, multiplicity = 1:

       Center              X                  Y                   Z               Mass       
    ------------   -----------------  -----------------  -----------------  -----------------
         S           -0.773436451181    -0.013897594653    -0.403262416388    31.972071174400
         O           -1.001918751181     0.918242805347    -1.390244416388    15.994914619570
         O           -0.957855751181    -1.509852194653    -0.587875416388    15.994914619570
         N            0.867630248819     0.070095805347     0.079094583612    14.003074004430
         C            1.391052248819     1.425568805347     0.280094583612    12.000000000000
         C            1.431892248819    -1.006527194653     0.913805583612    12.000000000000
         C           -1.688794751181     0.388373805347     1.086591583612    12.000000000000
         C            2.817885248819     1.540238805347    -0.233113416388    12.000000000000
         C            2.211251248819    -2.012945194653     0.084175583612    12.000000000000
         C           -3.180097751181     0.274664805347     0.799285583612    12.000000000000
         H            0.752979248819     2.110223805347    -0.279431416388     1.007825032230
         H            1.344021248819     1.702334805347     1.344781583612     1.007825032230
         H            2.072475248819    -0.532861194653     1.665675583612     1.007825032230
         H            0.632760248819    -1.523533194653     1.455409583612     1.007825032230
         H           -1.418674451181    -0.243780494653     1.936745183612     1.007825032230
         H           -1.400476751181     1.414139805347     1.333275583612     1.007825032230
         H            3.494929248819     0.870885805347     0.303203583612     1.007825032230
         H            2.848421248819     1.290529805347    -1.294914416388     1.007825032230
         H            3.182064248819     2.563143805347    -0.099058416388     1.007825032230
         H            1.540896248819    -2.480259194653    -0.638444416388     1.007825032230
         H            3.023875248819    -1.523225194653    -0.456108416388     1.007825032230
         H            2.636316248819    -2.789655194653     0.727887583612     1.007825032230
         H           -3.751304751181     0.567589805347     1.683585583612     1.007825032230
         H           -3.455653751181     0.927613805347    -0.029643416388     1.007825032230
         H           -3.438690751181    -0.752637194653     0.538290583612     1.007825032230

  Nuclear repulsion =  742.590088237785494
  Reference energy  = -837.760978344058117

  ==> Basis Set <==

  Basis Set: AUG-CC-PVTZ
    Blend: AUG-CC-PVTZ
    Number of shells: 277
    Number of basis function: 809
    Number of Cartesian functions: 929
    Spherical Harmonics?: true
    Max angular momentum: 3

  ==> CGRSolver (by Rob Parrish) <==

   Number of roots    =         1
   Preconditioning    =    JACOBI
   Convergence cutoff =     1E-06
   Maximum iterations =       100

  ==> CPHFRHamiltonian (by Rob Parrish) <== 

  ==> MemDFJK: Density-Fitted J/K Matrices <==

    J tasked:                   Yes
    K tasked:                   Yes
    wK tasked:                   No
    OpenMP threads:               8
    Memory [MiB]:             22888
    Algorithm:                 Disk
    Schwarz Cutoff:           1E-12
    Mask sparsity (%):       6.9499
    Fitting Condition:        1E-10

   => Auxiliary Basis Set <=

  Basis Set: (AUG-CC-PVTZ AUX)
    Blend: AUG-CC-PVTZ-JKFIT
    Number of shells: 522
    Number of basis function: 1772
    Number of Cartesian functions: 2184
    Spherical Harmonics?: true
    Max angular momentum: 4

  ==> CPHF Iterations <==

  => Iterations <=

             Iter  Converged  Remaining    Residual
  CGR           1          0          1   1.141E-01
  CGR           2          0          1   3.047E-02
  CGR           3          0          1   1.268E-02
  CGR           4          0          1   3.954E-03
  CGR           5          0          1   1.560E-03
  CGR           6          0          1   4.448E-04
  CGR           7          0          1   1.663E-04
  CGR           8          0          1   5.665E-05
  CGR           9          0          1   2.034E-05
  CGR          10          0          1   6.081E-06
  CGR          11          0          1   1.953E-06
  CGR          12          1          0   6.347E-07

    CGRSolver converged.

	-----------------------------------------------------------
	 ==================> DF-MP2 Energies <==================== 
	-----------------------------------------------------------
	 Reference Energy          =    -837.7609783440581168 [Eh]
	 Singles Energy            =      -0.0000000000000000 [Eh]
	 Same-Spin Energy          =      -0.5162896759812708 [Eh]
	 Opposite-Spin Energy      =      -1.6694537710984305 [Eh]
	 Correlation Energy        =      -2.1857434470797013 [Eh]
	 Total Energy              =    -839.9467217911378611 [Eh]
	-----------------------------------------------------------
	 ================> DF-SCS-MP2 Energies <================== 
	-----------------------------------------------------------
	 SCS Same-Spin Scale       =       0.3333333333333333 [-]
	 SCS Opposite-Spin Scale   =       1.2000000000000000 [-]
	 SCS Same-Spin Energy      =      -0.1720965586604236 [Eh]
	 SCS Opposite-Spin Energy  =      -2.0033445253181164 [Eh]
	 SCS Correlation Energy    =      -2.1754410839785399 [Eh]
	 SCS Total Energy          =    -839.9364194280366291 [Eh]
	-----------------------------------------------------------



Properties will be evaluated at   0.000000,  -0.000000,  -0.000000 [a0]

Properties computed using the MP2 density matrix

  Nuclear Dipole Moment: [e a0]
     X:     7.5273      Y:     1.4970      Z:     7.6587

  Electronic Dipole Moment: [e a0]
     X:    -7.1210      Y:    -0.7066      Z:    -6.1227

  Dipole Moment: [e a0]
     X:     0.4063      Y:     0.7904      Z:     1.5360     Total:     1.7746

  Dipole Moment: [D]
     X:     1.0328      Y:     2.0091      Z:     3.9040     Total:     4.5105


*** tstop() called on node142.bme.utexas.edu at Tue Nov 17 19:44:53 2020
Module time:
	user time   =    2212.35 seconds =      36.87 minutes
	system time =      77.75 seconds =       1.30 minutes
	total time  =        355 seconds =       5.92 minutes
Total time:
	user time   =    2826.66 seconds =      47.11 minutes
	system time =     141.77 seconds =       2.36 minutes
	total time  =        487 seconds =       8.12 minutes

    Psi4 stopped on: Tuesday, 17 November 2020 07:44PM
    Psi4 wall time for execution: 0:08:08.18

*** Psi4 exiting successfully. Buy a developer a beer!
