
    -----------------------------------------------------------------------
          Psi4: An Open-Source Ab Initio Electronic Structure Package
                               Psi4 1.3.2 release

                         Git: Rev {HEAD} ecbda83 


    R. M. Parrish, L. A. Burns, D. G. A. Smith, A. C. Simmonett,
    A. E. DePrince III, E. G. Hohenstein, U. Bozkaya, A. Yu. Sokolov,
    R. Di Remigio, R. M. Richard, J. F. Gonthier, A. M. James,
    H. R. McAlexander, A. Kumar, M. Saitow, X. Wang, B. P. Pritchard,
    P. Verma, H. F. Schaefer III, K. Patkowski, R. A. King, E. F. Valeev,
    F. A. Evangelista, J. M. Turney, T. D. Crawford, and C. D. Sherrill,
    J. Chem. Theory Comput. 13(7) pp 3185--3197 (2017).
    (doi: 10.1021/acs.jctc.7b00174)


                         Additional Contributions by
    P. Kraus, H. Kruse, M. H. Lechner, M. C. Schieber, R. A. Shaw,
    A. Alenaizan, R. Galvelis, Z. L. Glick, S. Lehtola, and J. P. Misiewicz

    -----------------------------------------------------------------------


    Psi4 started on: Saturday, 27 March 2021 08:10PM

    Process ID: 67588
    Host:       node144.bme.utexas.edu
    PSIDATADIR: /home/xy3866/psi4conda/share/psi4
    Memory:     500.0 MiB
    Threads:    8
    
  ==> Input File <==

--------------------------------------------------------------------------
#psi4
#
memory 32 gb

molecule  {
0 1
  F       -0.0963580     2.2498010    -0.0002150
  O        1.7683730     0.3991100    -0.0000070
  C        0.4770520    -0.0443510     0.0000100
  C       -0.5052370     0.9594120    -0.0001040
  C        0.0593170    -1.3782210     0.0001240
  C       -1.8569249     0.6655247    -0.1001050
  C       -1.3077240    -1.6845900     0.0001240
  C       -2.2644630    -0.6734790     0.0000110
  C        2.7793550    -0.6059020     0.0001420
  H        0.7856920    -2.1838160     0.0002110
  H       -2.5691860     1.4853780    -0.0001950
  H       -1.6154480    -2.7269510     0.0002140
  H       -3.3233590    -0.9156310     0.0000120
  H        2.7155550    -1.2340820    -0.8948950
  H        2.7154750    -1.2338950     0.8953060
  H        3.7232780    -0.0625150     0.0001270
units angstrom
no_reorient  #important for SAPT in psi4, default
symmetry c1  #important for SAPT in psi4, default
}

set PROPERTIES_ORIGIN ["COM"]
properties('MP2/aug-cc-pvtz', properties = ['dipole'])
--------------------------------------------------------------------------

  Memory set to  29.802 GiB by Python driver.
    SCF Algorithm Type (re)set to DF.

*** tstart() called on node144.bme.utexas.edu
*** at Sat Mar 27 20:10:56 2021

   => Loading Basis Set <=

    Name: AUG-CC-PVTZ
    Role: ORBITAL
    Keyword: BASIS
    atoms 1     entry F          line   373 file /home/xy3866/psi4conda/share/psi4/basis/aug-cc-pvtz.gbs 
    atoms 2     entry O          line   327 file /home/xy3866/psi4conda/share/psi4/basis/aug-cc-pvtz.gbs 
    atoms 3-9   entry C          line   235 file /home/xy3866/psi4conda/share/psi4/basis/aug-cc-pvtz.gbs 
    atoms 10-16 entry H          line    36 file /home/xy3866/psi4conda/share/psi4/basis/aug-cc-pvtz.gbs 


         ---------------------------------------------------------
                                   SCF
               by Justin Turney, Rob Parrish, Andy Simmonett
                          and Daniel G. A. Smith
                              RHF Reference
                        8 Threads,  30517 MiB Core
         ---------------------------------------------------------

  ==> Geometry <==

    Molecular point group: c1
    Full point group: C1

    Geometry (in Angstrom), charge = 0, multiplicity = 1:

       Center              X                  Y                   Z               Mass       
    ------------   -----------------  -----------------  -----------------  -----------------
         F           -0.076380432802     2.177909397449     0.009313002280    18.998403162730
         O            1.788350567198     0.327218397449     0.009521002280    15.994914619570
         C            0.497029567198    -0.116242602551     0.009538002280    12.000000000000
         C           -0.485259432802     0.887520397449     0.009424002280    12.000000000000
         C            0.079294567198    -1.450112602551     0.009652002280    12.000000000000
         C           -1.836947332802     0.593633097449    -0.090576997720    12.000000000000
         C           -1.287746432802    -1.756481602551     0.009652002280    12.000000000000
         C           -2.244485432802    -0.745370602551     0.009539002280    12.000000000000
         C            2.799332567198    -0.677793602551     0.009670002280    12.000000000000
         H            0.805669567198    -2.255707602551     0.009739002280     1.007825032230
         H           -2.549208432802     1.413486397449     0.009333002280     1.007825032230
         H           -1.595470432802    -2.798842602551     0.009742002280     1.007825032230
         H           -3.303381432802    -0.987522602551     0.009540002280     1.007825032230
         H            2.735532567198    -1.305973602551    -0.885366997720     1.007825032230
         H            2.735452567198    -1.305786602551     0.904834002280     1.007825032230
         H            3.743255567198    -0.134406602551     0.009655002280     1.007825032230

  Running in c1 symmetry.

  Rotational constants: A =      0.08383  B =      0.05205  C =      0.03232 [cm^-1]
  Rotational constants: A =   2513.17487  B =   1560.28489  C =    968.93386 [MHz]
  Nuclear repulsion =  430.739727039287118

  Charge       = 0
  Multiplicity = 1
  Electrons    = 66
  Nalpha       = 33
  Nbeta        = 33

  ==> Algorithm <==

  SCF Algorithm Type is DF.
  DIIS enabled.
  MOM disabled.
  Fractional occupation disabled.
  Guess Type is SAD.
  Energy threshold   = 1.00e-10
  Density threshold  = 1.00e-10
  Integral threshold = 0.00e+00

  ==> Primary Basis <==

  Basis Set: AUG-CC-PVTZ
    Blend: AUG-CC-PVTZ
    Number of shells: 189
    Number of basis function: 575
    Number of Cartesian functions: 670
    Spherical Harmonics?: true
    Max angular momentum: 3

   => Loading Basis Set <=

    Name: (AUG-CC-PVTZ AUX)
    Role: JKFIT
    Keyword: DF_BASIS_SCF
    atoms 1     entry F          line   348 file /home/xy3866/psi4conda/share/psi4/basis/aug-cc-pvtz-jkfit.gbs 
    atoms 2     entry O          line   286 file /home/xy3866/psi4conda/share/psi4/basis/aug-cc-pvtz-jkfit.gbs 
    atoms 3-9   entry C          line   162 file /home/xy3866/psi4conda/share/psi4/basis/aug-cc-pvtz-jkfit.gbs 
    atoms 10-16 entry H          line    70 file /home/xy3866/psi4conda/share/psi4/basis/aug-cc-pvtz-jkfit.gbs 

  ==> Pre-Iterations <==

   -------------------------------------------------------
    Irrep   Nso     Nmo     Nalpha   Nbeta   Ndocc  Nsocc
   -------------------------------------------------------
     A        575     575       0       0       0       0
   -------------------------------------------------------
    Total     575     575      33      33      33       0
   -------------------------------------------------------

  ==> Integral Setup <==

  DFHelper Memory: AOs need 3.047 GiB; user supplied 22.352 GiB. Using in-core AOs.

  ==> MemDFJK: Density-Fitted J/K Matrices <==

    J tasked:                   Yes
    K tasked:                   Yes
    wK tasked:                   No
    OpenMP threads:               8
    Memory [MiB]:             22888
    Algorithm:                 Disk
    Schwarz Cutoff:           1E-12
    Mask sparsity (%):       4.8339
    Fitting Condition:        1E-10

   => Auxiliary Basis Set <=

  Basis Set: (AUG-CC-PVTZ AUX)
    Blend: AUG-CC-PVTZ-JKFIT
    Number of shells: 368
    Number of basis function: 1258
    Number of Cartesian functions: 1564
    Spherical Harmonics?: true
    Max angular momentum: 4

  Minimum eigenvalue in the overlap matrix is 1.3571551209E-06.
  Using Symmetric Orthogonalization.

  SCF Guess: Superposition of Atomic Densities via on-the-fly atomic UHF.

  ==> Iterations <==

                           Total Energy        Delta E     RMS |[F,P]|

   @DF-RHF iter SAD:  -442.85191892372688   -4.42852e+02   0.00000e+00 
   @DF-RHF iter   1:  -443.37079380385444   -5.18875e-01   1.05871e-03 DIIS
   @DF-RHF iter   2:  -443.54396823017669   -1.73174e-01   4.98510e-04 DIIS
   @DF-RHF iter   3:  -443.58224652397843   -3.82783e-02   1.13588e-04 DIIS
   @DF-RHF iter   4:  -443.58523856412825   -2.99204e-03   4.83605e-05 DIIS
   @DF-RHF iter   5:  -443.58567368752472   -4.35123e-04   8.33998e-06 DIIS
   @DF-RHF iter   6:  -443.58569761799981   -2.39305e-05   3.50503e-06 DIIS
   @DF-RHF iter   7:  -443.58570169396467   -4.07596e-06   1.46772e-06 DIIS
   @DF-RHF iter   8:  -443.58570261064716   -9.16682e-07   5.15766e-07 DIIS
   @DF-RHF iter   9:  -443.58570280771931   -1.97072e-07   2.16885e-07 DIIS
   @DF-RHF iter  10:  -443.58570284388156   -3.61622e-08   1.05527e-07 DIIS
   @DF-RHF iter  11:  -443.58570285532085   -1.14393e-08   4.00941e-08 DIIS
   @DF-RHF iter  12:  -443.58570285651274   -1.19189e-09   1.66879e-08 DIIS
   @DF-RHF iter  13:  -443.58570285661403   -1.01295e-10   3.81192e-09 DIIS
   @DF-RHF iter  14:  -443.58570285662012   -6.08225e-12   1.28572e-09 DIIS
   @DF-RHF iter  15:  -443.58570285662103   -9.09495e-13   6.51607e-10 DIIS
   @DF-RHF iter  16:  -443.58570285662313   -2.10321e-12   2.89823e-10 DIIS
   @DF-RHF iter  17:  -443.58570285662051    2.61480e-12   1.09214e-10 DIIS
   @DF-RHF iter  18:  -443.58570285662199   -1.47793e-12   4.72849e-11 DIIS
  Energy and wave function converged.


  ==> Post-Iterations <==

    Orbital Energies [Eh]
    ---------------------

    Doubly Occupied:                                                      

       1A    -26.302357     2A    -20.594664     3A    -11.324212  
       4A    -11.313098     5A    -11.291073     6A    -11.249424  
       7A    -11.247958     8A    -11.246573     9A    -11.243102  
      10A     -1.616311    11A     -1.415375    12A     -1.157895  
      13A     -1.028853    14A     -1.026511    15A     -0.950390  
      16A     -0.848763    17A     -0.830581    18A     -0.745395  
      19A     -0.709086    20A     -0.705242    21A     -0.689298  
      22A     -0.656346    23A     -0.641700    24A     -0.628450  
      25A     -0.620192    26A     -0.580794    27A     -0.547790  
      28A     -0.530242    29A     -0.518871    30A     -0.502224  
      31A     -0.477276    32A     -0.348085    33A     -0.320618  

    Virtual:                                                              

      34A      0.025975    35A      0.031132    36A      0.036494  
      37A      0.044767    38A      0.047385    39A      0.054083  
      40A      0.073187    41A      0.074942    42A      0.088113  
      43A      0.095667    44A      0.099807    45A      0.104855  
      46A      0.111260    47A      0.112823    48A      0.114234  
      49A      0.119276    50A      0.128854    51A      0.133438  
      52A      0.136190    53A      0.138456    54A      0.139326  
      55A      0.141605    56A      0.144878    57A      0.151727  
      58A      0.153822    59A      0.162967    60A      0.163336  
      61A      0.167974    62A      0.180946    63A      0.188311  
      64A      0.195247    65A      0.203199    66A      0.224124  
      67A      0.227997    68A      0.238121    69A      0.243386  
      70A      0.244944    71A      0.253313    72A      0.258780  
      73A      0.265836    74A      0.273801    75A      0.276361  
      76A      0.288486    77A      0.290875    78A      0.294664  
      79A      0.302222    80A      0.311821    81A      0.316534  
      82A      0.319709    83A      0.322136    84A      0.326518  
      85A      0.330509    86A      0.334880    87A      0.338465  
      88A      0.344903    89A      0.350040    90A      0.356934  
      91A      0.359349    92A      0.369912    93A      0.375681  
      94A      0.378687    95A      0.384337    96A      0.395181  
      97A      0.404619    98A      0.409046    99A      0.411852  
     100A      0.416303   101A      0.420385   102A      0.426087  
     103A      0.431714   104A      0.435028   105A      0.440249  
     106A      0.445038   107A      0.453025   108A      0.459695  
     109A      0.472905   110A      0.475988   111A      0.480506  
     112A      0.483503   113A      0.488074   114A      0.492965  
     115A      0.495718   116A      0.500298   117A      0.505489  
     118A      0.512337   119A      0.516482   120A      0.517555  
     121A      0.525796   122A      0.531813   123A      0.535420  
     124A      0.541739   125A      0.545161   126A      0.557540  
     127A      0.565973   128A      0.576432   129A      0.580569  
     130A      0.586904   131A      0.590770   132A      0.606699  
     133A      0.609828   134A      0.616265   135A      0.634525  
     136A      0.636194   137A      0.639048   138A      0.643272  
     139A      0.659069   140A      0.663861   141A      0.682191  
     142A      0.695081   143A      0.704665   144A      0.709453  
     145A      0.716914   146A      0.724128   147A      0.742156  
     148A      0.750312   149A      0.754576   150A      0.768325  
     151A      0.774915   152A      0.782706   153A      0.792089  
     154A      0.802934   155A      0.806659   156A      0.814176  
     157A      0.820187   158A      0.840002   159A      0.846513  
     160A      0.849717   161A      0.859681   162A      0.865876  
     163A      0.870144   164A      0.871142   165A      0.881984  
     166A      0.884011   167A      0.890143   168A      0.895229  
     169A      0.897066   170A      0.909018   171A      0.911755  
     172A      0.923125   173A      0.926390   174A      0.927442  
     175A      0.937041   176A      0.955450   177A      0.956643  
     178A      0.966578   179A      0.969521   180A      0.989395  
     181A      0.991653   182A      0.995160   183A      1.001601  
     184A      1.010200   185A      1.013750   186A      1.019879  
     187A      1.021613   188A      1.026076   189A      1.038551  
     190A      1.045173   191A      1.055685   192A      1.065750  
     193A      1.068683   194A      1.074946   195A      1.076798  
     196A      1.078831   197A      1.088704   198A      1.095177  
     199A      1.097713   200A      1.109768   201A      1.111760  
     202A      1.125021   203A      1.135403   204A      1.139342  
     205A      1.146333   206A      1.150420   207A      1.164023  
     208A      1.169948   209A      1.178334   210A      1.181717  
     211A      1.196184   212A      1.203619   213A      1.208105  
     214A      1.212738   215A      1.217088   216A      1.226204  
     217A      1.228704   218A      1.235307   219A      1.240349  
     220A      1.244152   221A      1.246919   222A      1.269509  
     223A      1.274483   224A      1.284849   225A      1.285339  
     226A      1.312900   227A      1.315802   228A      1.324990  
     229A      1.337264   230A      1.341577   231A      1.356382  
     232A      1.369550   233A      1.377563   234A      1.383113  
     235A      1.399146   236A      1.409173   237A      1.416152  
     238A      1.419371   239A      1.438198   240A      1.465044  
     241A      1.467745   242A      1.480511   243A      1.490383  
     244A      1.495438   245A      1.509809   246A      1.512386  
     247A      1.527549   248A      1.536482   249A      1.557608  
     250A      1.569094   251A      1.571782   252A      1.600717  
     253A      1.610140   254A      1.617701   255A      1.630894  
     256A      1.645675   257A      1.651595   258A      1.663137  
     259A      1.671743   260A      1.679220   261A      1.683248  
     262A      1.701047   263A      1.710945   264A      1.724018  
     265A      1.729918   266A      1.734425   267A      1.740268  
     268A      1.754547   269A      1.765820   270A      1.774449  
     271A      1.789699   272A      1.809164   273A      1.810259  
     274A      1.821920   275A      1.826580   276A      1.831353  
     277A      1.837080   278A      1.859200   279A      1.865038  
     280A      1.874139   281A      1.881648   282A      1.897462  
     283A      1.904126   284A      1.916020   285A      1.924471  
     286A      1.929560   287A      1.949289   288A      1.970200  
     289A      1.981416   290A      1.983340   291A      1.997613  
     292A      2.001406   293A      2.007945   294A      2.023749  
     295A      2.033585   296A      2.041508   297A      2.047538  
     298A      2.068436   299A      2.073242   300A      2.082268  
     301A      2.101625   302A      2.113161   303A      2.123582  
     304A      2.133816   305A      2.144294   306A      2.146411  
     307A      2.165918   308A      2.167262   309A      2.185162  
     310A      2.204958   311A      2.218869   312A      2.238551  
     313A      2.242028   314A      2.257196   315A      2.270926  
     316A      2.289850   317A      2.292605   318A      2.315803  
     319A      2.324660   320A      2.358891   321A      2.375011  
     322A      2.382223   323A      2.400189   324A      2.411416  
     325A      2.440183   326A      2.477169   327A      2.486994  
     328A      2.520717   329A      2.532417   330A      2.564281  
     331A      2.604289   332A      2.618380   333A      2.634788  
     334A      2.650445   335A      2.676717   336A      2.701835  
     337A      2.712398   338A      2.739352   339A      2.755284  
     340A      2.761703   341A      2.774320   342A      2.797927  
     343A      2.822264   344A      2.881826   345A      2.892100  
     346A      2.956827   347A      2.963292   348A      2.998876  
     349A      3.015083   350A      3.030560   351A      3.042294  
     352A      3.053897   353A      3.072794   354A      3.091448  
     355A      3.109948   356A      3.140044   357A      3.146139  
     358A      3.169626   359A      3.180485   360A      3.202149  
     361A      3.216552   362A      3.242394   363A      3.264877  
     364A      3.279836   365A      3.321553   366A      3.327623  
     367A      3.352135   368A      3.369919   369A      3.378328  
     370A      3.395471   371A      3.414946   372A      3.417770  
     373A      3.419962   374A      3.425981   375A      3.454108  
     376A      3.460595   377A      3.465419   378A      3.472837  
     379A      3.490336   380A      3.507347   381A      3.517987  
     382A      3.531171   383A      3.543069   384A      3.557432  
     385A      3.565376   386A      3.572153   387A      3.573576  
     388A      3.589101   389A      3.609549   390A      3.624754  
     391A      3.666763   392A      3.672036   393A      3.683394  
     394A      3.690072   395A      3.692727   396A      3.708779  
     397A      3.710106   398A      3.726890   399A      3.739793  
     400A      3.755428   401A      3.766471   402A      3.774681  
     403A      3.783191   404A      3.796559   405A      3.801232  
     406A      3.836365   407A      3.843496   408A      3.850309  
     409A      3.862430   410A      3.878122   411A      3.882243  
     412A      3.891369   413A      3.892630   414A      3.911675  
     415A      3.929579   416A      3.932792   417A      3.936831  
     418A      3.955957   419A      3.964792   420A      3.984800  
     421A      3.994052   422A      4.001675   423A      4.016343  
     424A      4.020003   425A      4.030031   426A      4.039611  
     427A      4.070678   428A      4.096814   429A      4.110967  
     430A      4.120998   431A      4.141047   432A      4.156101  
     433A      4.166496   434A      4.194885   435A      4.202391  
     436A      4.216830   437A      4.236659   438A      4.243694  
     439A      4.251634   440A      4.260486   441A      4.278971  
     442A      4.293588   443A      4.303762   444A      4.310024  
     445A      4.325163   446A      4.354527   447A      4.365627  
     448A      4.373542   449A      4.375838   450A      4.398185  
     451A      4.409784   452A      4.413571   453A      4.431335  
     454A      4.448187   455A      4.463239   456A      4.481789  
     457A      4.491257   458A      4.520504   459A      4.529444  
     460A      4.561201   461A      4.584738   462A      4.594620  
     463A      4.631388   464A      4.638549   465A      4.656259  
     466A      4.668387   467A      4.690497   468A      4.712487  
     469A      4.730789   470A      4.751111   471A      4.780020  
     472A      4.785376   473A      4.786804   474A      4.801772  
     475A      4.830014   476A      4.836072   477A      4.866535  
     478A      4.898574   479A      4.912252   480A      4.937509  
     481A      4.941853   482A      4.972153   483A      4.985221  
     484A      4.999370   485A      5.013817   486A      5.036796  
     487A      5.043273   488A      5.056024   489A      5.070630  
     490A      5.097342   491A      5.114134   492A      5.118540  
     493A      5.144100   494A      5.147132   495A      5.169975  
     496A      5.199340   497A      5.212915   498A      5.248403  
     499A      5.275263   500A      5.281891   501A      5.287638  
     502A      5.296883   503A      5.359203   504A      5.379828  
     505A      5.383856   506A      5.407802   507A      5.434999  
     508A      5.457137   509A      5.511353   510A      5.549430  
     511A      5.586015   512A      5.613335   513A      5.628076  
     514A      5.657650   515A      5.668272   516A      5.680880  
     517A      5.701790   518A      5.760885   519A      5.833495  
     520A      5.904528   521A      5.964424   522A      6.023793  
     523A      6.054749   524A      6.060969   525A      6.107942  
     526A      6.132246   527A      6.144225   528A      6.153470  
     529A      6.251867   530A      6.271818   531A      6.318115  
     532A      6.381166   533A      6.469339   534A      6.613391  
     535A      6.654831   536A      6.673767   537A      6.780188  
     538A      6.812775   539A      6.864499   540A      6.960741  
     541A      6.976190   542A      7.015036   543A      7.132172  
     544A      7.138608   545A      7.175722   546A      7.356967  
     547A      7.440148   548A      7.555735   549A      7.591531  
     550A      7.767183   551A      7.902060   552A      7.902760  
     553A      8.385004   554A      8.569378   555A      8.981102  
     556A      9.054565   557A      9.269663   558A      9.289050  
     559A      9.417223   560A      9.488076   561A      9.492898  
     562A      9.571114   563A      9.640461   564A      9.697120  
     565A     10.009688   566A     10.044165   567A     15.202549  
     568A     16.016259   569A     16.126535   570A     17.102075  
     571A     17.947089   572A     18.491986   573A     19.377652  
     574A     19.644843   575A     19.911461  

    Final Occupation by Irrep:
              A 
    DOCC [    33 ]

  @DF-RHF Final Energy:  -443.58570285662199

   => Energetics <=

    Nuclear Repulsion Energy =            430.7397270392871178
    One-Electron Energy =               -1460.8333655974288376
    Two-Electron Energy =                 586.5079357015197274
    Total Energy =                       -443.5857028566219924

Computation Completed

*** tstop() called on node144.bme.utexas.edu at Sat Mar 27 20:12:07 2021
Module time:
	user time   =     316.49 seconds =       5.27 minutes
	system time =      37.01 seconds =       0.62 minutes
	total time  =         71 seconds =       1.18 minutes
Total time:
	user time   =     316.49 seconds =       5.27 minutes
	system time =      37.01 seconds =       0.62 minutes
	total time  =         71 seconds =       1.18 minutes
   => Loading Basis Set <=

    Name: (AUG-CC-PVTZ AUX)
    Role: RIFIT
    Keyword: DF_BASIS_MP2
    atoms 1     entry F          line   322 file /home/xy3866/psi4conda/share/psi4/basis/aug-cc-pvtz-ri.gbs 
    atoms 2     entry O          line   264 file /home/xy3866/psi4conda/share/psi4/basis/aug-cc-pvtz-ri.gbs 
    atoms 3-9   entry C          line   148 file /home/xy3866/psi4conda/share/psi4/basis/aug-cc-pvtz-ri.gbs 
    atoms 10-16 entry H          line    30 file /home/xy3866/psi4conda/share/psi4/basis/aug-cc-pvtz-ri.gbs 


*** tstart() called on node144.bme.utexas.edu
*** at Sat Mar 27 20:12:07 2021


  //>>>>>>>>>>>>>>>>>>>>>>>>>>>>>>>>>>>//
  //               DFMP2               //
  //<<<<<<<<<<<<<<<<<<<<<<<<<<<<<<<<<<<//

	 --------------------------------------------------------
	                          DF-MP2                         
	      2nd-Order Density-Fitted Moller-Plesset Theory     
	              RMP2 Wavefunction,   8 Threads             
	                                                         
	        Rob Parrish, Justin Turney, Andy Simmonett,      
	           Ed Hohenstein, and C. David Sherrill          
	 --------------------------------------------------------

   => Auxiliary Basis Set <=

  Basis Set: (AUG-CC-PVTZ AUX)
    Blend: AUG-CC-PVTZ-RI
    Number of shells: 350
    Number of basis function: 1276
    Number of Cartesian functions: 1609
    Spherical Harmonics?: true
    Max angular momentum: 4

	 --------------------------------------------------------
	                 NBF =   575, NAUX =  1276
	 --------------------------------------------------------
	   CLASS    FOCC     OCC    AOCC    AVIR     VIR    FVIR
	   PAIRS       0      33      33     542     542       0
	 --------------------------------------------------------

  DFHelper Memory: AOs need 3.047 GiB; user supplied 22.352 GiB. Using in-core AOs.


         ------------------------------------------------------------
                                     CPHF                           
                                  Rob Parrish                       
         ------------------------------------------------------------

  ==> Geometry <==

    Molecular point group: c1
    Full point group: C1

    Geometry (in Angstrom), charge = 0, multiplicity = 1:

       Center              X                  Y                   Z               Mass       
    ------------   -----------------  -----------------  -----------------  -----------------
         F           -0.076380432802     2.177909397449     0.009313002280    18.998403162730
         O            1.788350567198     0.327218397449     0.009521002280    15.994914619570
         C            0.497029567198    -0.116242602551     0.009538002280    12.000000000000
         C           -0.485259432802     0.887520397449     0.009424002280    12.000000000000
         C            0.079294567198    -1.450112602551     0.009652002280    12.000000000000
         C           -1.836947332802     0.593633097449    -0.090576997720    12.000000000000
         C           -1.287746432802    -1.756481602551     0.009652002280    12.000000000000
         C           -2.244485432802    -0.745370602551     0.009539002280    12.000000000000
         C            2.799332567198    -0.677793602551     0.009670002280    12.000000000000
         H            0.805669567198    -2.255707602551     0.009739002280     1.007825032230
         H           -2.549208432802     1.413486397449     0.009333002280     1.007825032230
         H           -1.595470432802    -2.798842602551     0.009742002280     1.007825032230
         H           -3.303381432802    -0.987522602551     0.009540002280     1.007825032230
         H            2.735532567198    -1.305973602551    -0.885366997720     1.007825032230
         H            2.735452567198    -1.305786602551     0.904834002280     1.007825032230
         H            3.743255567198    -0.134406602551     0.009655002280     1.007825032230

  Nuclear repulsion =  430.739727039287061
  Reference energy  = -443.585702856621992

  ==> Basis Set <==

  Basis Set: AUG-CC-PVTZ
    Blend: AUG-CC-PVTZ
    Number of shells: 189
    Number of basis function: 575
    Number of Cartesian functions: 670
    Spherical Harmonics?: true
    Max angular momentum: 3

  ==> CGRSolver (by Rob Parrish) <==

   Number of roots    =         1
   Preconditioning    =    JACOBI
   Convergence cutoff =     1E-06
   Maximum iterations =       100

  ==> CPHFRHamiltonian (by Rob Parrish) <== 

  ==> MemDFJK: Density-Fitted J/K Matrices <==

    J tasked:                   Yes
    K tasked:                   Yes
    wK tasked:                   No
    OpenMP threads:               8
    Memory [MiB]:             22888
    Algorithm:                 Disk
    Schwarz Cutoff:           1E-12
    Mask sparsity (%):       4.8339
    Fitting Condition:        1E-10

   => Auxiliary Basis Set <=

  Basis Set: (AUG-CC-PVTZ AUX)
    Blend: AUG-CC-PVTZ-JKFIT
    Number of shells: 368
    Number of basis function: 1258
    Number of Cartesian functions: 1564
    Spherical Harmonics?: true
    Max angular momentum: 4

  ==> CPHF Iterations <==

  => Iterations <=

             Iter  Converged  Remaining    Residual
  CGR           1          0          1   9.496E-02
  CGR           2          0          1   2.271E-02
  CGR           3          0          1   9.533E-03
  CGR           4          0          1   3.611E-03
  CGR           5          0          1   1.763E-03
  CGR           6          0          1   9.314E-04
  CGR           7          0          1   3.075E-04
  CGR           8          0          1   9.113E-05
  CGR           9          0          1   3.226E-05
  CGR          10          0          1   9.555E-06
  CGR          11          0          1   3.756E-06
  CGR          12          0          1   1.240E-06
  CGR          13          1          0   5.363E-07

    CGRSolver converged.

	-----------------------------------------------------------
	 ==================> DF-MP2 Energies <==================== 
	-----------------------------------------------------------
	 Reference Energy          =    -443.5857028566219924 [Eh]
	 Singles Energy            =      -0.0000000000000000 [Eh]
	 Same-Spin Energy          =      -0.4392179033927838 [Eh]
	 Opposite-Spin Energy      =      -1.3503357281444568 [Eh]
	 Correlation Energy        =      -1.7895536315372405 [Eh]
	 Total Energy              =    -445.3752564881592093 [Eh]
	-----------------------------------------------------------
	 ================> DF-SCS-MP2 Energies <================== 
	-----------------------------------------------------------
	 SCS Same-Spin Scale       =       0.3333333333333333 [-]
	 SCS Opposite-Spin Scale   =       1.2000000000000000 [-]
	 SCS Same-Spin Energy      =      -0.1464059677975946 [Eh]
	 SCS Opposite-Spin Energy  =      -1.6204028737733480 [Eh]
	 SCS Correlation Energy    =      -1.7668088415709426 [Eh]
	 SCS Total Energy          =    -445.3525116981929273 [Eh]
	-----------------------------------------------------------



Properties will be evaluated at   0.000000,   0.000000,   0.000000 [a0]

Properties computed using the MP2 density matrix

  Nuclear Dipole Moment: [e a0]
     X:     2.4917      Y:    -8.9666      Z:     0.0545

  Electronic Dipole Moment: [e a0]
     X:    -2.2943      Y:     7.9792      Z:    -0.0284

  Dipole Moment: [e a0]
     X:     0.1974      Y:    -0.9874      Z:     0.0261     Total:     1.0073

  Dipole Moment: [D]
     X:     0.5018      Y:    -2.5098      Z:     0.0664     Total:     2.5603


*** tstop() called on node144.bme.utexas.edu at Sat Mar 27 20:14:41 2021
Module time:
	user time   =     908.40 seconds =      15.14 minutes
	system time =      46.94 seconds =       0.78 minutes
	total time  =        154 seconds =       2.57 minutes
Total time:
	user time   =    1225.13 seconds =      20.42 minutes
	system time =      83.95 seconds =       1.40 minutes
	total time  =        225 seconds =       3.75 minutes

    Psi4 stopped on: Saturday, 27 March 2021 08:14PM
    Psi4 wall time for execution: 0:03:45.36

*** Psi4 exiting successfully. Buy a developer a beer!
