
    -----------------------------------------------------------------------
          Psi4: An Open-Source Ab Initio Electronic Structure Package
                               Psi4 1.4a3.dev225 

                         Git: Rev {master} 7105e37 


    D. G. A. Smith, L. A. Burns, A. C. Simmonett, R. M. Parrish,
    M. C. Schieber, R. Galvelis, P. Kraus, H. Kruse, R. Di Remigio,
    A. Alenaizan, A. M. James, S. Lehtola, J. P. Misiewicz, M. Scheurer,
    R. A. Shaw, J. B. Schriber, Y. Xie, Z. L. Glick, D. A. Sirianni,
    J. S. O'Brien, J. M. Waldrop, A. Kumar, E. G. Hohenstein,
    B. P. Pritchard, B. R. Brooks, H. F. Schaefer III, A. Yu. Sokolov,
    K. Patkowski, A. E. DePrince III, U. Bozkaya, R. A. King,
    F. A. Evangelista, J. M. Turney, T. D. Crawford, C. D. Sherrill,
    J. Chem. Phys. 152(18) 184108 (2020). https://doi.org/10.1063/5.0006002

                            Additional Code Authors
    E. T. Seidl, C. L. Janssen, E. F. Valeev, M. L. Leininger,
    J. F. Gonthier, R. M. Richard, H. R. McAlexander, M. Saitow, X. Wang,
    P. Verma, and M. H. Lechner

             Previous Authors, Complete List of Code Contributors,
                       and Citations for Specific Modules
    https://github.com/psi4/psi4/blob/master/codemeta.json
    https://github.com/psi4/psi4/graphs/contributors
    http://psicode.org/psi4manual/master/introduction.html#citing-psifour

    -----------------------------------------------------------------------


    Psi4 started on: Thursday, 01 April 2021 06:13AM

    Process ID: 131926
    Host:       c451-072.stampede2.tacc.utexas.edu
    PSIDATADIR: /home1/07844/xy3866/miniconda3/envs/p4env/share/psi4
    Memory:     500.0 MiB
    Threads:    8
    
  ==> Input File <==

--------------------------------------------------------------------------
#psi4
#
memory 32 gb

molecule  {
0 1
  I        3.0501070    -0.1728260     0.0000000
  I       -3.0501070    -0.1728260     0.0000000
  C        0.0000000     0.1252550     0.0000010
  C        1.2422480     1.0065380     0.0000000
  C       -1.2422490     1.0065380     0.0000000
  H        0.0000000    -0.5222500     0.8805730
  H        0.0000000    -0.4926316    -0.8402861
  H        1.2984770     1.6335130    -0.8904590
  H        1.2984780     1.6335140     0.8904580
  H       -1.2984780     1.6335130    -0.8904590
  H       -1.2984780     1.6335130     0.8904590
units angstrom
no_reorient  #important for SAPT in psi4, default
symmetry c1  #important for SAPT in psi4, default
}

set PROPERTIES_ORIGIN ["COM"]
properties('MP2/aug-cc-pvtz', properties = ['dipole'])
--------------------------------------------------------------------------

  Memory set to  29.802 GiB by Python driver.
    SCF Algorithm Type (re)set to DF.

*** tstart() called on c451-072.stampede2.tacc.utexas.edu
*** at Thu Apr  1 06:13:54 2021

   => Loading Basis Set <=

    Name: AUG-CC-PVTZ
    Role: ORBITAL
    Keyword: BASIS
    atoms 1-2  entry I          line  4496 (ECP: line  4576) file /home1/07844/xy3866/miniconda3/envs/p4env/share/psi4/basis/aug-cc-pvtz.gbs 
    atoms 3-5  entry C          line   239 file /home1/07844/xy3866/miniconda3/envs/p4env/share/psi4/basis/aug-cc-pvtz.gbs 
    atoms 6-11 entry H          line    40 file /home1/07844/xy3866/miniconda3/envs/p4env/share/psi4/basis/aug-cc-pvtz.gbs 

    !!!  WARNING: ECP capability is in beta. Please check occupations closely.  !!!


         ---------------------------------------------------------
                                   SCF
               by Justin Turney, Rob Parrish, Andy Simmonett
                          and Daniel G. A. Smith
                              RHF Reference
                        8 Threads,  30517 MiB Core
         ---------------------------------------------------------

  ==> Geometry <==

    Molecular point group: c1
    Full point group: C1

    Geometry (in Angstrom), charge = 0, multiplicity = 1:

       Center              X                  Y                   Z               Mass       
    ------------   -----------------  -----------------  -----------------  -----------------
         I            3.050107043967    -0.130094204948    -0.000137273380   126.904471900000
         I           -3.050106956033    -0.130094204948    -0.000137273380   126.904471900000
         C            0.000000043967     0.167986795052    -0.000136273380    12.000000000000
         C            1.242248043967     1.049269795052    -0.000137273380    12.000000000000
         C           -1.242248956033     1.049269795052    -0.000137273380    12.000000000000
         H            0.000000043967    -0.479518204948     0.880435726620     1.007825032230
         H            0.000000043967    -0.449899804948    -0.840423373380     1.007825032230
         H            1.298477043967     1.676244795052    -0.890596273380     1.007825032230
         H            1.298478043967     1.676245795052     0.890320726620     1.007825032230
         H           -1.298477956033     1.676244795052    -0.890596273380     1.007825032230
         H           -1.298477956033     1.676244795052     0.890321726620     1.007825032230

  Running in c1 symmetry.

  Rotational constants: A =      0.35482  B =      0.00700  C =      0.00689 [cm^-1]
  Rotational constants: A =  10637.34888  B =    209.72292  C =    206.45605 [MHz]
  Nuclear repulsion =  332.521178286480733

  Charge       = 0
  Multiplicity = 1
  Electrons    = 74
  Nalpha       = 37
  Nbeta        = 37

  ==> Algorithm <==

  SCF Algorithm Type is DF.
  DIIS enabled.
  MOM disabled.
  Fractional occupation disabled.
  Guess Type is SAD.
  Energy threshold   = 1.00e-10
  Density threshold  = 1.00e-10
  Integral threshold = 1.00e-12

  ==> Primary Basis <==

  Basis Set: AUG-CC-PVTZ
    Blend: AUG-CC-PVTZ
    Number of shells: 130
    Number of basis functions: 386
    Number of Cartesian functions: 445
    Spherical Harmonics?: true
    Max angular momentum: 3

  Core potential: AUG-CC-PVTZ
    Number of shells: 10
    Number of ECP primitives: 32
    Number of ECP core electrons: 56
    Max angular momentum: 4

   => Loading Basis Set <=

    Name: (AUG-CC-PVTZ AUX)
    Role: JKFIT
    Keyword: DF_BASIS_SCF
    atoms 1-2  entry I          line  4980 file /home1/07844/xy3866/miniconda3/envs/p4env/share/psi4/basis/def2-universal-jkfit.gbs 
    atoms 3-5  entry C          line   162 file /home1/07844/xy3866/miniconda3/envs/p4env/share/psi4/basis/aug-cc-pvtz-jkfit.gbs 
    atoms 6-11 entry H          line    70 file /home1/07844/xy3866/miniconda3/envs/p4env/share/psi4/basis/aug-cc-pvtz-jkfit.gbs 

  ==> Integral Setup <==

  DFHelper Memory: AOs need 1.176 GiB; user supplied 22.352 GiB. Using in-core AOs.

  ==> MemDFJK: Density-Fitted J/K Matrices <==

    J tasked:                   Yes
    K tasked:                   Yes
    wK tasked:                   No
    OpenMP threads:               8
    Memory [MiB]:             22888
    Algorithm:                 Core
    Schwarz Cutoff:           1E-12
    Mask sparsity (%):       1.2014
    Fitting Condition:        1E-10

   => Auxiliary Basis Set <=

  Basis Set: (AUG-CC-PVTZ AUX)
    Blend: AUG-CC-PVTZ-JKFIT + DEF2-UNIVERSAL-JKFIT
    Number of shells: 266
    Number of basis functions: 1024
    Number of Cartesian functions: 1341
    Spherical Harmonics?: true
    Max angular momentum: 5

  Minimum eigenvalue in the overlap matrix is 1.3325838716E-05.
  Reciprocal condition number of the overlap matrix is 8.0046960881E-07.
    Using symmetric orthogonalization.

  ==> Pre-Iterations <==

  SCF Guess: Superposition of Atomic Densities via on-the-fly atomic UHF (no occupation information).

   -------------------------
    Irrep   Nso     Nmo    
   -------------------------
     A        386     386 
   -------------------------
    Total     386     386
   -------------------------

  ==> Iterations <==

                           Total Energy        Delta E     RMS |[F,P]|

   @DF-RHF iter SAD:  -701.15089675403294   -7.01151e+02   0.00000e+00 
   @DF-RHF iter   1:  -705.87903466250771   -4.72814e+00   2.76213e-03 DIIS
   @DF-RHF iter   2:  -706.38935076738676   -5.10316e-01   1.30607e-03 DIIS
   @DF-RHF iter   3:  -706.46228643136192   -7.29357e-02   1.23860e-04 DIIS
   @DF-RHF iter   4:  -706.46485252947673   -2.56610e-03   3.74733e-05 DIIS
   @DF-RHF iter   5:  -706.46506296521625   -2.10436e-04   1.52707e-05 DIIS
   @DF-RHF iter   6:  -706.46509025545868   -2.72902e-05   4.28730e-06 DIIS
   @DF-RHF iter   7:  -706.46509311684542   -2.86139e-06   1.35665e-06 DIIS
   @DF-RHF iter   8:  -706.46509361514461   -4.98299e-07   5.09891e-07 DIIS
   @DF-RHF iter   9:  -706.46509367784313   -6.26985e-08   1.30342e-07 DIIS
   @DF-RHF iter  10:  -706.46509368210843   -4.26530e-09   3.03715e-08 DIIS
   @DF-RHF iter  11:  -706.46509368227760   -1.69166e-10   6.49242e-09 DIIS
   @DF-RHF iter  12:  -706.46509368228885   -1.12550e-11   2.11738e-09 DIIS
   @DF-RHF iter  13:  -706.46509368229033   -1.47793e-12   7.85097e-10 DIIS
   @DF-RHF iter  14:  -706.46509368229169   -1.36424e-12   2.32239e-10 DIIS
   @DF-RHF iter  15:  -706.46509368229204   -3.41061e-13   4.83308e-11 DIIS
  Energy and wave function converged.


  ==> Post-Iterations <==

    Orbital Energies [Eh]
    ---------------------

    Doubly Occupied:                                                      

       1A    -11.298252     2A    -11.298251     3A    -11.255957  
       4A     -7.717605     5A     -7.717604     6A     -5.549055  
       7A     -5.549055     8A     -5.539836     9A     -5.539836  
      10A     -5.539772    11A     -5.539772    12A     -2.278374  
      13A     -2.278371    14A     -2.273890    15A     -2.273888  
      16A     -2.273823    17A     -2.273821    18A     -2.263609  
      19A     -2.263609    20A     -2.263608    21A     -2.263608  
      22A     -1.111384    23A     -0.993586    24A     -0.897179  
      25A     -0.831036    26A     -0.826449    27A     -0.687227  
      28A     -0.602582    29A     -0.596637    30A     -0.572092  
      31A     -0.526236    32A     -0.475530    33A     -0.433558  
      34A     -0.372136    35A     -0.368130    36A     -0.365311  
      37A     -0.361850  

    Virtual:                                                              

      38A      0.023950    39A      0.037507    40A      0.042281  
      41A      0.045134    42A      0.051823    43A      0.060844  
      44A      0.062576    45A      0.063375    46A      0.086197  
      47A      0.101851    48A      0.110495    49A      0.117925  
      50A      0.118651    51A      0.120849    52A      0.121267  
      53A      0.123552    54A      0.125095    55A      0.141053  
      56A      0.142380    57A      0.155639    58A      0.160406  
      59A      0.161398    60A      0.171256    61A      0.179820  
      62A      0.199103    63A      0.199561    64A      0.200063  
      65A      0.207161    66A      0.207565    67A      0.233667  
      68A      0.235879    69A      0.243899    70A      0.255820  
      71A      0.259304    72A      0.265884    73A      0.266135  
      74A      0.267575    75A      0.295590    76A      0.301137  
      77A      0.306114    78A      0.312405    79A      0.317924  
      80A      0.319156    81A      0.326744    82A      0.333466  
      83A      0.350580    84A      0.365707    85A      0.372630  
      86A      0.372675    87A      0.373168    88A      0.380503  
      89A      0.383343    90A      0.389903    91A      0.396194  
      92A      0.403132    93A      0.409700    94A      0.418512  
      95A      0.426595    96A      0.428815    97A      0.431806  
      98A      0.432873    99A      0.446673   100A      0.458019  
     101A      0.487380   102A      0.491160   103A      0.495420  
     104A      0.501192   105A      0.507500   106A      0.512462  
     107A      0.527244   108A      0.528959   109A      0.529051  
     110A      0.533508   111A      0.535964   112A      0.552100  
     113A      0.570847   114A      0.577350   115A      0.604212  
     116A      0.607847   117A      0.611022   118A      0.633777  
     119A      0.639883   120A      0.646315   121A      0.658283  
     122A      0.662822   123A      0.669679   124A      0.673500  
     125A      0.675704   126A      0.686202   127A      0.699356  
     128A      0.702987   129A      0.715387   130A      0.720107  
     131A      0.744017   132A      0.744996   133A      0.748024  
     134A      0.754786   135A      0.760722   136A      0.764205  
     137A      0.779665   138A      0.796889   139A      0.799881  
     140A      0.811039   141A      0.815455   142A      0.820855  
     143A      0.831874   144A      0.833745   145A      0.859579  
     146A      0.865382   147A      0.870379   148A      0.873976  
     149A      0.878713   150A      0.885671   151A      0.892033  
     152A      0.905069   153A      0.910858   154A      0.927222  
     155A      0.933321   156A      0.938570   157A      0.959445  
     158A      0.963564   159A      0.978584   160A      0.980829  
     161A      0.982440   162A      0.994920   163A      1.003342  
     164A      1.028145   165A      1.036372   166A      1.040594  
     167A      1.062383   168A      1.081247   169A      1.095627  
     170A      1.100635   171A      1.106818   172A      1.122796  
     173A      1.125966   174A      1.133666   175A      1.137305  
     176A      1.153250   177A      1.207651   178A      1.212839  
     179A      1.218387   180A      1.223837   181A      1.234060  
     182A      1.243936   183A      1.255633   184A      1.268859  
     185A      1.273126   186A      1.281066   187A      1.308189  
     188A      1.318840   189A      1.339731   190A      1.375535  
     191A      1.379665   192A      1.381210   193A      1.397855  
     194A      1.404500   195A      1.437023   196A      1.454493  
     197A      1.481327   198A      1.493076   199A      1.507165  
     200A      1.514362   201A      1.514760   202A      1.517145  
     203A      1.522392   204A      1.532679   205A      1.547812  
     206A      1.568962   207A      1.571379   208A      1.574146  
     209A      1.584523   210A      1.585364   211A      1.588427  
     212A      1.621832   213A      1.631914   214A      1.633330  
     215A      1.645179   216A      1.648127   217A      1.652303  
     218A      1.653328   219A      1.656907   220A      1.667031  
     221A      1.669710   222A      1.681878   223A      1.693680  
     224A      1.718135   225A      1.724121   226A      1.734343  
     227A      1.737000   228A      1.742952   229A      1.759793  
     230A      1.769250   231A      1.776255   232A      1.801946  
     233A      1.818706   234A      1.820409   235A      1.832539  
     236A      1.843990   237A      1.878531   238A      1.900552  
     239A      1.907500   240A      1.913898   241A      1.915160  
     242A      1.919702   243A      1.939827   244A      1.940583  
     245A      1.949996   246A      1.972842   247A      1.982743  
     248A      1.984840   249A      2.022681   250A      2.051516  
     251A      2.062857   252A      2.082922   253A      2.090806  
     254A      2.100885   255A      2.113173   256A      2.158245  
     257A      2.195052   258A      2.216394   259A      2.234478  
     260A      2.267446   261A      2.272134   262A      2.277046  
     263A      2.278843   264A      2.281379   265A      2.318691  
     266A      2.389743   267A      2.423058   268A      2.429736  
     269A      2.447855   270A      2.523485   271A      2.524429  
     272A      2.530215   273A      2.665562   274A      2.676921  
     275A      2.694281   276A      2.909350   277A      3.162777  
     278A      3.202052   279A      3.222143   280A      3.254582  
     281A      3.292756   282A      3.297250   283A      3.352403  
     284A      3.388767   285A      3.392954   286A      3.461295  
     287A      3.485331   288A      3.490492   289A      3.522388  
     290A      3.534751   291A      3.549925   292A      3.553954  
     293A      3.576528   294A      3.620192   295A      3.663620  
     296A      3.678803   297A      3.704449   298A      3.712255  
     299A      3.728974   300A      3.761608   301A      3.770979  
     302A      3.795089   303A      3.798883   304A      3.822275  
     305A      3.857568   306A      3.885612   307A      3.888580  
     308A      3.890923   309A      3.929874   310A      3.947621  
     311A      3.996292   312A      4.015038   313A      4.021988  
     314A      4.029826   315A      4.063802   316A      4.085932  
     317A      4.092336   318A      4.148247   319A      4.176037  
     320A      4.197524   321A      4.203982   322A      4.225910  
     323A      4.240996   324A      4.282967   325A      4.295647  
     326A      4.360415   327A      4.384614   328A      4.398866  
     329A      4.416681   330A      4.523317   331A      4.549089  
     332A      4.580189   333A      4.603455   334A      4.627878  
     335A      4.654306   336A      4.707434   337A      4.721353  
     338A      4.753051   339A      4.784242   340A      4.828939  
     341A      4.875160   342A      4.897555   343A      4.938220  
     344A      4.948684   345A      4.999933   346A      5.023144  
     347A      5.081028   348A      5.087967   349A      5.101538  
     350A      5.114009   351A      5.131784   352A      5.172450  
     353A      5.205772   354A      5.227517   355A      5.248196  
     356A      5.281046   357A      5.294211   358A      5.363683  
     359A      5.379541   360A      5.435011   361A      5.548338  
     362A      5.572533   363A      5.578993   364A      5.665232  
     365A      5.684990   366A      5.769622   367A      5.851493  
     368A      5.907677   369A      5.930438   370A      6.016539  
     371A      6.074991   372A      6.140595   373A      6.193188  
     374A      6.285592   375A      6.289010   376A      6.351273  
     377A      6.696744   378A      6.722622   379A      6.890023  
     380A      7.826474   381A      8.580574   382A     17.003783  
     383A     17.193156   384A     18.255865   385A     59.047276  
     386A     59.050306  

    Final Occupation by Irrep:
              A 
    DOCC [    37 ]

  @DF-RHF Final Energy:  -706.46509368229204

   => Energetics <=

    Nuclear Repulsion Energy =            332.5211782864807333
    One-Electron Energy =               -1847.4275081493640300
    Two-Electron Energy =                 808.4412361805912042
    Total Energy =                       -706.4650936822920357

Computation Completed

*** tstop() called on c451-072.stampede2.tacc.utexas.edu at Thu Apr  1 06:15:37 2021
Module time:
	user time   =     555.57 seconds =       9.26 minutes
	system time =       5.58 seconds =       0.09 minutes
	total time  =        103 seconds =       1.72 minutes
Total time:
	user time   =     555.57 seconds =       9.26 minutes
	system time =       5.58 seconds =       0.09 minutes
	total time  =        103 seconds =       1.72 minutes
   => Loading Basis Set <=

    Name: (AUG-CC-PVTZ AUX)
    Role: RIFIT
    Keyword: DF_BASIS_MP2
    atoms 1-2  entry I          line  4948 file /home1/07844/xy3866/miniconda3/envs/p4env/share/psi4/basis/def2-qzvpp-ri.gbs 
    atoms 3-5  entry C          line   148 file /home1/07844/xy3866/miniconda3/envs/p4env/share/psi4/basis/aug-cc-pvtz-ri.gbs 
    atoms 6-11 entry H          line    30 file /home1/07844/xy3866/miniconda3/envs/p4env/share/psi4/basis/aug-cc-pvtz-ri.gbs 


*** tstart() called on c451-072.stampede2.tacc.utexas.edu
*** at Thu Apr  1 06:15:38 2021


  //>>>>>>>>>>>>>>>>>>>>>>>>>>>>>>>>>>>//
  //               DFMP2               //
  //<<<<<<<<<<<<<<<<<<<<<<<<<<<<<<<<<<<//

	 --------------------------------------------------------
	                          DF-MP2                         
	      2nd-Order Density-Fitted Moller-Plesset Theory     
	              RMP2 Wavefunction,   8 Threads             
	                                                         
	        Rob Parrish, Justin Turney, Andy Simmonett,      
	           Ed Hohenstein, and C. David Sherrill          
	 --------------------------------------------------------

   => Auxiliary Basis Set <=

  Basis Set: (AUG-CC-PVTZ AUX)
    Blend: AUG-CC-PVTZ-RI + DEF2-QZVPP-RI
    Number of shells: 268
    Number of basis functions: 1146
    Number of Cartesian functions: 1588
    Spherical Harmonics?: true
    Max angular momentum: 6

	 --------------------------------------------------------
	                 NBF =   386, NAUX =  1146
	 --------------------------------------------------------
	   CLASS    FOCC     OCC    AOCC    AVIR     VIR    FVIR
	   PAIRS       0      37      37     349     349       0
	 --------------------------------------------------------

  DFHelper Memory: AOs need 1.188 GiB; user supplied 22.352 GiB. Using in-core AOs.


         ------------------------------------------------------------
                                     CPHF                           
                                  Rob Parrish                       
         ------------------------------------------------------------

  ==> Geometry <==

    Molecular point group: c1
    Full point group: C1

    Geometry (in Angstrom), charge = 0, multiplicity = 1:

       Center              X                  Y                   Z               Mass       
    ------------   -----------------  -----------------  -----------------  -----------------
         I            3.050107043967    -0.130094204948    -0.000137273380   126.904471900000
         I           -3.050106956033    -0.130094204948    -0.000137273380   126.904471900000
         C            0.000000043967     0.167986795052    -0.000136273380    12.000000000000
         C            1.242248043967     1.049269795052    -0.000137273380    12.000000000000
         C           -1.242248956033     1.049269795052    -0.000137273380    12.000000000000
         H            0.000000043967    -0.479518204948     0.880435726620     1.007825032230
         H            0.000000043967    -0.449899804948    -0.840423373380     1.007825032230
         H            1.298477043967     1.676244795052    -0.890596273380     1.007825032230
         H            1.298478043967     1.676245795052     0.890320726620     1.007825032230
         H           -1.298477956033     1.676244795052    -0.890596273380     1.007825032230
         H           -1.298477956033     1.676244795052     0.890321726620     1.007825032230

  Nuclear repulsion =  332.521178286480733
  Reference energy  = -706.465093682292036

  ==> Basis Set <==

  Basis Set: AUG-CC-PVTZ
    Blend: AUG-CC-PVTZ
    Number of shells: 130
    Number of basis functions: 386
    Number of Cartesian functions: 445
    Spherical Harmonics?: true
    Max angular momentum: 3

  Core potential: AUG-CC-PVTZ
    Number of shells: 10
    Number of ECP primitives: 32
    Number of ECP core electrons: 56
    Max angular momentum: 4

  ==> CGRSolver (by Rob Parrish) <==

   Number of roots    =         1
   Preconditioning    =    JACOBI
   Convergence cutoff =     1E-06
   Maximum iterations =       100

  ==> CPHFRHamiltonian (by Rob Parrish) <== 

  ==> MemDFJK: Density-Fitted J/K Matrices <==

    J tasked:                   Yes
    K tasked:                   Yes
    wK tasked:                   No
    OpenMP threads:               8
    Memory [MiB]:             22888
    Algorithm:                 Core
    Schwarz Cutoff:           1E-12
    Mask sparsity (%):       0.2094
    Fitting Condition:        1E-10

   => Auxiliary Basis Set <=

  Basis Set: (AUG-CC-PVTZ AUX)
    Blend: AUG-CC-PVTZ-JKFIT + DEF2-UNIVERSAL-JKFIT
    Number of shells: 266
    Number of basis functions: 1024
    Number of Cartesian functions: 1341
    Spherical Harmonics?: true
    Max angular momentum: 5

  ==> CPHF Iterations <==

  => Iterations <=

             Iter  Converged  Remaining    Residual
  CGR           1          0          1   1.057E-01
  CGR           2          0          1   2.513E-02
  CGR           3          0          1   5.891E-03
  CGR           4          0          1   1.356E-03
  CGR           5          0          1   4.566E-04
  CGR           6          0          1   1.721E-04
  CGR           7          0          1   4.554E-05
  CGR           8          0          1   1.386E-05
  CGR           9          0          1   4.139E-06
  CGR          10          0          1   1.031E-06
  CGR          11          1          0   1.975E-07

    CGRSolver converged.

	-----------------------------------------------------------
	 ==================> DF-MP2 Energies <==================== 
	-----------------------------------------------------------
	 Reference Energy          =    -706.4650936822920357 [Eh]
	 Singles Energy            =      -0.0000000000000000 [Eh]
	 Same-Spin Energy          =      -0.2801578994766245 [Eh]
	 Opposite-Spin Energy      =      -0.8103161734255778 [Eh]
	 Correlation Energy        =      -1.0904740729022024 [Eh]
	 Total Energy              =    -707.5555677551942608 [Eh]
	-----------------------------------------------------------
	 ================> DF-SCS-MP2 Energies <================== 
	-----------------------------------------------------------
	 SCS Same-Spin Scale       =       0.3333333333333333 [-]
	 SCS Opposite-Spin Scale   =       1.2000000000000000 [-]
	 SCS Same-Spin Energy      =      -0.0933859664922082 [Eh]
	 SCS Opposite-Spin Energy  =      -0.9723794081106933 [Eh]
	 SCS Correlation Energy    =      -1.0657653746029014 [Eh]
	 SCS Total Energy          =    -707.5308590568948830 [Eh]
	-----------------------------------------------------------



Properties will be evaluated at   0.000000,  -0.000000,   0.000000 [a0]

Properties computed using the MP2 density matrix

  Nuclear Dipole Moment: [e a0]
     X:    -0.0000      Y:    24.3208      Z:     0.0569

  Electronic Dipole Moment: [e a0]
     X:     0.0000      Y:   -23.7017      Z:    -0.0593

  Dipole Moment: [e a0]
     X:    -0.0000      Y:     0.6191      Z:    -0.0023     Total:     0.6191

  Dipole Moment: [D]
     X:    -0.0000      Y:     1.5735      Z:    -0.0060     Total:     1.5735


*** tstop() called on c451-072.stampede2.tacc.utexas.edu at Thu Apr  1 06:17:49 2021
Module time:
	user time   =     538.10 seconds =       8.97 minutes
	system time =      10.01 seconds =       0.17 minutes
	total time  =        131 seconds =       2.18 minutes
Total time:
	user time   =    1094.58 seconds =      18.24 minutes
	system time =      15.63 seconds =       0.26 minutes
	total time  =        235 seconds =       3.92 minutes

    Psi4 stopped on: Thursday, 01 April 2021 06:17AM
    Psi4 wall time for execution: 0:03:55.32

*** Psi4 exiting successfully. Buy a developer a beer!
