
    -----------------------------------------------------------------------
          Psi4: An Open-Source Ab Initio Electronic Structure Package
                               Psi4 1.4a3.dev225 

                         Git: Rev {master} 7105e37 


    D. G. A. Smith, L. A. Burns, A. C. Simmonett, R. M. Parrish,
    M. C. Schieber, R. Galvelis, P. Kraus, H. Kruse, R. Di Remigio,
    A. Alenaizan, A. M. James, S. Lehtola, J. P. Misiewicz, M. Scheurer,
    R. A. Shaw, J. B. Schriber, Y. Xie, Z. L. Glick, D. A. Sirianni,
    J. S. O'Brien, J. M. Waldrop, A. Kumar, E. G. Hohenstein,
    B. P. Pritchard, B. R. Brooks, H. F. Schaefer III, A. Yu. Sokolov,
    K. Patkowski, A. E. DePrince III, U. Bozkaya, R. A. King,
    F. A. Evangelista, J. M. Turney, T. D. Crawford, C. D. Sherrill,
    J. Chem. Phys. 152(18) 184108 (2020). https://doi.org/10.1063/5.0006002

                            Additional Code Authors
    E. T. Seidl, C. L. Janssen, E. F. Valeev, M. L. Leininger,
    J. F. Gonthier, R. M. Richard, H. R. McAlexander, M. Saitow, X. Wang,
    P. Verma, and M. H. Lechner

             Previous Authors, Complete List of Code Contributors,
                       and Citations for Specific Modules
    https://github.com/psi4/psi4/blob/master/codemeta.json
    https://github.com/psi4/psi4/graphs/contributors
    http://psicode.org/psi4manual/master/introduction.html#citing-psifour

    -----------------------------------------------------------------------


    Psi4 started on: Saturday, 06 March 2021 04:35PM

    Process ID: 109217
    Host:       c418-093.stampede2.tacc.utexas.edu
    PSIDATADIR: /home1/07844/xy3866/miniconda3/envs/p4env/share/psi4
    Memory:     500.0 MiB
    Threads:    32
    
  ==> Input File <==

--------------------------------------------------------------------------
#psi4
#
memory 32 gb

molecule  {
0 1
  I        3.0501070    -0.1728260     0.0000000
  I       -3.0501070    -0.1728260     0.0000000
  C        0.0000000     0.1252550     0.0000010
  C        1.2422480     1.0065380     0.0000000
  C       -1.2422490     1.0065380     0.0000000
  H        0.0000000    -0.6407311     1.0417010
  H        0.0000000    -0.5222520    -0.8805680
  H        1.2984770     1.6335130    -0.8904590
  H        1.2984780     1.6335140     0.8904580
  H       -1.2984780     1.6335130    -0.8904590
  H       -1.2984780     1.6335130     0.8904590
units angstrom
no_reorient  #important for SAPT in psi4, default
symmetry c1  #important for SAPT in psi4, default
}

set PROPERTIES_ORIGIN ["COM"]
properties('MP2/aug-cc-pvtz', properties = ['dipole'])
--------------------------------------------------------------------------

  Memory set to  29.802 GiB by Python driver.
    SCF Algorithm Type (re)set to DF.

*** tstart() called on c418-093.stampede2.tacc.utexas.edu
*** at Sat Mar  6 16:35:20 2021

   => Loading Basis Set <=

    Name: AUG-CC-PVTZ
    Role: ORBITAL
    Keyword: BASIS
    atoms 1-2  entry I          line  4496 (ECP: line  4576) file /home1/07844/xy3866/miniconda3/envs/p4env/share/psi4/basis/aug-cc-pvtz.gbs 
    atoms 3-5  entry C          line   239 file /home1/07844/xy3866/miniconda3/envs/p4env/share/psi4/basis/aug-cc-pvtz.gbs 
    atoms 6-11 entry H          line    40 file /home1/07844/xy3866/miniconda3/envs/p4env/share/psi4/basis/aug-cc-pvtz.gbs 

    !!!  WARNING: ECP capability is in beta. Please check occupations closely.  !!!


         ---------------------------------------------------------
                                   SCF
               by Justin Turney, Rob Parrish, Andy Simmonett
                          and Daniel G. A. Smith
                              RHF Reference
                       32 Threads,  30517 MiB Core
         ---------------------------------------------------------

  ==> Geometry <==

    Molecular point group: c1
    Full point group: C1

    Geometry (in Angstrom), charge = 0, multiplicity = 1:

       Center              X                  Y                   Z               Mass       
    ------------   -----------------  -----------------  -----------------  -----------------
         I            3.050107043967    -0.129589701228    -0.000548932323   126.904471900000
         I           -3.050106956033    -0.129589701228    -0.000548932323   126.904471900000
         C            0.000000043967     0.168491298772    -0.000547932323    12.000000000000
         C            1.242248043967     1.049774298772    -0.000548932323    12.000000000000
         C           -1.242248956033     1.049774298772    -0.000548932323    12.000000000000
         H            0.000000043967    -0.597494801228     1.041152067677     1.007825032230
         H            0.000000043967    -0.479015701228    -0.881116932323     1.007825032230
         H            1.298477043967     1.676749298772    -0.891007932323     1.007825032230
         H            1.298478043967     1.676750298772     0.889909067677     1.007825032230
         H           -1.298477956033     1.676749298772    -0.891007932323     1.007825032230
         H           -1.298477956033     1.676749298772     0.889910067677     1.007825032230

  Running in c1 symmetry.

  Rotational constants: A =      0.35085  B =      0.00699  C =      0.00689 [cm^-1]
  Rotational constants: A =  10518.18197  B =    209.68978  C =    206.44277 [MHz]
  Nuclear repulsion =  331.411137100709084

  Charge       = 0
  Multiplicity = 1
  Electrons    = 74
  Nalpha       = 37
  Nbeta        = 37

  ==> Algorithm <==

  SCF Algorithm Type is DF.
  DIIS enabled.
  MOM disabled.
  Fractional occupation disabled.
  Guess Type is SAD.
  Energy threshold   = 1.00e-10
  Density threshold  = 1.00e-10
  Integral threshold = 1.00e-12

  ==> Primary Basis <==

  Basis Set: AUG-CC-PVTZ
    Blend: AUG-CC-PVTZ
    Number of shells: 130
    Number of basis functions: 386
    Number of Cartesian functions: 445
    Spherical Harmonics?: true
    Max angular momentum: 3

  Core potential: AUG-CC-PVTZ
    Number of shells: 10
    Number of ECP primitives: 32
    Number of ECP core electrons: 56
    Max angular momentum: 4

   => Loading Basis Set <=

    Name: (AUG-CC-PVTZ AUX)
    Role: JKFIT
    Keyword: DF_BASIS_SCF
    atoms 1-2  entry I          line  4980 file /home1/07844/xy3866/miniconda3/envs/p4env/share/psi4/basis/def2-universal-jkfit.gbs 
    atoms 3-5  entry C          line   162 file /home1/07844/xy3866/miniconda3/envs/p4env/share/psi4/basis/aug-cc-pvtz-jkfit.gbs 
    atoms 6-11 entry H          line    70 file /home1/07844/xy3866/miniconda3/envs/p4env/share/psi4/basis/aug-cc-pvtz-jkfit.gbs 

  ==> Integral Setup <==

  DFHelper Memory: AOs need 1.203 GiB; user supplied 22.352 GiB. Using in-core AOs.

  ==> MemDFJK: Density-Fitted J/K Matrices <==

    J tasked:                   Yes
    K tasked:                   Yes
    wK tasked:                   No
    OpenMP threads:              32
    Memory [MiB]:             22888
    Algorithm:                 Core
    Schwarz Cutoff:           1E-12
    Mask sparsity (%):       1.2014
    Fitting Condition:        1E-10

   => Auxiliary Basis Set <=

  Basis Set: (AUG-CC-PVTZ AUX)
    Blend: AUG-CC-PVTZ-JKFIT + DEF2-UNIVERSAL-JKFIT
    Number of shells: 266
    Number of basis functions: 1024
    Number of Cartesian functions: 1341
    Spherical Harmonics?: true
    Max angular momentum: 5

  Minimum eigenvalue in the overlap matrix is 1.3748998477E-05.
  Reciprocal condition number of the overlap matrix is 8.3615360792E-07.
    Using symmetric orthogonalization.

  ==> Pre-Iterations <==

  SCF Guess: Superposition of Atomic Densities via on-the-fly atomic UHF (no occupation information).

   -------------------------
    Irrep   Nso     Nmo    
   -------------------------
     A        386     386 
   -------------------------
    Total     386     386
   -------------------------

  ==> Iterations <==

                           Total Energy        Delta E     RMS |[F,P]|

   @DF-RHF iter SAD:  -701.03178537239296   -7.01032e+02   0.00000e+00 
   @DF-RHF iter   1:  -705.85215807767327   -4.82037e+00   2.76501e-03 DIIS
   @DF-RHF iter   2:  -706.36853041717234   -5.16372e-01   1.31541e-03 DIIS
   @DF-RHF iter   3:  -706.44273327632061   -7.42029e-02   1.25047e-04 DIIS
   @DF-RHF iter   4:  -706.44533368138605   -2.60041e-03   4.22203e-05 DIIS
   @DF-RHF iter   5:  -706.44555322275585   -2.19541e-04   1.86793e-05 DIIS
   @DF-RHF iter   6:  -706.44559254716364   -3.93244e-05   4.01216e-06 DIIS
   @DF-RHF iter   7:  -706.44559497528587   -2.42812e-06   1.21139e-06 DIIS
   @DF-RHF iter   8:  -706.44559536148438   -3.86199e-07   4.58434e-07 DIIS
   @DF-RHF iter   9:  -706.44559541499450   -5.35101e-08   1.43113e-07 DIIS
   @DF-RHF iter  10:  -706.44559542091906   -5.92456e-09   3.70857e-08 DIIS
   @DF-RHF iter  11:  -706.44559542124296   -3.23894e-10   9.08559e-09 DIIS
   @DF-RHF iter  12:  -706.44559542127013   -2.71712e-11   3.09590e-09 DIIS
   @DF-RHF iter  13:  -706.44559542127411   -3.97904e-12   9.54772e-10 DIIS
   @DF-RHF iter  14:  -706.44559542127479   -6.82121e-13   3.06061e-10 DIIS
   @DF-RHF iter  15:  -706.44559542127502   -2.27374e-13   8.91749e-11 DIIS
  Energy and wave function converged.


  ==> Post-Iterations <==

    Orbital Energies [Eh]
    ---------------------

    Doubly Occupied:                                                      

       1A    -11.300125     2A    -11.300120     3A    -11.283327  
       4A     -7.717700     5A     -7.717700     6A     -5.549200  
       7A     -5.549200     8A     -5.539896     9A     -5.539895  
      10A     -5.539843    11A     -5.539843    12A     -2.278528  
      13A     -2.278525    14A     -2.274004    15A     -2.274002  
      16A     -2.273949    17A     -2.273947    18A     -2.263642  
      19A     -2.263642    20A     -2.263641    21A     -2.263641  
      22A     -1.105208    23A     -0.994628    24A     -0.890883  
      25A     -0.831643    26A     -0.813119    27A     -0.675249  
      28A     -0.603622    29A     -0.598539    30A     -0.565533  
      31A     -0.500110    32A     -0.469662    33A     -0.434533  
      34A     -0.371897    35A     -0.368199    36A     -0.365347  
      37A     -0.362046  

    Virtual:                                                              

      38A      0.023918    39A      0.037193    40A      0.042220  
      41A      0.045018    42A      0.050854    43A      0.061033  
      44A      0.062470    45A      0.063254    46A      0.085789  
      47A      0.101224    48A      0.110517    49A      0.117941  
      50A      0.118427    51A      0.120397    52A      0.121192  
      53A      0.123557    54A      0.124535    55A      0.141629  
      56A      0.141922    57A      0.154121    58A      0.160873  
      59A      0.160959    60A      0.171006    61A      0.179774  
      62A      0.197786    63A      0.198925    64A      0.199255  
      65A      0.199783    66A      0.207258    67A      0.224744  
      68A      0.236061    69A      0.243653    70A      0.255750  
      71A      0.259397    72A      0.265405    73A      0.265807  
      74A      0.267677    75A      0.295040    76A      0.301102  
      77A      0.306115    78A      0.311810    79A      0.317151  
      80A      0.317980    81A      0.326705    82A      0.332437  
      83A      0.349124    84A      0.353858    85A      0.371386  
      86A      0.373080    87A      0.373464    88A      0.378092  
      89A      0.382568    90A      0.385049    91A      0.386530  
      92A      0.398092    93A      0.408355    94A      0.414466  
      95A      0.417987    96A      0.425654    97A      0.428792  
      98A      0.432156    99A      0.446453   100A      0.457051  
     101A      0.484648   102A      0.486465   103A      0.493416  
     104A      0.497576   105A      0.505887   106A      0.511318  
     107A      0.524626   108A      0.527231   109A      0.529162  
     110A      0.532630   111A      0.535933   112A      0.551416  
     113A      0.568806   114A      0.576688   115A      0.601560  
     116A      0.606787   117A      0.609844   118A      0.631208  
     119A      0.636190   120A      0.646722   121A      0.658537  
     122A      0.662056   123A      0.667866   124A      0.669923  
     125A      0.672434   126A      0.685726   127A      0.697335  
     128A      0.702129   129A      0.714693   130A      0.720019  
     131A      0.736776   132A      0.743583   133A      0.745245  
     134A      0.751183   135A      0.758966   136A      0.763923  
     137A      0.778334   138A      0.778539   139A      0.799083  
     140A      0.806511   141A      0.810467   142A      0.810888  
     143A      0.832027   144A      0.834694   145A      0.855971  
     146A      0.864986   147A      0.867710   148A      0.870223  
     149A      0.882687   150A      0.884225   151A      0.888016  
     152A      0.899569   153A      0.901982   154A      0.925180  
     155A      0.934397   156A      0.941174   157A      0.952902  
     158A      0.958798   159A      0.974670   160A      0.978827  
     161A      0.983084   162A      0.993272   163A      1.001268  
     164A      1.019115   165A      1.029607   166A      1.037526  
     167A      1.064816   168A      1.071845   169A      1.080744  
     170A      1.092375   171A      1.098263   172A      1.119133  
     173A      1.124041   174A      1.129783   175A      1.139185  
     176A      1.159830   177A      1.189714   178A      1.202854  
     179A      1.208916   180A      1.216365   181A      1.233971  
     182A      1.233984   183A      1.257225   184A      1.257804  
     185A      1.262996   186A      1.269935   187A      1.306091  
     188A      1.308578   189A      1.331506   190A      1.360093  
     191A      1.370030   192A      1.379488   193A      1.397539  
     194A      1.408066   195A      1.429221   196A      1.454608  
     197A      1.468088   198A      1.484732   199A      1.492665  
     200A      1.502482   201A      1.512073   202A      1.512531  
     203A      1.517759   204A      1.530464   205A      1.550766  
     206A      1.562606   207A      1.563241   208A      1.568230  
     209A      1.582824   210A      1.585841   211A      1.586131  
     212A      1.622756   213A      1.626119   214A      1.632266  
     215A      1.632427   216A      1.636847   217A      1.643316  
     218A      1.653480   219A      1.653742   220A      1.654434  
     221A      1.662608   222A      1.677516   223A      1.692237  
     224A      1.705883   225A      1.713693   226A      1.728734  
     227A      1.730181   228A      1.741975   229A      1.770118  
     230A      1.772449   231A      1.775769   232A      1.781396  
     233A      1.804355   234A      1.809462   235A      1.819481  
     236A      1.844054   237A      1.855555   238A      1.866693  
     239A      1.893147   240A      1.903517   241A      1.915699  
     242A      1.917809   243A      1.924497   244A      1.934235  
     245A      1.938076   246A      1.958511   247A      1.972685  
     248A      1.979575   249A      2.017711   250A      2.019294  
     251A      2.042400   252A      2.065891   253A      2.083567  
     254A      2.098570   255A      2.104871   256A      2.146642  
     257A      2.164092   258A      2.190100   259A      2.222107  
     260A      2.231282   261A      2.259509   262A      2.263344  
     263A      2.267492   264A      2.268220   265A      2.310017  
     266A      2.364363   267A      2.378553   268A      2.439517  
     269A      2.448880   270A      2.485865   271A      2.517813  
     272A      2.525513   273A      2.651113   274A      2.676860  
     275A      2.695462   276A      2.923613   277A      3.175420  
     278A      3.194770   279A      3.207079   280A      3.260591  
     281A      3.285991   282A      3.291516   283A      3.351252  
     284A      3.362169   285A      3.392460   286A      3.446909  
     287A      3.463866   288A      3.473211   289A      3.498539  
     290A      3.515212   291A      3.532020   292A      3.538803  
     293A      3.564872   294A      3.607470   295A      3.676025  
     296A      3.686385   297A      3.705623   298A      3.707256  
     299A      3.740247   300A      3.743322   301A      3.763484  
     302A      3.787194   303A      3.791706   304A      3.808115  
     305A      3.828606   306A      3.876147   307A      3.883214  
     308A      3.898580   309A      3.931067   310A      3.936443  
     311A      3.954362   312A      3.987815   313A      4.002466  
     314A      4.023712   315A      4.035253   316A      4.070523  
     317A      4.088911   318A      4.135837   319A      4.164295  
     320A      4.175018   321A      4.175465   322A      4.194678  
     323A      4.242248   324A      4.250529   325A      4.271588  
     326A      4.285936   327A      4.318451   328A      4.355219  
     329A      4.386122   330A      4.437873   331A      4.498176  
     332A      4.514156   333A      4.578466   334A      4.594740  
     335A      4.609060   336A      4.630630   337A      4.639121  
     338A      4.677102   339A      4.760398   340A      4.801638  
     341A      4.809847   342A      4.818278   343A      4.874275  
     344A      4.897687   345A      4.915087   346A      4.974179  
     347A      4.989645   348A      5.051380   349A      5.053948  
     350A      5.070097   351A      5.084233   352A      5.106634  
     353A      5.184524   354A      5.203655   355A      5.214894  
     356A      5.230867   357A      5.259363   358A      5.264975  
     359A      5.364861   360A      5.369887   361A      5.425133  
     362A      5.453623   363A      5.465276   364A      5.477327  
     365A      5.546886   366A      5.647586   367A      5.759286  
     368A      5.768918   369A      5.873266   370A      5.961446  
     371A      5.968151   372A      6.009817   373A      6.048077  
     374A      6.153490   375A      6.243574   376A      6.328868  
     377A      6.567383   378A      6.715206   379A      6.800725  
     380A      7.781080   381A      8.581712   382A     16.513136  
     383A     17.041213   384A     17.574252   385A     59.046368  
     386A     59.051027  

    Final Occupation by Irrep:
              A 
    DOCC [    37 ]

  @DF-RHF Final Energy:  -706.44559542127502

   => Energetics <=

    Nuclear Repulsion Energy =            331.4111371007090838
    One-Electron Energy =               -1845.2442927651420632
    Two-Electron Energy =                 807.3875602431579637
    Total Energy =                       -706.4455954212750157

Computation Completed

*** tstop() called on c418-093.stampede2.tacc.utexas.edu at Sat Mar  6 16:36:20 2021
Module time:
	user time   =     686.33 seconds =      11.44 minutes
	system time =      20.94 seconds =       0.35 minutes
	total time  =         60 seconds =       1.00 minutes
Total time:
	user time   =     686.33 seconds =      11.44 minutes
	system time =      20.94 seconds =       0.35 minutes
	total time  =         60 seconds =       1.00 minutes
   => Loading Basis Set <=

    Name: (AUG-CC-PVTZ AUX)
    Role: RIFIT
    Keyword: DF_BASIS_MP2
    atoms 1-2  entry I          line  4948 file /home1/07844/xy3866/miniconda3/envs/p4env/share/psi4/basis/def2-qzvpp-ri.gbs 
    atoms 3-5  entry C          line   148 file /home1/07844/xy3866/miniconda3/envs/p4env/share/psi4/basis/aug-cc-pvtz-ri.gbs 
    atoms 6-11 entry H          line    30 file /home1/07844/xy3866/miniconda3/envs/p4env/share/psi4/basis/aug-cc-pvtz-ri.gbs 


*** tstart() called on c418-093.stampede2.tacc.utexas.edu
*** at Sat Mar  6 16:36:21 2021


  //>>>>>>>>>>>>>>>>>>>>>>>>>>>>>>>>>>>//
  //               DFMP2               //
  //<<<<<<<<<<<<<<<<<<<<<<<<<<<<<<<<<<<//

	 --------------------------------------------------------
	                          DF-MP2                         
	      2nd-Order Density-Fitted Moller-Plesset Theory     
	              RMP2 Wavefunction,  32 Threads             
	                                                         
	        Rob Parrish, Justin Turney, Andy Simmonett,      
	           Ed Hohenstein, and C. David Sherrill          
	 --------------------------------------------------------

   => Auxiliary Basis Set <=

  Basis Set: (AUG-CC-PVTZ AUX)
    Blend: AUG-CC-PVTZ-RI + DEF2-QZVPP-RI
    Number of shells: 268
    Number of basis functions: 1146
    Number of Cartesian functions: 1588
    Spherical Harmonics?: true
    Max angular momentum: 6

	 --------------------------------------------------------
	                 NBF =   386, NAUX =  1146
	 --------------------------------------------------------
	   CLASS    FOCC     OCC    AOCC    AVIR     VIR    FVIR
	   PAIRS       0      37      37     349     349       0
	 --------------------------------------------------------

  DFHelper Memory: AOs need 1.214 GiB; user supplied 22.352 GiB. Using in-core AOs.


         ------------------------------------------------------------
                                     CPHF                           
                                  Rob Parrish                       
         ------------------------------------------------------------

  ==> Geometry <==

    Molecular point group: c1
    Full point group: C1

    Geometry (in Angstrom), charge = 0, multiplicity = 1:

       Center              X                  Y                   Z               Mass       
    ------------   -----------------  -----------------  -----------------  -----------------
         I            3.050107043967    -0.129589701228    -0.000548932323   126.904471900000
         I           -3.050106956033    -0.129589701228    -0.000548932323   126.904471900000
         C            0.000000043967     0.168491298772    -0.000547932323    12.000000000000
         C            1.242248043967     1.049774298772    -0.000548932323    12.000000000000
         C           -1.242248956033     1.049774298772    -0.000548932323    12.000000000000
         H            0.000000043967    -0.597494801228     1.041152067677     1.007825032230
         H            0.000000043967    -0.479015701228    -0.881116932323     1.007825032230
         H            1.298477043967     1.676749298772    -0.891007932323     1.007825032230
         H            1.298478043967     1.676750298772     0.889909067677     1.007825032230
         H           -1.298477956033     1.676749298772    -0.891007932323     1.007825032230
         H           -1.298477956033     1.676749298772     0.889910067677     1.007825032230

  Nuclear repulsion =  331.411137100709084
  Reference energy  = -706.445595421275016

  ==> Basis Set <==

  Basis Set: AUG-CC-PVTZ
    Blend: AUG-CC-PVTZ
    Number of shells: 130
    Number of basis functions: 386
    Number of Cartesian functions: 445
    Spherical Harmonics?: true
    Max angular momentum: 3

  Core potential: AUG-CC-PVTZ
    Number of shells: 10
    Number of ECP primitives: 32
    Number of ECP core electrons: 56
    Max angular momentum: 4

  ==> CGRSolver (by Rob Parrish) <==

   Number of roots    =         1
   Preconditioning    =    JACOBI
   Convergence cutoff =     1E-06
   Maximum iterations =       100

  ==> CPHFRHamiltonian (by Rob Parrish) <== 

  ==> MemDFJK: Density-Fitted J/K Matrices <==

    J tasked:                   Yes
    K tasked:                   Yes
    wK tasked:                   No
    OpenMP threads:              32
    Memory [MiB]:             22888
    Algorithm:                 Core
    Schwarz Cutoff:           1E-12
    Mask sparsity (%):       0.2094
    Fitting Condition:        1E-10

   => Auxiliary Basis Set <=

  Basis Set: (AUG-CC-PVTZ AUX)
    Blend: AUG-CC-PVTZ-JKFIT + DEF2-UNIVERSAL-JKFIT
    Number of shells: 266
    Number of basis functions: 1024
    Number of Cartesian functions: 1341
    Spherical Harmonics?: true
    Max angular momentum: 5

  ==> CPHF Iterations <==

  => Iterations <=

             Iter  Converged  Remaining    Residual
  CGR           1          0          1   1.063E-01
  CGR           2          0          1   2.592E-02
  CGR           3          0          1   6.065E-03
  CGR           4          0          1   1.509E-03
  CGR           5          0          1   5.358E-04
  CGR           6          0          1   1.811E-04
  CGR           7          0          1   4.544E-05
  CGR           8          0          1   1.446E-05
  CGR           9          0          1   4.491E-06
  CGR          10          0          1   1.349E-06
  CGR          11          1          0   3.267E-07

    CGRSolver converged.

	-----------------------------------------------------------
	 ==================> DF-MP2 Energies <==================== 
	-----------------------------------------------------------
	 Reference Energy          =    -706.4455954212750157 [Eh]
	 Singles Energy            =      -0.0000000000000000 [Eh]
	 Same-Spin Energy          =      -0.2805559590009765 [Eh]
	 Opposite-Spin Energy      =      -0.8125625471990090 [Eh]
	 Correlation Energy        =      -1.0931185061999855 [Eh]
	 Total Energy              =    -707.5387139274749870 [Eh]
	-----------------------------------------------------------
	 ================> DF-SCS-MP2 Energies <================== 
	-----------------------------------------------------------
	 SCS Same-Spin Scale       =       0.3333333333333333 [-]
	 SCS Opposite-Spin Scale   =       1.2000000000000000 [-]
	 SCS Same-Spin Energy      =      -0.0935186530003255 [Eh]
	 SCS Opposite-Spin Energy  =      -0.9750750566388108 [Eh]
	 SCS Correlation Energy    =      -1.0685937096391362 [Eh]
	 SCS Total Energy          =    -707.5141891309141329 [Eh]
	-----------------------------------------------------------



Properties will be evaluated at   0.000000,  -0.000000,  -0.000000 [a0]

Properties computed using the MP2 density matrix

  Nuclear Dipole Moment: [e a0]
     X:    -0.0000      Y:    24.1115      Z:     0.2277

  Electronic Dipole Moment: [e a0]
     X:     0.0000      Y:   -23.4747      Z:    -0.2454

  Dipole Moment: [e a0]
     X:    -0.0000      Y:     0.6367      Z:    -0.0176     Total:     0.6370

  Dipole Moment: [D]
     X:    -0.0000      Y:     1.6184      Z:    -0.0448     Total:     1.6191


*** tstop() called on c418-093.stampede2.tacc.utexas.edu at Sat Mar  6 16:41:01 2021
Module time:
	user time   =     882.33 seconds =      14.71 minutes
	system time =      22.17 seconds =       0.37 minutes
	total time  =        280 seconds =       4.67 minutes
Total time:
	user time   =    1570.34 seconds =      26.17 minutes
	system time =      43.22 seconds =       0.72 minutes
	total time  =        341 seconds =       5.68 minutes

    Psi4 stopped on: Saturday, 06 March 2021 04:41PM
    Psi4 wall time for execution: 0:05:41.85

*** Psi4 exiting successfully. Buy a developer a beer!
