738070                                                                  
Freq      RMP2-FC                                                     6-31G(d)            
Number of atoms                            I               20
Info1-9                                    I   N=           9
          32          30        1002           0           0         100
           6           2           1
Charge                                     I                0
Multiplicity                               I                1
Number of electrons                        I              100
Number of alpha electrons                  I               50
Number of beta electrons                   I               50
Number of basis functions                  I              191
Number of independent functions            I              191
Number of point charges in /Mol/           I                0
Number of translation vectors              I                0
Atomic numbers                             I   N=          20
          16          16           8           8           7           6
           6           6           6           6           6           1
           1           1           1           1           1           1
           1           1
Nuclear charges                            R   N=          20
  1.60000000E+01  1.60000000E+01  8.00000000E+00  8.00000000E+00  7.00000000E+00
  6.00000000E+00  6.00000000E+00  6.00000000E+00  6.00000000E+00  6.00000000E+00
  6.00000000E+00  1.00000000E+00  1.00000000E+00  1.00000000E+00  1.00000000E+00
  1.00000000E+00  1.00000000E+00  1.00000000E+00  1.00000000E+00  1.00000000E+00
Current cartesian coordinates              R   N=          60
  1.89984317E+00 -1.41369352E-02 -1.46189729E+00 -3.20516200E+00 -2.20306094E+00
  2.19497569E-02  2.14284915E+00 -2.53582386E+00 -2.56385779E+00  2.61879375E+00
  2.29397155E+00 -2.79357647E+00  3.54916418E+00 -4.41855760E-02  1.23295733E+00
 -1.29659660E+00  3.54054729E-01 -5.97496251E-01  3.53427745E+00  2.34024702E+00
  2.63840004E+00  3.19970396E+00 -2.28369732E+00  2.82337827E+00 -2.52090620E+00
  2.62827344E+00 -1.92364716E-01 -5.04076186E+00  2.26645116E+00  6.18232637E-01
 -5.66629034E+00 -2.55619502E-01  8.34218783E-01  3.93822505E+00  3.88987226E+00
  1.34532623E+00  5.03728128E+00  2.23913898E+00  4.04944213E+00  1.72255795E+00
  2.67415186E+00  3.60078492E+00  3.26805598E+00 -3.96845447E+00  1.64330141E+00
  1.41183481E+00 -2.23199319E+00  3.88041963E+00  4.76866305E+00 -2.34295809E+00
  4.16384372E+00 -1.63162683E+00  4.43963266E+00 -5.55639114E-01 -6.35825440E+00
  3.78684025E+00  1.01398717E+00 -7.46548652E+00 -1.06520394E+00  1.38025447E+00
Force Field                                I                0
Int Atom Types                             I   N=          20
           0           0           0           0           0           0
           0           0           0           0           0           0
           0           0           0           0           0           0
           0           0
MM charges                                 R   N=          20
  0.00000000E+00  0.00000000E+00  0.00000000E+00  0.00000000E+00  0.00000000E+00
  0.00000000E+00  0.00000000E+00  0.00000000E+00  0.00000000E+00  0.00000000E+00
  0.00000000E+00  0.00000000E+00  0.00000000E+00  0.00000000E+00  0.00000000E+00
  0.00000000E+00  0.00000000E+00  0.00000000E+00  0.00000000E+00  0.00000000E+00
Integer atomic weights                     I   N=          20
          32          32          16          16          14          12
          12          12          12          12          12           1
           1           1           1           1           1           1
           1           1
Real atomic weights                        R   N=          20
  3.19720718E+01  3.19720718E+01  1.59949146E+01  1.59949146E+01  1.40030740E+01
  1.20000000E+01  1.20000000E+01  1.20000000E+01  1.20000000E+01  1.20000000E+01
  1.20000000E+01  1.00782504E+00  1.00782504E+00  1.00782504E+00  1.00782504E+00
  1.00782504E+00  1.00782504E+00  1.00782504E+00  1.00782504E+00  1.00782504E+00
Atom fragment info                         I   N=          20
           0           0           0           0           0           0
           0           0           0           0           0           0
           0           0           0           0           0           0
           0           0
Atom residue num                           I   N=          20
           0           0           0           0           0           0
           0           0           0           0           0           0
           0           0           0           0           0           0
           0           0
Nuclear spins                              I   N=          20
           0           0           0           0           2           0
           0           0           0           0           0           1
           1           1           1           1           1           1
           1           1
Nuclear ZEff                               R   N=          20
 -1.36000000E+01 -1.36000000E+01 -5.60000000E+00 -5.60000000E+00 -4.55000000E+00
 -3.60000000E+00 -3.60000000E+00 -3.60000000E+00 -3.60000000E+00 -3.60000000E+00
 -3.60000000E+00 -1.00000000E+00 -1.00000000E+00 -1.00000000E+00 -1.00000000E+00
 -1.00000000E+00 -1.00000000E+00 -1.00000000E+00 -1.00000000E+00 -1.00000000E+00
Nuclear QMom                               R   N=          20
  0.00000000E+00  0.00000000E+00  0.00000000E+00  0.00000000E+00  2.04400000E+00
  0.00000000E+00  0.00000000E+00  0.00000000E+00  0.00000000E+00  0.00000000E+00
  0.00000000E+00  0.00000000E+00  0.00000000E+00  0.00000000E+00  0.00000000E+00
  0.00000000E+00  0.00000000E+00  0.00000000E+00  0.00000000E+00  0.00000000E+00
Nuclear GFac                               R   N=          20
  0.00000000E+00  0.00000000E+00  0.00000000E+00  0.00000000E+00  4.03761000E-01
  0.00000000E+00  0.00000000E+00  0.00000000E+00  0.00000000E+00  0.00000000E+00
  0.00000000E+00  2.79284600E+00  2.79284600E+00  2.79284600E+00  2.79284600E+00
  2.79284600E+00  2.79284600E+00  2.79284600E+00  2.79284600E+00  2.79284600E+00
MicOpt                                     I   N=          20
          -1          -1          -1          -1          -1          -1
          -1          -1          -1          -1          -1          -1
          -1          -1          -1          -1          -1          -1
          -1          -1
Number of contracted shells                I               64
Number of primitive shells                 I              169
Pure/Cartesian d shells                    I                1
Pure/Cartesian f shells                    I                0
Highest angular momentum                   I                2
Largest degree of contraction              I                6
Shell types                                I   N=          64
           0          -1          -1          -1           2           0
          -1          -1          -1           2           0          -1
          -1           2           0          -1          -1           2
           0          -1          -1           2           0          -1
          -1           2           0          -1          -1           2
           0          -1          -1           2           0          -1
          -1           2           0          -1          -1           2
           0          -1          -1           2           0           0
           0           0           0           0           0           0
           0           0           0           0           0           0
           0           0           0           0
Number of primitives per shell             I   N=          64
           6           6           3           1           1           6
           6           3           1           1           6           3
           1           1           6           3           1           1
           6           3           1           1           6           3
           1           1           6           3           1           1
           6           3           1           1           6           3
           1           1           6           3           1           1
           6           3           1           1           3           1
           3           1           3           1           3           1
           3           1           3           1           3           1
           3           1           3           1
Shell to atom map                          I   N=          64
           1           1           1           1           1           2
           2           2           2           2           3           3
           3           3           4           4           4           4
           5           5           5           5           6           6
           6           6           7           7           7           7
           8           8           8           8           9           9
           9           9          10          10          10          10
          11          11          11          11          12          12
          13          13          14          14          15          15
          16          16          17          17          18          18
          19          19          20          20
Primitive exponents                        R   N=         169
  2.19171000E+04  3.30149000E+03  7.54146000E+02  2.12711000E+02  6.79896000E+01
  2.30515000E+01  4.23735000E+02  1.00710000E+02  3.21599000E+01  1.18079000E+01
  4.63110000E+00  1.87025000E+00  2.61584000E+00  9.22167000E-01  3.41287000E-01
  1.17167000E-01  6.50000000E-01  2.19171000E+04  3.30149000E+03  7.54146000E+02
  2.12711000E+02  6.79896000E+01  2.30515000E+01  4.23735000E+02  1.00710000E+02
  3.21599000E+01  1.18079000E+01  4.63110000E+00  1.87025000E+00  2.61584000E+00
  9.22167000E-01  3.41287000E-01  1.17167000E-01  6.50000000E-01  5.48467166E+03
  8.25234946E+02  1.88046958E+02  5.29645000E+01  1.68975704E+01  5.79963534E+00
  1.55396162E+01  3.59993359E+00  1.01376175E+00  2.70005823E-01  8.00000000E-01
  5.48467166E+03  8.25234946E+02  1.88046958E+02  5.29645000E+01  1.68975704E+01
  5.79963534E+00  1.55396162E+01  3.59993359E+00  1.01376175E+00  2.70005823E-01
  8.00000000E-01  4.17351146E+03  6.27457911E+02  1.42902093E+02  4.02343293E+01
  1.28202129E+01  4.39043701E+00  1.16263619E+01  2.71627981E+00  7.72218397E-01
  2.12031498E-01  8.00000000E-01  3.04752488E+03  4.57369518E+02  1.03948685E+02
  2.92101553E+01  9.28666296E+00  3.16392696E+00  7.86827235E+00  1.88128854E+00
  5.44249258E-01  1.68714478E-01  8.00000000E-01  3.04752488E+03  4.57369518E+02
  1.03948685E+02  2.92101553E+01  9.28666296E+00  3.16392696E+00  7.86827235E+00
  1.88128854E+00  5.44249258E-01  1.68714478E-01  8.00000000E-01  3.04752488E+03
  4.57369518E+02  1.03948685E+02  2.92101553E+01  9.28666296E+00  3.16392696E+00
  7.86827235E+00  1.88128854E+00  5.44249258E-01  1.68714478E-01  8.00000000E-01
  3.04752488E+03  4.57369518E+02  1.03948685E+02  2.92101553E+01  9.28666296E+00
  3.16392696E+00  7.86827235E+00  1.88128854E+00  5.44249258E-01  1.68714478E-01
  8.00000000E-01  3.04752488E+03  4.57369518E+02  1.03948685E+02  2.92101553E+01
  9.28666296E+00  3.16392696E+00  7.86827235E+00  1.88128854E+00  5.44249258E-01
  1.68714478E-01  8.00000000E-01  3.04752488E+03  4.57369518E+02  1.03948685E+02
  2.92101553E+01  9.28666296E+00  3.16392696E+00  7.86827235E+00  1.88128854E+00
  5.44249258E-01  1.68714478E-01  8.00000000E-01  1.87311370E+01  2.82539436E+00
  6.40121692E-01  1.61277759E-01  1.87311370E+01  2.82539436E+00  6.40121692E-01
  1.61277759E-01  1.87311370E+01  2.82539436E+00  6.40121692E-01  1.61277759E-01
  1.87311370E+01  2.82539436E+00  6.40121692E-01  1.61277759E-01  1.87311370E+01
  2.82539436E+00  6.40121692E-01  1.61277759E-01  1.87311370E+01  2.82539436E+00
  6.40121692E-01  1.61277759E-01  1.87311370E+01  2.82539436E+00  6.40121692E-01
  1.61277759E-01  1.87311370E+01  2.82539436E+00  6.40121692E-01  1.61277759E-01
  1.87311370E+01  2.82539436E+00  6.40121692E-01  1.61277759E-01
Contraction coefficients                   R   N=         169
  1.86924085E-03  1.42303065E-02  6.96962317E-02  2.38487108E-01  4.83307220E-01
  3.38074154E-01 -2.37677050E-03 -3.16930067E-02 -1.13317024E-01  5.60900118E-02
  5.92255124E-01  4.55006095E-01 -2.50373114E-01  6.69567631E-02  1.05450627E+00
  1.00000000E+00  1.00000000E+00  1.86924085E-03  1.42303065E-02  6.96962317E-02
  2.38487108E-01  4.83307220E-01  3.38074154E-01 -2.37677050E-03 -3.16930067E-02
 -1.13317024E-01  5.60900118E-02  5.92255124E-01  4.55006095E-01 -2.50373114E-01
  6.69567631E-02  1.05450627E+00  1.00000000E+00  1.00000000E+00  1.83107443E-03
  1.39501722E-02  6.84450781E-02  2.32714336E-01  4.70192898E-01  3.58520853E-01
 -1.10777550E-01 -1.48026263E-01  1.13076702E+00  1.00000000E+00  1.00000000E+00
  1.83107443E-03  1.39501722E-02  6.84450781E-02  2.32714336E-01  4.70192898E-01
  3.58520853E-01 -1.10777550E-01 -1.48026263E-01  1.13076702E+00  1.00000000E+00
  1.00000000E+00  1.83477216E-03  1.39946270E-02  6.85865518E-02  2.32240873E-01
  4.69069948E-01  3.60455199E-01 -1.14961182E-01 -1.69117479E-01  1.14585195E+00
  1.00000000E+00  1.00000000E+00  1.83473713E-03  1.40373228E-02  6.88426223E-02
  2.32184443E-01  4.67941348E-01  3.62311985E-01 -1.19332420E-01 -1.60854152E-01
  1.14345644E+00  1.00000000E+00  1.00000000E+00  1.83473713E-03  1.40373228E-02
  6.88426223E-02  2.32184443E-01  4.67941348E-01  3.62311985E-01 -1.19332420E-01
 -1.60854152E-01  1.14345644E+00  1.00000000E+00  1.00000000E+00  1.83473713E-03
  1.40373228E-02  6.88426223E-02  2.32184443E-01  4.67941348E-01  3.62311985E-01
 -1.19332420E-01 -1.60854152E-01  1.14345644E+00  1.00000000E+00  1.00000000E+00
  1.83473713E-03  1.40373228E-02  6.88426223E-02  2.32184443E-01  4.67941348E-01
  3.62311985E-01 -1.19332420E-01 -1.60854152E-01  1.14345644E+00  1.00000000E+00
  1.00000000E+00  1.83473713E-03  1.40373228E-02  6.88426223E-02  2.32184443E-01
  4.67941348E-01  3.62311985E-01 -1.19332420E-01 -1.60854152E-01  1.14345644E+00
  1.00000000E+00  1.00000000E+00  1.83473713E-03  1.40373228E-02  6.88426223E-02
  2.32184443E-01  4.67941348E-01  3.62311985E-01 -1.19332420E-01 -1.60854152E-01
  1.14345644E+00  1.00000000E+00  1.00000000E+00  3.34946043E-02  2.34726953E-01
  8.13757326E-01  1.00000000E+00  3.34946043E-02  2.34726953E-01  8.13757326E-01
  1.00000000E+00  3.34946043E-02  2.34726953E-01  8.13757326E-01  1.00000000E+00
  3.34946043E-02  2.34726953E-01  8.13757326E-01  1.00000000E+00  3.34946043E-02
  2.34726953E-01  8.13757326E-01  1.00000000E+00  3.34946043E-02  2.34726953E-01
  8.13757326E-01  1.00000000E+00  3.34946043E-02  2.34726953E-01  8.13757326E-01
  1.00000000E+00  3.34946043E-02  2.34726953E-01  8.13757326E-01  1.00000000E+00
  3.34946043E-02  2.34726953E-01  8.13757326E-01  1.00000000E+00
P(S=P) Contraction coefficients            R   N=         169
  0.00000000E+00  0.00000000E+00  0.00000000E+00  0.00000000E+00  0.00000000E+00
  0.00000000E+00  4.06100998E-03  3.06812999E-02  1.30451999E-01  3.27204999E-01
  4.52850998E-01  2.56041999E-01 -1.45104895E-02  3.10262776E-01  7.54482456E-01
  1.00000000E+00  0.00000000E+00  0.00000000E+00  0.00000000E+00  0.00000000E+00
  0.00000000E+00  0.00000000E+00  0.00000000E+00  4.06100998E-03  3.06812999E-02
  1.30451999E-01  3.27204999E-01  4.52850998E-01  2.56041999E-01 -1.45104895E-02
  3.10262776E-01  7.54482456E-01  1.00000000E+00  0.00000000E+00  0.00000000E+00
  0.00000000E+00  0.00000000E+00  0.00000000E+00  0.00000000E+00  0.00000000E+00
  7.08742682E-02  3.39752839E-01  7.27158577E-01  1.00000000E+00  0.00000000E+00
  0.00000000E+00  0.00000000E+00  0.00000000E+00  0.00000000E+00  0.00000000E+00
  0.00000000E+00  7.08742682E-02  3.39752839E-01  7.27158577E-01  1.00000000E+00
  0.00000000E+00  0.00000000E+00  0.00000000E+00  0.00000000E+00  0.00000000E+00
  0.00000000E+00  0.00000000E+00  6.75797439E-02  3.23907296E-01  7.40895140E-01
  1.00000000E+00  0.00000000E+00  0.00000000E+00  0.00000000E+00  0.00000000E+00
  0.00000000E+00  0.00000000E+00  0.00000000E+00  6.89990666E-02  3.16423961E-01
  7.44308291E-01  1.00000000E+00  0.00000000E+00  0.00000000E+00  0.00000000E+00
  0.00000000E+00  0.00000000E+00  0.00000000E+00  0.00000000E+00  6.89990666E-02
  3.16423961E-01  7.44308291E-01  1.00000000E+00  0.00000000E+00  0.00000000E+00
  0.00000000E+00  0.00000000E+00  0.00000000E+00  0.00000000E+00  0.00000000E+00
  6.89990666E-02  3.16423961E-01  7.44308291E-01  1.00000000E+00  0.00000000E+00
  0.00000000E+00  0.00000000E+00  0.00000000E+00  0.00000000E+00  0.00000000E+00
  0.00000000E+00  6.89990666E-02  3.16423961E-01  7.44308291E-01  1.00000000E+00
  0.00000000E+00  0.00000000E+00  0.00000000E+00  0.00000000E+00  0.00000000E+00
  0.00000000E+00  0.00000000E+00  6.89990666E-02  3.16423961E-01  7.44308291E-01
  1.00000000E+00  0.00000000E+00  0.00000000E+00  0.00000000E+00  0.00000000E+00
  0.00000000E+00  0.00000000E+00  0.00000000E+00  6.89990666E-02  3.16423961E-01
  7.44308291E-01  1.00000000E+00  0.00000000E+00  0.00000000E+00  0.00000000E+00
  0.00000000E+00  0.00000000E+00  0.00000000E+00  0.00000000E+00  0.00000000E+00
  0.00000000E+00  0.00000000E+00  0.00000000E+00  0.00000000E+00  0.00000000E+00
  0.00000000E+00  0.00000000E+00  0.00000000E+00  0.00000000E+00  0.00000000E+00
  0.00000000E+00  0.00000000E+00  0.00000000E+00  0.00000000E+00  0.00000000E+00
  0.00000000E+00  0.00000000E+00  0.00000000E+00  0.00000000E+00  0.00000000E+00
  0.00000000E+00  0.00000000E+00  0.00000000E+00  0.00000000E+00  0.00000000E+00
  0.00000000E+00  0.00000000E+00  0.00000000E+00  0.00000000E+00
Coordinates of each shell                  R   N=         192
  1.89984317E+00 -1.41369352E-02 -1.46189729E+00  1.89984317E+00 -1.41369352E-02
 -1.46189729E+00  1.89984317E+00 -1.41369352E-02 -1.46189729E+00  1.89984317E+00
 -1.41369352E-02 -1.46189729E+00  1.89984317E+00 -1.41369352E-02 -1.46189729E+00
 -3.20516200E+00 -2.20306094E+00  2.19497569E-02 -3.20516200E+00 -2.20306094E+00
  2.19497569E-02 -3.20516200E+00 -2.20306094E+00  2.19497569E-02 -3.20516200E+00
 -2.20306094E+00  2.19497569E-02 -3.20516200E+00 -2.20306094E+00  2.19497569E-02
  2.14284915E+00 -2.53582386E+00 -2.56385779E+00  2.14284915E+00 -2.53582386E+00
 -2.56385779E+00  2.14284915E+00 -2.53582386E+00 -2.56385779E+00  2.14284915E+00
 -2.53582386E+00 -2.56385779E+00  2.61879375E+00  2.29397155E+00 -2.79357647E+00
  2.61879375E+00  2.29397155E+00 -2.79357647E+00  2.61879375E+00  2.29397155E+00
 -2.79357647E+00  2.61879375E+00  2.29397155E+00 -2.79357647E+00  3.54916418E+00
 -4.41855760E-02  1.23295733E+00  3.54916418E+00 -4.41855760E-02  1.23295733E+00
  3.54916418E+00 -4.41855760E-02  1.23295733E+00  3.54916418E+00 -4.41855760E-02
  1.23295733E+00 -1.29659660E+00  3.54054729E-01 -5.97496251E-01 -1.29659660E+00
  3.54054729E-01 -5.97496251E-01 -1.29659660E+00  3.54054729E-01 -5.97496251E-01
 -1.29659660E+00  3.54054729E-01 -5.97496251E-01  3.53427745E+00  2.34024702E+00
  2.63840004E+00  3.53427745E+00  2.34024702E+00  2.63840004E+00  3.53427745E+00
  2.34024702E+00  2.63840004E+00  3.53427745E+00  2.34024702E+00  2.63840004E+00
  3.19970396E+00 -2.28369732E+00  2.82337827E+00  3.19970396E+00 -2.28369732E+00
  2.82337827E+00  3.19970396E+00 -2.28369732E+00  2.82337827E+00  3.19970396E+00
 -2.28369732E+00  2.82337827E+00 -2.52090620E+00  2.62827344E+00 -1.92364716E-01
 -2.52090620E+00  2.62827344E+00 -1.92364716E-01 -2.52090620E+00  2.62827344E+00
 -1.92364716E-01 -2.52090620E+00  2.62827344E+00 -1.92364716E-01 -5.04076186E+00
  2.26645116E+00  6.18232637E-01 -5.04076186E+00  2.26645116E+00  6.18232637E-01
 -5.04076186E+00  2.26645116E+00  6.18232637E-01 -5.04076186E+00  2.26645116E+00
  6.18232637E-01 -5.66629034E+00 -2.55619502E-01  8.34218783E-01 -5.66629034E+00
 -2.55619502E-01  8.34218783E-01 -5.66629034E+00 -2.55619502E-01  8.34218783E-01
 -5.66629034E+00 -2.55619502E-01  8.34218783E-01  3.93822505E+00  3.88987226E+00
  1.34532623E+00  3.93822505E+00  3.88987226E+00  1.34532623E+00  5.03728128E+00
  2.23913898E+00  4.04944213E+00  5.03728128E+00  2.23913898E+00  4.04944213E+00
  1.72255795E+00  2.67415186E+00  3.60078492E+00  1.72255795E+00  2.67415186E+00
  3.60078492E+00  3.26805598E+00 -3.96845447E+00  1.64330141E+00  3.26805598E+00
 -3.96845447E+00  1.64330141E+00  1.41183481E+00 -2.23199319E+00  3.88041963E+00
  1.41183481E+00 -2.23199319E+00  3.88041963E+00  4.76866305E+00 -2.34295809E+00
  4.16384372E+00  4.76866305E+00 -2.34295809E+00  4.16384372E+00 -1.63162683E+00
  4.43963266E+00 -5.55639114E-01 -1.63162683E+00  4.43963266E+00 -5.55639114E-01
 -6.35825440E+00  3.78684025E+00  1.01398717E+00 -6.35825440E+00  3.78684025E+00
  1.01398717E+00 -7.46548652E+00 -1.06520394E+00  1.38025447E+00 -7.46548652E+00
 -1.06520394E+00  1.38025447E+00
Constraint Structure                       R   N=          60
  1.89984317E+00 -1.41369352E-02 -1.46189729E+00 -3.20516200E+00 -2.20306094E+00
  2.19497569E-02  2.14284915E+00 -2.53582386E+00 -2.56385779E+00  2.61879375E+00
  2.29397155E+00 -2.79357647E+00  3.54916418E+00 -4.41855760E-02  1.23295733E+00
 -1.29659660E+00  3.54054729E-01 -5.97496251E-01  3.53427745E+00  2.34024702E+00
  2.63840004E+00  3.19970396E+00 -2.28369732E+00  2.82337827E+00 -2.52090620E+00
  2.62827344E+00 -1.92364716E-01 -5.04076186E+00  2.26645116E+00  6.18232637E-01
 -5.66629034E+00 -2.55619502E-01  8.34218783E-01  3.93822505E+00  3.88987226E+00
  1.34532623E+00  5.03728128E+00  2.23913898E+00  4.04944213E+00  1.72255795E+00
  2.67415186E+00  3.60078492E+00  3.26805598E+00 -3.96845447E+00  1.64330141E+00
  1.41183481E+00 -2.23199319E+00  3.88041963E+00  4.76866305E+00 -2.34295809E+00
  4.16384372E+00 -1.63162683E+00  4.43963266E+00 -5.55639114E-01 -6.35825440E+00
  3.78684025E+00  1.01398717E+00 -7.46548652E+00 -1.06520394E+00  1.38025447E+00
Num ILSW                                   I              100
ILSW                                       I   N=         100
           0           1           0           0           2           0
           0           0           0           0           0          -1
           0           0           0           0           0           0
           0           0           0           0           1           0
           1           0           0           0           0           0
           0           0      100000           0          -1           0
           0           0           0           0           0           0
           0           0           0           1           1           0
           0           0           1           0           0           0
           0           0           4          40           0           0
           0           0           0           0           0           0
           0           0           0           0           0           0
           0           0           0           0           0           0
           0           0           0           0           0           0
           0           0           0           0           0           0
           0           0           0           0           0           0
           0           0           0           0
Num RLSW                                   I               40
RLSW                                       R   N=          40
  1.00000000E+00  1.00000000E+00  1.00000000E+00  1.00000000E+00  1.00000000E+00
  0.00000000E+00  0.00000000E+00  1.00000000E+00  0.00000000E+00  0.00000000E+00
  0.00000000E+00  0.00000000E+00  1.00000000E+00  0.00000000E+00  0.00000000E+00
  0.00000000E+00  0.00000000E+00  1.00000000E+00  0.00000000E+00  0.00000000E+00
  0.00000000E+00  0.00000000E+00  1.00000000E+00  0.00000000E+00  0.00000000E+00
  0.00000000E+00  0.00000000E+00  1.00000000E+00  0.00000000E+00  0.00000000E+00
  0.00000000E+00  0.00000000E+00  0.00000000E+00  0.00000000E+00  0.00000000E+00
  0.00000000E+00  0.00000000E+00  0.00000000E+00  1.00000000E+00  1.00000000E+00
MxBond                                     I                4
NBond                                      I   N=          20
           4           2           1           1           3           3
           4           4           3           3           3           1
           1           1           1           1           1           1
           1           1
IBond                                      I   N=          80
           3           4           5           6           6          11
           0           0           1           0           0           0
           1           0           0           0           1           7
           8           0           1           2           9           0
           5          12          13          14           5          15
          16          17           6          10          18           0
           9          11          19           0           2          10
          20           0           7           0           0           0
           7           0           0           0           7           0
           0           0           8           0           0           0
           8           0           0           0           8           0
           0           0           9           0           0           0
          10           0           0           0          11           0
           0           0
RBond                                      R   N=          80
  2.00000000E+00  2.00000000E+00  1.00000000E+00  1.00000000E+00  2.00000000E+00
  1.00000000E+00  0.00000000E+00  0.00000000E+00  2.00000000E+00  0.00000000E+00
  0.00000000E+00  0.00000000E+00  2.00000000E+00  0.00000000E+00  0.00000000E+00
  0.00000000E+00  1.00000000E+00  1.00000000E+00  1.00000000E+00  0.00000000E+00
  1.00000000E+00  2.00000000E+00  2.00000000E+00  0.00000000E+00  1.00000000E+00
  1.00000000E+00  1.00000000E+00  1.00000000E+00  1.00000000E+00  1.00000000E+00
  1.00000000E+00  1.00000000E+00  2.00000000E+00  1.50000000E+00  1.00000000E+00
  0.00000000E+00  1.50000000E+00  1.50000000E+00  1.00000000E+00  0.00000000E+00
  1.00000000E+00  1.50000000E+00  1.00000000E+00  0.00000000E+00  1.00000000E+00
  0.00000000E+00  0.00000000E+00  0.00000000E+00  1.00000000E+00  0.00000000E+00
  0.00000000E+00  0.00000000E+00  1.00000000E+00  0.00000000E+00  0.00000000E+00
  0.00000000E+00  1.00000000E+00  0.00000000E+00  0.00000000E+00  0.00000000E+00
  1.00000000E+00  0.00000000E+00  0.00000000E+00  0.00000000E+00  1.00000000E+00
  0.00000000E+00  0.00000000E+00  0.00000000E+00  1.00000000E+00  0.00000000E+00
  0.00000000E+00  0.00000000E+00  1.00000000E+00  0.00000000E+00  0.00000000E+00
  0.00000000E+00  1.00000000E+00  0.00000000E+00  0.00000000E+00  0.00000000E+00
Virial Ratio                               R      2.001501106476295E+00
SCF Energy                                 R     -1.231527068621022E+03
MP2 Energy                                 R     -1.233103055943622E+03
Total Energy                               R     -1.233103055943622E+03
Post-SCF wavefunction norm                 R      1.760557456435008E+00
RMS Force                                  R      8.389007762868803E-07
RMS Density                                R      2.100811651890072E-09
External E-field                           R   N=          35
  0.00000000E+00  0.00000000E+00  0.00000000E+00  0.00000000E+00  0.00000000E+00
  0.00000000E+00  0.00000000E+00  0.00000000E+00  0.00000000E+00  0.00000000E+00
  0.00000000E+00  0.00000000E+00  0.00000000E+00  0.00000000E+00  0.00000000E+00
  0.00000000E+00  0.00000000E+00  0.00000000E+00  0.00000000E+00  0.00000000E+00
  0.00000000E+00  0.00000000E+00  0.00000000E+00  0.00000000E+00  0.00000000E+00
  0.00000000E+00  0.00000000E+00  0.00000000E+00  0.00000000E+00  0.00000000E+00
  0.00000000E+00  0.00000000E+00  0.00000000E+00  0.00000000E+00  0.00000000E+00
IOpCl                                      I                0
IROHF                                      I                0
Alpha Orbital Energies                     R   N=         191
 -9.22175483E+01 -9.20035214E+01 -2.05582873E+01 -2.05579092E+01 -1.56112453E+01
 -1.12999007E+01 -1.12967239E+01 -1.12795139E+01 -1.12734432E+01 -1.12718992E+01
 -1.12653792E+01 -9.18729603E+00 -9.01294216E+00 -6.87337396E+00 -6.87313525E+00
 -6.87265737E+00 -6.69534581E+00 -6.69438418E+00 -6.69279850E+00 -1.45937798E+00
 -1.34090283E+00 -1.25414846E+00 -1.20194042E+00 -1.03217443E+00 -1.01758294E+00
 -9.82625033E-01 -9.47967057E-01 -8.54569741E-01 -7.86102213E-01 -7.53810093E-01
 -7.27596823E-01 -7.03695588E-01 -6.61856814E-01 -6.58278880E-01 -6.27884902E-01
 -6.15076215E-01 -5.87261481E-01 -5.80123896E-01 -5.72708793E-01 -5.63682650E-01
 -5.46830411E-01 -5.42008868E-01 -5.07035079E-01 -4.97691362E-01 -4.92033432E-01
 -4.66740819E-01 -4.63393315E-01 -4.14543387E-01 -3.69933933E-01 -3.51733278E-01
  8.08668513E-02  1.68930772E-01  1.91407046E-01  2.16894947E-01  2.24273489E-01
  2.26221760E-01  2.57216823E-01  2.67508303E-01  2.80322563E-01  2.93492446E-01
  2.99632885E-01  3.04586363E-01  3.12570093E-01  3.18324263E-01  3.34380040E-01
  3.48639115E-01  3.59495969E-01  3.76603930E-01  3.86244006E-01  3.99096534E-01
  4.42433526E-01  4.91728557E-01  5.14446835E-01  5.26780041E-01  5.40464145E-01
  5.67076528E-01  5.93198777E-01  6.15202616E-01  6.54167759E-01  6.77119924E-01
  7.12150162E-01  7.35992351E-01  7.49821879E-01  7.62823913E-01  7.83488046E-01
  7.90557551E-01  8.07323654E-01  8.29987816E-01  8.41034930E-01  8.58755707E-01
  8.84264052E-01  9.08056837E-01  9.18554264E-01  9.58374658E-01  9.65091866E-01
  1.00208579E+00  1.01408351E+00  1.01666434E+00  1.02938590E+00  1.05879205E+00
  1.06143764E+00  1.08196281E+00  1.08930067E+00  1.10745221E+00  1.11683131E+00
  1.12657894E+00  1.13118634E+00  1.14831657E+00  1.16357781E+00  1.17262481E+00