
    -----------------------------------------------------------------------
          Psi4: An Open-Source Ab Initio Electronic Structure Package
                               Psi4 1.3.2 release

                         Git: Rev {HEAD} ecbda83 


    R. M. Parrish, L. A. Burns, D. G. A. Smith, A. C. Simmonett,
    A. E. DePrince III, E. G. Hohenstein, U. Bozkaya, A. Yu. Sokolov,
    R. Di Remigio, R. M. Richard, J. F. Gonthier, A. M. James,
    H. R. McAlexander, A. Kumar, M. Saitow, X. Wang, B. P. Pritchard,
    P. Verma, H. F. Schaefer III, K. Patkowski, R. A. King, E. F. Valeev,
    F. A. Evangelista, J. M. Turney, T. D. Crawford, and C. D. Sherrill,
    J. Chem. Theory Comput. 13(7) pp 3185--3197 (2017).
    (doi: 10.1021/acs.jctc.7b00174)


                         Additional Contributions by
    P. Kraus, H. Kruse, M. H. Lechner, M. C. Schieber, R. A. Shaw,
    A. Alenaizan, R. Galvelis, Z. L. Glick, S. Lehtola, and J. P. Misiewicz

    -----------------------------------------------------------------------


    Psi4 started on: Wednesday, 04 November 2020 12:45AM

    Process ID: 30928
    Host:       node74.bme.utexas.edu
    PSIDATADIR: /home/xy3866/psi4conda/share/psi4
    Memory:     500.0 MiB
    Threads:    8
    
  ==> Input File <==

--------------------------------------------------------------------------
#psi4
#
memory 32 gb

molecule  {
0 1
  O        0.0000880    -0.6211650    -0.0005950
  O       -1.2683150     1.1981060    -0.6159220
  O        1.2678170     1.1981120     0.6161180
  C       -1.2007280     0.0874770    -0.1468620
  C        1.2006690     0.0876850     0.1465060
  C       -2.1885546    -0.6606363     0.2487178
  C        2.3408080    -0.7753200    -0.3091130
  H       -3.2816210    -0.2684080     0.1012520
  H       -2.2447620    -0.9652410     1.3817000
  H       -2.3058710    -1.7394120    -0.2034460
  H        2.3088350    -1.7369770     0.2080250
  H        3.2815980    -0.2658330    -0.1045500
  H        2.2432560    -0.9696180    -1.3802210
units angstrom
no_reorient  #important for SAPT in psi4, default
symmetry c1  #important for SAPT in psi4, default
}

set PROPERTIES_ORIGIN ["COM"]
properties('MP2/aug-cc-pvtz', properties = ['dipole'])
--------------------------------------------------------------------------

  Memory set to  29.802 GiB by Python driver.
    SCF Algorithm Type (re)set to DF.

*** tstart() called on node74.bme.utexas.edu
*** at Wed Nov  4 00:45:05 2020

   => Loading Basis Set <=

    Name: AUG-CC-PVTZ
    Role: ORBITAL
    Keyword: BASIS
    atoms 1-3  entry O          line   327 file /home/xy3866/psi4conda/share/psi4/basis/aug-cc-pvtz.gbs 
    atoms 4-7  entry C          line   235 file /home/xy3866/psi4conda/share/psi4/basis/aug-cc-pvtz.gbs 
    atoms 8-13 entry H          line    36 file /home/xy3866/psi4conda/share/psi4/basis/aug-cc-pvtz.gbs 


         ---------------------------------------------------------
                                   SCF
               by Justin Turney, Rob Parrish, Andy Simmonett
                          and Daniel G. A. Smith
                              RHF Reference
                        8 Threads,  30517 MiB Core
         ---------------------------------------------------------

  ==> Geometry <==

    Molecular point group: c1
    Full point group: C1

    Geometry (in Angstrom), charge = 0, multiplicity = 1:

       Center              X                  Y                   Z               Mass       
    ------------   -----------------  -----------------  -----------------  -----------------
         O           -0.017761562637    -0.692420084067     0.006585266687    15.994914619570
         O           -1.286164562637     1.126850915933    -0.608741733313    15.994914619570
         O            1.249967437363     1.126856915933     0.623298266687    15.994914619570
         C           -1.218577562637     0.016221915933    -0.139681733313    12.000000000000
         C            1.182819437363     0.016429915933     0.153686266687    12.000000000000
         C           -2.206404162637    -0.731891384067     0.255898066687    12.000000000000
         C            2.322958437363    -0.846575084067    -0.301932733313    12.000000000000
         H           -3.299470562637    -0.339663084067     0.108432266687     1.007825032230
         H           -2.262611562637    -1.036496084067     1.388880266687     1.007825032230
         H           -2.323720562637    -1.810667084067    -0.196265733313     1.007825032230
         H            2.290985437363    -1.808232084067     0.215205266687     1.007825032230
         H            3.263748437363    -0.337088084067    -0.097369733313     1.007825032230
         H            2.225406437363    -1.040873084067    -1.373040733313     1.007825032230

  Running in c1 symmetry.

  Rotational constants: A =      0.18642  B =      0.06234  C =      0.05196 [cm^-1]
  Rotational constants: A =   5588.73922  B =   1868.96735  C =   1557.63132 [MHz]
  Nuclear repulsion =  304.789153257054522

  Charge       = 0
  Multiplicity = 1
  Electrons    = 54
  Nalpha       = 27
  Nbeta        = 27

  ==> Algorithm <==

  SCF Algorithm Type is DF.
  DIIS enabled.
  MOM disabled.
  Fractional occupation disabled.
  Guess Type is SAD.
  Energy threshold   = 1.00e-10
  Density threshold  = 1.00e-10
  Integral threshold = 0.00e+00

  ==> Primary Basis <==

  Basis Set: AUG-CC-PVTZ
    Blend: AUG-CC-PVTZ
    Number of shells: 152
    Number of basis function: 460
    Number of Cartesian functions: 535
    Spherical Harmonics?: true
    Max angular momentum: 3

   => Loading Basis Set <=

    Name: (AUG-CC-PVTZ AUX)
    Role: JKFIT
    Keyword: DF_BASIS_SCF
    atoms 1-3  entry O          line   286 file /home/xy3866/psi4conda/share/psi4/basis/aug-cc-pvtz-jkfit.gbs 
    atoms 4-7  entry C          line   162 file /home/xy3866/psi4conda/share/psi4/basis/aug-cc-pvtz-jkfit.gbs 
    atoms 8-13 entry H          line    70 file /home/xy3866/psi4conda/share/psi4/basis/aug-cc-pvtz-jkfit.gbs 

  ==> Pre-Iterations <==

   -------------------------------------------------------
    Irrep   Nso     Nmo     Nalpha   Nbeta   Ndocc  Nsocc
   -------------------------------------------------------
     A        460     460       0       0       0       0
   -------------------------------------------------------
    Total     460     460      27      27      27       0
   -------------------------------------------------------

  ==> Integral Setup <==

  DFHelper Memory: AOs need 1.582 GiB; user supplied 22.352 GiB. Using in-core AOs.

  ==> MemDFJK: Density-Fitted J/K Matrices <==

    J tasked:                   Yes
    K tasked:                   Yes
    wK tasked:                   No
    OpenMP threads:               8
    Memory [MiB]:             22888
    Algorithm:                 Core
    Schwarz Cutoff:           1E-12
    Mask sparsity (%):       4.0038
    Fitting Condition:        1E-10

   => Auxiliary Basis Set <=

  Basis Set: (AUG-CC-PVTZ AUX)
    Blend: AUG-CC-PVTZ-JKFIT
    Number of shells: 294
    Number of basis function: 1004
    Number of Cartesian functions: 1247
    Spherical Harmonics?: true
    Max angular momentum: 4

  Minimum eigenvalue in the overlap matrix is 1.0937387380E-05.
  Using Symmetric Orthogonalization.

  SCF Guess: Superposition of Atomic Densities via on-the-fly atomic UHF.

  ==> Iterations <==

                           Total Energy        Delta E     RMS |[F,P]|

   @DF-RHF iter SAD:  -378.54089883467054   -3.78541e+02   0.00000e+00 
   @DF-RHF iter   1:  -379.39002139085198   -8.49123e-01   1.66054e-03 DIIS
   @DF-RHF iter   2:  -379.57976421795905   -1.89743e-01   1.09883e-03 DIIS
   @DF-RHF iter   3:  -379.66290844482313   -8.31442e-02   2.11616e-04 DIIS
   @DF-RHF iter   4:  -379.66820433065106   -5.29589e-03   8.85150e-05 DIIS
   @DF-RHF iter   5:  -379.66943973744276   -1.23541e-03   2.29968e-05 DIIS
   @DF-RHF iter   6:  -379.66954729204861   -1.07555e-04   1.06645e-05 DIIS
   @DF-RHF iter   7:  -379.66957596158062   -2.86695e-05   4.13539e-06 DIIS
   @DF-RHF iter   8:  -379.66958029461028   -4.33303e-06   1.53862e-06 DIIS
   @DF-RHF iter   9:  -379.66958088859559   -5.93985e-07   4.81522e-07 DIIS
   @DF-RHF iter  10:  -379.66958093297978   -4.43842e-08   1.64280e-07 DIIS
   @DF-RHF iter  11:  -379.66958093669354   -3.71375e-09   4.87547e-08 DIIS
   @DF-RHF iter  12:  -379.66958093714015   -4.46619e-10   1.33603e-08 DIIS
   @DF-RHF iter  13:  -379.66958093718802   -4.78622e-11   3.91458e-09 DIIS
   @DF-RHF iter  14:  -379.66958093719273   -4.71800e-12   1.95197e-09 DIIS
   @DF-RHF iter  15:  -379.66958093719506   -2.33058e-12   7.77496e-10 DIIS
   @DF-RHF iter  16:  -379.66958093719489    1.70530e-13   2.90360e-10 DIIS
   @DF-RHF iter  17:  -379.66958093719495   -5.68434e-14   1.23547e-10 DIIS
   @DF-RHF iter  18:  -379.66958093719472    2.27374e-13   4.12008e-11 DIIS
  Energy and wave function converged.


  ==> Post-Iterations <==

    Orbital Energies [Eh]
    ---------------------

    Doubly Occupied:                                                      

       1A    -20.626804     2A    -20.564659     3A    -20.561642  
       4A    -11.402587     5A    -11.391962     6A    -11.263298  
       7A    -11.254524     8A     -1.488545     9A     -1.407471  
      10A     -1.365662    11A     -1.091495    12A     -1.028711  
      13A     -0.863559    14A     -0.749800    15A     -0.718794  
      16A     -0.700889    17A     -0.688198    18A     -0.640871  
      19A     -0.623847    20A     -0.599065    21A     -0.583596  
      22A     -0.557276    23A     -0.535838    24A     -0.504545  
      25A     -0.480202    26A     -0.476063    27A     -0.451625  

    Virtual:                                                              

      28A      0.022299    29A      0.030916    30A      0.038766  
      31A      0.044044    32A      0.052666    33A      0.056077  
      34A      0.069638    35A      0.096114    36A      0.103472  
      37A      0.108771    38A      0.110644    39A      0.112917  
      40A      0.115477    41A      0.120274    42A      0.123313  
      43A      0.129630    44A      0.129809    45A      0.145972  
      46A      0.152000    47A      0.154712    48A      0.161811  
      49A      0.182258    50A      0.189082    51A      0.195226  
      52A      0.198091    53A      0.201292    54A      0.210694  
      55A      0.232769    56A      0.236457    57A      0.241900  
      58A      0.265785    59A      0.270391    60A      0.274244  
      61A      0.282924    62A      0.286061    63A      0.288307  
      64A      0.294011    65A      0.306659    66A      0.309687  
      67A      0.311516    68A      0.326181    69A      0.330072  
      70A      0.333273    71A      0.334575    72A      0.344467  
      73A      0.349373    74A      0.351581    75A      0.367752  
      76A      0.375654    77A      0.380920    78A      0.385741  
      79A      0.398074    80A      0.399082    81A      0.400750  
      82A      0.408718    83A      0.419808    84A      0.422760  
      85A      0.427399    86A      0.432961    87A      0.435365  
      88A      0.437447    89A      0.452285    90A      0.463038  
      91A      0.464263    92A      0.482071    93A      0.488980  
      94A      0.500688    95A      0.509969    96A      0.513505  
      97A      0.523113    98A      0.530838    99A      0.535023  
     100A      0.542756   101A      0.555172   102A      0.560861  
     103A      0.571394   104A      0.579700   105A      0.595703  
     106A      0.607604   107A      0.623754   108A      0.626159  
     109A      0.640065   110A      0.642269   111A      0.673673  
     112A      0.695695   113A      0.702313   114A      0.711923  
     115A      0.723565   116A      0.729656   117A      0.739847  
     118A      0.755536   119A      0.775557   120A      0.788629  
     121A      0.796912   122A      0.801585   123A      0.809175  
     124A      0.821003   125A      0.827338   126A      0.834372  
     127A      0.839868   128A      0.849206   129A      0.860849  
     130A      0.866712   131A      0.875385   132A      0.885533  
     133A      0.887279   134A      0.889759   135A      0.900609  
     136A      0.905445   137A      0.909876   138A      0.926046  
     139A      0.929735   140A      0.938583   141A      0.943877  
     142A      0.962376   143A      0.965166   144A      0.972707  
     145A      0.975655   146A      0.979764   147A      0.994648  
     148A      1.012226   149A      1.020477   150A      1.027976  
     151A      1.033225   152A      1.038184   153A      1.044230  
     154A      1.065488   155A      1.069246   156A      1.077007  
     157A      1.087821   158A      1.094829   159A      1.107977  
     160A      1.117036   161A      1.121674   162A      1.133265  
     163A      1.138579   164A      1.157949   165A      1.163274  
     166A      1.174974   167A      1.183448   168A      1.186820  
     169A      1.198290   170A      1.206129   171A      1.216057  
     172A      1.219958   173A      1.230530   174A      1.237604  
     175A      1.239106   176A      1.248577   177A      1.273893  
     178A      1.284257   179A      1.289361   180A      1.326472  
     181A      1.330176   182A      1.335340   183A      1.359108  
     184A      1.368353   185A      1.397163   186A      1.408150  
     187A      1.428120   188A      1.435360   189A      1.452885  
     190A      1.460404   191A      1.467444   192A      1.480211  
     193A      1.487058   194A      1.495841   195A      1.525865  
     196A      1.534279   197A      1.547593   198A      1.559566  
     199A      1.562719   200A      1.569346   201A      1.595056  
     202A      1.596088   203A      1.614439   204A      1.620096  
     205A      1.629903   206A      1.646281   207A      1.658299  
     208A      1.670790   209A      1.678169   210A      1.693337  
     211A      1.701645   212A      1.708915   213A      1.724381  
     214A      1.734214   215A      1.747282   216A      1.755148  
     217A      1.765812   218A      1.770934   219A      1.793821  
     220A      1.808785   221A      1.818848   222A      1.831455  
     223A      1.846150   224A      1.856805   225A      1.877512  
     226A      1.894443   227A      1.907597   228A      1.916918  
     229A      1.926873   230A      1.944714   231A      1.973610  
     232A      1.975104   233A      2.006273   234A      2.071313  
     235A      2.088483   236A      2.112066   237A      2.121688  
     238A      2.129870   239A      2.147759   240A      2.160824  
     241A      2.164841   242A      2.175329   243A      2.192556  
     244A      2.199366   245A      2.218254   246A      2.231572  
     247A      2.247757   248A      2.275230   249A      2.287323  
     250A      2.357306   251A      2.383168   252A      2.387704  
     253A      2.405960   254A      2.447455   255A      2.470698  
     256A      2.477681   257A      2.488736   258A      2.526642  
     259A      2.557462   260A      2.569618   261A      2.582832  
     262A      2.591454   263A      2.597823   264A      2.608666  
     265A      2.645204   266A      2.649247   267A      2.656941  
     268A      2.687578   269A      2.713933   270A      2.731947  
     271A      2.757863   272A      2.784778   273A      2.808289  
     274A      2.827377   275A      2.854637   276A      2.867950  
     277A      2.882450   278A      2.901051   279A      2.925108  
     280A      2.948331   281A      2.964381   282A      2.999082  
     283A      3.023441   284A      3.041606   285A      3.051545  
     286A      3.069013   287A      3.092593   288A      3.125733  
     289A      3.156991   290A      3.205007   291A      3.244537  
     292A      3.251330   293A      3.285999   294A      3.297775  
     295A      3.332912   296A      3.366677   297A      3.377858  
     298A      3.384872   299A      3.406860   300A      3.428051  
     301A      3.459700   302A      3.499138   303A      3.530660  
     304A      3.538749   305A      3.543756   306A      3.578378  
     307A      3.593101   308A      3.610668   309A      3.619776  
     310A      3.621914   311A      3.646109   312A      3.671282  
     313A      3.682525   314A      3.701589   315A      3.710466  
     316A      3.714526   317A      3.758425   318A      3.776071  
     319A      3.827313   320A      3.843150   321A      3.856326  
     322A      3.879059   323A      3.890157   324A      3.895681  
     325A      3.910207   326A      3.917642   327A      3.933041  
     328A      3.942556   329A      3.956622   330A      3.969833  
     331A      3.996489   332A      4.003700   333A      4.027954  
     334A      4.062381   335A      4.068995   336A      4.081710  
     337A      4.088098   338A      4.110973   339A      4.136322  
     340A      4.146949   341A      4.187981   342A      4.213495  
     343A      4.223801   344A      4.266301   345A      4.283672  
     346A      4.301996   347A      4.308605   348A      4.332409  
     349A      4.363749   350A      4.388176   351A      4.399224  
     352A      4.426086   353A      4.452597   354A      4.458784  
     355A      4.480095   356A      4.501121   357A      4.519946  
     358A      4.526493   359A      4.560667   360A      4.605930  
     361A      4.669967   362A      4.693306   363A      4.703783  
     364A      4.717628   365A      4.746977   366A      4.779006  
     367A      4.785076   368A      4.797371   369A      4.810736  
     370A      4.854049   371A      4.892135   372A      4.895775  
     373A      4.930241   374A      4.956121   375A      5.004360  
     376A      5.008721   377A      5.016186   378A      5.029540  
     379A      5.053084   380A      5.095927   381A      5.125471  
     382A      5.132097   383A      5.155346   384A      5.179587  
     385A      5.192712   386A      5.269523   387A      5.284110  
     388A      5.317227   389A      5.344492   390A      5.365548  
     391A      5.401620   392A      5.447548   393A      5.504810  
     394A      5.507370   395A      5.610880   396A      5.627250  
     397A      5.662994   398A      5.693544   399A      5.697754  
     400A      5.718549   401A      5.762983   402A      5.830363  
     403A      5.960792   404A      6.000653   405A      6.007454  
     406A      6.036250   407A      6.073694   408A      6.099102  
     409A      6.129470   410A      6.146890   411A      6.302694  
     412A      6.468829   413A      6.557498   414A      6.628365  
     415A      6.651207   416A      6.686395   417A      6.711945  
     418A      6.726533   419A      6.752567   420A      6.757525  
     421A      6.778113   422A      6.857372   423A      6.867820  
     424A      6.943085   425A      6.944243   426A      7.062438  
     427A      7.081101   428A      7.109271   429A      7.180780  
     430A      7.205822   431A      7.257730   432A      7.296915  
     433A      7.352792   434A      7.372924   435A      7.396032  
     436A      7.410294   437A      7.457198   438A      7.480305  
     439A      7.526819   440A      7.552431   441A      7.658836  
     442A      7.663793   443A      7.690877   444A      7.737876  
     445A      7.747508   446A      7.810796   447A      7.887272  
     448A      7.904829   449A      7.924060   450A      7.999770  
     451A      8.047368   452A      8.365096   453A      8.391760  
     454A     14.592773   455A     15.874222   456A     16.272007  
     457A     17.263132   458A     18.596256   459A     18.985229  
     460A     19.273424  

    Final Occupation by Irrep:
              A 
    DOCC [    27 ]

  @DF-RHF Final Energy:  -379.66958093719472

   => Energetics <=

    Nuclear Repulsion Energy =            304.7891532570545223
    One-Electron Energy =               -1123.6744162015672828
    Two-Electron Energy =                 439.2156820073180370
    Total Energy =                       -379.6695809371947234

Computation Completed

*** tstop() called on node74.bme.utexas.edu at Wed Nov  4 00:45:17 2020
Module time:
	user time   =      75.15 seconds =       1.25 minutes
	system time =       2.19 seconds =       0.04 minutes
	total time  =         12 seconds =       0.20 minutes
Total time:
	user time   =      75.15 seconds =       1.25 minutes
	system time =       2.19 seconds =       0.04 minutes
	total time  =         12 seconds =       0.20 minutes
   => Loading Basis Set <=

    Name: (AUG-CC-PVTZ AUX)
    Role: RIFIT
    Keyword: DF_BASIS_MP2
    atoms 1-3  entry O          line   264 file /home/xy3866/psi4conda/share/psi4/basis/aug-cc-pvtz-ri.gbs 
    atoms 4-7  entry C          line   148 file /home/xy3866/psi4conda/share/psi4/basis/aug-cc-pvtz-ri.gbs 
    atoms 8-13 entry H          line    30 file /home/xy3866/psi4conda/share/psi4/basis/aug-cc-pvtz-ri.gbs 


*** tstart() called on node74.bme.utexas.edu
*** at Wed Nov  4 00:45:17 2020


  //>>>>>>>>>>>>>>>>>>>>>>>>>>>>>>>>>>>//
  //               DFMP2               //
  //<<<<<<<<<<<<<<<<<<<<<<<<<<<<<<<<<<<//

	 --------------------------------------------------------
	                          DF-MP2                         
	      2nd-Order Density-Fitted Moller-Plesset Theory     
	              RMP2 Wavefunction,   8 Threads             
	                                                         
	        Rob Parrish, Justin Turney, Andy Simmonett,      
	           Ed Hohenstein, and C. David Sherrill          
	 --------------------------------------------------------

   => Auxiliary Basis Set <=

  Basis Set: (AUG-CC-PVTZ AUX)
    Blend: AUG-CC-PVTZ-RI
    Number of shells: 280
    Number of basis function: 1018
    Number of Cartesian functions: 1282
    Spherical Harmonics?: true
    Max angular momentum: 4

	 --------------------------------------------------------
	                 NBF =   460, NAUX =  1018
	 --------------------------------------------------------
	   CLASS    FOCC     OCC    AOCC    AVIR     VIR    FVIR
	   PAIRS       0      27      27     433     433       0
	 --------------------------------------------------------

  DFHelper Memory: AOs need 1.582 GiB; user supplied 22.352 GiB. Using in-core AOs.


         ------------------------------------------------------------
                                     CPHF                           
                                  Rob Parrish                       
         ------------------------------------------------------------

  ==> Geometry <==

    Molecular point group: c1
    Full point group: C1

    Geometry (in Angstrom), charge = 0, multiplicity = 1:

       Center              X                  Y                   Z               Mass       
    ------------   -----------------  -----------------  -----------------  -----------------
         O           -0.017761562637    -0.692420084067     0.006585266687    15.994914619570
         O           -1.286164562637     1.126850915933    -0.608741733313    15.994914619570
         O            1.249967437363     1.126856915933     0.623298266687    15.994914619570
         C           -1.218577562637     0.016221915933    -0.139681733313    12.000000000000
         C            1.182819437363     0.016429915933     0.153686266687    12.000000000000
         C           -2.206404162637    -0.731891384067     0.255898066687    12.000000000000
         C            2.322958437363    -0.846575084067    -0.301932733313    12.000000000000
         H           -3.299470562637    -0.339663084067     0.108432266687     1.007825032230
         H           -2.262611562637    -1.036496084067     1.388880266687     1.007825032230
         H           -2.323720562637    -1.810667084067    -0.196265733313     1.007825032230
         H            2.290985437363    -1.808232084067     0.215205266687     1.007825032230
         H            3.263748437363    -0.337088084067    -0.097369733313     1.007825032230
         H            2.225406437363    -1.040873084067    -1.373040733313     1.007825032230

  Nuclear repulsion =  304.789153257054522
  Reference energy  = -379.669580937194723

  ==> Basis Set <==

  Basis Set: AUG-CC-PVTZ
    Blend: AUG-CC-PVTZ
    Number of shells: 152
    Number of basis function: 460
    Number of Cartesian functions: 535
    Spherical Harmonics?: true
    Max angular momentum: 3

  ==> CGRSolver (by Rob Parrish) <==

   Number of roots    =         1
   Preconditioning    =    JACOBI
   Convergence cutoff =     1E-06
   Maximum iterations =       100

  ==> CPHFRHamiltonian (by Rob Parrish) <== 

  ==> MemDFJK: Density-Fitted J/K Matrices <==

    J tasked:                   Yes
    K tasked:                   Yes
    wK tasked:                   No
    OpenMP threads:               8
    Memory [MiB]:             22888
    Algorithm:                 Core
    Schwarz Cutoff:           1E-12
    Mask sparsity (%):       4.0038
    Fitting Condition:        1E-10

   => Auxiliary Basis Set <=

  Basis Set: (AUG-CC-PVTZ AUX)
    Blend: AUG-CC-PVTZ-JKFIT
    Number of shells: 294
    Number of basis function: 1004
    Number of Cartesian functions: 1247
    Spherical Harmonics?: true
    Max angular momentum: 4

  ==> CPHF Iterations <==

  => Iterations <=

             Iter  Converged  Remaining    Residual
  CGR           1          0          1   1.199E-01
  CGR           2          0          1   3.751E-02
  CGR           3          0          1   1.267E-02
  CGR           4          0          1   4.516E-03
  CGR           5          0          1   1.433E-03
  CGR           6          0          1   3.591E-04
  CGR           7          0          1   1.021E-04
  CGR           8          0          1   3.809E-05
  CGR           9          0          1   1.243E-05
  CGR          10          0          1   5.120E-06
  CGR          11          0          1   1.638E-06
  CGR          12          1          0   7.382E-07

    CGRSolver converged.

	-----------------------------------------------------------
	 ==================> DF-MP2 Energies <==================== 
	-----------------------------------------------------------
	 Reference Energy          =    -379.6695809371947234 [Eh]
	 Singles Energy            =      -0.0000000000000000 [Eh]
	 Same-Spin Energy          =      -0.3672351742239193 [Eh]
	 Opposite-Spin Energy      =      -1.1349704929082542 [Eh]
	 Correlation Energy        =      -1.5022056671321735 [Eh]
	 Total Energy              =    -381.1717866043268828 [Eh]
	-----------------------------------------------------------
	 ================> DF-SCS-MP2 Energies <================== 
	-----------------------------------------------------------
	 SCS Same-Spin Scale       =       0.3333333333333333 [-]
	 SCS Opposite-Spin Scale   =       1.2000000000000000 [-]
	 SCS Same-Spin Energy      =      -0.1224117247413064 [Eh]
	 SCS Opposite-Spin Energy  =      -1.3619645914899050 [Eh]
	 SCS Correlation Energy    =      -1.4843763162312114 [Eh]
	 SCS Total Energy          =    -381.1539572534259150 [Eh]
	-----------------------------------------------------------



Properties will be evaluated at   0.000000,   0.000000,   0.000000 [a0]

Properties computed using the MP2 density matrix

  Nuclear Dipole Moment: [e a0]
     X:    -0.0993      Y:    -5.9670      Z:     0.0431

  Electronic Dipole Moment: [e a0]
     X:    -0.0207      Y:     4.3539      Z:     0.0053

  Dipole Moment: [e a0]
     X:    -0.1201      Y:    -1.6131      Z:     0.0484     Total:     1.6183

  Dipole Moment: [D]
     X:    -0.3052      Y:    -4.1000      Z:     0.1230     Total:     4.1132


*** tstop() called on node74.bme.utexas.edu at Wed Nov  4 00:45:59 2020
Module time:
	user time   =     244.81 seconds =       4.08 minutes
	system time =      18.63 seconds =       0.31 minutes
	total time  =         42 seconds =       0.70 minutes
Total time:
	user time   =     320.93 seconds =       5.35 minutes
	system time =      20.88 seconds =       0.35 minutes
	total time  =         54 seconds =       0.90 minutes

    Psi4 stopped on: Wednesday, 04 November 2020 12:45AM
    Psi4 wall time for execution: 0:00:54.01

*** Psi4 exiting successfully. Buy a developer a beer!
