104468716                                                               
Freq      RMP2-FC                                                     6-31G(d)            
Number of atoms                            I               20
Info1-9                                    I   N=           9
          32          30        1002           0           0         100
           6           2           1
Charge                                     I                0
Multiplicity                               I                1
Number of electrons                        I               92
Number of alpha electrons                  I               46
Number of beta electrons                   I               46
Number of basis functions                  I              200
Number of independent functions            I              200
Number of point charges in /Mol/           I                0
Number of translation vectors              I                0
Atomic numbers                             I   N=          20
          16           7           7           6           6           6
           6           6           6           6           6           6
           1           1           1           1           1           1
           1           1
Nuclear charges                            R   N=          20
  1.60000000E+01  7.00000000E+00  7.00000000E+00  6.00000000E+00  6.00000000E+00
  6.00000000E+00  6.00000000E+00  6.00000000E+00  6.00000000E+00  6.00000000E+00
  6.00000000E+00  6.00000000E+00  1.00000000E+00  1.00000000E+00  1.00000000E+00
  1.00000000E+00  1.00000000E+00  1.00000000E+00  1.00000000E+00  1.00000000E+00
Current cartesian coordinates              R   N=          60
  4.37038966E+00 -1.93422599E+00  1.01944803E-02 -1.14114793E+00 -2.77249873E+00
  4.85287181E-03  2.92246566E+00  2.74038858E+00 -1.01414715E-02 -5.02498323E+00
  9.02846993E-01 -2.49148666E-02 -6.24281439E-01 -2.76561031E-01 -2.81472342E-03
 -2.48484964E+00  1.60625891E+00 -1.49994812E-02  2.05705740E+00  3.92423112E-01
 -2.44108982E-03 -5.56969557E+00 -1.68805794E+00 -1.43560878E-02 -7.09821330E+00
  2.84787078E+00  2.71571389E-02 -3.59269138E+00 -3.42926189E+00 -1.81876367E-03
  6.62705814E+00  3.87369699E-01  4.81666478E-03  5.50695264E+00  2.73705383E+00
 -6.29503943E-03 -1.90810432E+00  3.57807067E+00 -2.84463279E-02 -7.51661006E+00
 -2.34859749E+00 -2.84149940E-02 -7.74239275E+00  3.18012776E+00  1.96575540E+00
 -6.44141215E+00  4.64999747E+00 -7.39277564E-01 -8.72900881E+00  2.22397830E+00
 -1.07856984E+00 -3.97615790E+00 -5.45078229E+00 -7.50587899E-04  8.62288066E+00
 -6.07490412E-02  9.40750423E-03  6.51722505E+00  4.52068673E+00 -1.17975876E-02
Force Field                                I                0
Int Atom Types                             I   N=          20
           0           0           0           0           0           0
           0           0           0           0           0           0
           0           0           0           0           0           0
           0           0
MM charges                                 R   N=          20
  0.00000000E+00  0.00000000E+00  0.00000000E+00  0.00000000E+00  0.00000000E+00
  0.00000000E+00  0.00000000E+00  0.00000000E+00  0.00000000E+00  0.00000000E+00
  0.00000000E+00  0.00000000E+00  0.00000000E+00  0.00000000E+00  0.00000000E+00
  0.00000000E+00  0.00000000E+00  0.00000000E+00  0.00000000E+00  0.00000000E+00
Integer atomic weights                     I   N=          20
          32          14          14          12          12          12
          12          12          12          12          12          12
           1           1           1           1           1           1
           1           1
Real atomic weights                        R   N=          20
  3.19720718E+01  1.40030740E+01  1.40030740E+01  1.20000000E+01  1.20000000E+01
  1.20000000E+01  1.20000000E+01  1.20000000E+01  1.20000000E+01  1.20000000E+01
  1.20000000E+01  1.20000000E+01  1.00782504E+00  1.00782504E+00  1.00782504E+00
  1.00782504E+00  1.00782504E+00  1.00782504E+00  1.00782504E+00  1.00782504E+00
Atom fragment info                         I   N=          20
           0           0           0           0           0           0
           0           0           0           0           0           0
           0           0           0           0           0           0
           0           0
Atom residue num                           I   N=          20
           0           0           0           0           0           0
           0           0           0           0           0           0
           0           0           0           0           0           0
           0           0
Nuclear spins                              I   N=          20
           0           2           2           0           0           0
           0           0           0           0           0           0
           1           1           1           1           1           1
           1           1
Nuclear ZEff                               R   N=          20
 -1.36000000E+01 -4.55000000E+00 -4.55000000E+00 -3.60000000E+00 -3.60000000E+00
 -3.60000000E+00 -3.60000000E+00 -3.60000000E+00 -3.60000000E+00 -3.60000000E+00
 -3.60000000E+00 -3.60000000E+00 -1.00000000E+00 -1.00000000E+00 -1.00000000E+00
 -1.00000000E+00 -1.00000000E+00 -1.00000000E+00 -1.00000000E+00 -1.00000000E+00
Nuclear QMom                               R   N=          20
  0.00000000E+00  2.04400000E+00  2.04400000E+00  0.00000000E+00  0.00000000E+00
  0.00000000E+00  0.00000000E+00  0.00000000E+00  0.00000000E+00  0.00000000E+00
  0.00000000E+00  0.00000000E+00  0.00000000E+00  0.00000000E+00  0.00000000E+00
  0.00000000E+00  0.00000000E+00  0.00000000E+00  0.00000000E+00  0.00000000E+00
Nuclear GFac                               R   N=          20
  0.00000000E+00  4.03761000E-01  4.03761000E-01  0.00000000E+00  0.00000000E+00
  0.00000000E+00  0.00000000E+00  0.00000000E+00  0.00000000E+00  0.00000000E+00
  0.00000000E+00  0.00000000E+00  2.79284600E+00  2.79284600E+00  2.79284600E+00
  2.79284600E+00  2.79284600E+00  2.79284600E+00  2.79284600E+00  2.79284600E+00
MicOpt                                     I   N=          20
          -1          -1          -1          -1          -1          -1
          -1          -1          -1          -1          -1          -1
          -1          -1          -1          -1          -1          -1
          -1          -1
Number of contracted shells                I               65
Number of primitive shells                 I              170
Pure/Cartesian d shells                    I                1
Pure/Cartesian f shells                    I                0
Highest angular momentum                   I                2
Largest degree of contraction              I                6
Shell types                                I   N=          65
           0          -1          -1          -1           2           0
          -1          -1           2           0          -1          -1
           2           0          -1          -1           2           0
          -1          -1           2           0          -1          -1
           2           0          -1          -1           2           0
          -1          -1           2           0          -1          -1
           2           0          -1          -1           2           0
          -1          -1           2           0          -1          -1
           2           0           0           0           0           0
           0           0           0           0           0           0
           0           0           0           0           0
Number of primitives per shell             I   N=          65
           6           6           3           1           1           6
           3           1           1           6           3           1
           1           6           3           1           1           6
           3           1           1           6           3           1
           1           6           3           1           1           6
           3           1           1           6           3           1
           1           6           3           1           1           6
           3           1           1           6           3           1
           1           3           1           3           1           3
           1           3           1           3           1           3
           1           3           1           3           1
Shell to atom map                          I   N=          65
           1           1           1           1           1           2
           2           2           2           3           3           3
           3           4           4           4           4           5
           5           5           5           6           6           6
           6           7           7           7           7           8
           8           8           8           9           9           9
           9          10          10          10          10          11
          11          11          11          12          12          12
          12          13          13          14          14          15
          15          16          16          17          17          18
          18          19          19          20          20
Primitive exponents                        R   N=         170
  2.19171000E+04  3.30149000E+03  7.54146000E+02  2.12711000E+02  6.79896000E+01
  2.30515000E+01  4.23735000E+02  1.00710000E+02  3.21599000E+01  1.18079000E+01
  4.63110000E+00  1.87025000E+00  2.61584000E+00  9.22167000E-01  3.41287000E-01
  1.17167000E-01  6.50000000E-01  4.17351146E+03  6.27457911E+02  1.42902093E+02
  4.02343293E+01  1.28202129E+01  4.39043701E+00  1.16263619E+01  2.71627981E+00
  7.72218397E-01  2.12031498E-01  8.00000000E-01  4.17351146E+03  6.27457911E+02
  1.42902093E+02  4.02343293E+01  1.28202129E+01  4.39043701E+00  1.16263619E+01
  2.71627981E+00  7.72218397E-01  2.12031498E-01  8.00000000E-01  3.04752488E+03
  4.57369518E+02  1.03948685E+02  2.92101553E+01  9.28666296E+00  3.16392696E+00
  7.86827235E+00  1.88128854E+00  5.44249258E-01  1.68714478E-01  8.00000000E-01
  3.04752488E+03  4.57369518E+02  1.03948685E+02  2.92101553E+01  9.28666296E+00
  3.16392696E+00  7.86827235E+00  1.88128854E+00  5.44249258E-01  1.68714478E-01
  8.00000000E-01  3.04752488E+03  4.57369518E+02  1.03948685E+02  2.92101553E+01
  9.28666296E+00  3.16392696E+00  7.86827235E+00  1.88128854E+00  5.44249258E-01
  1.68714478E-01  8.00000000E-01  3.04752488E+03  4.57369518E+02  1.03948685E+02
  2.92101553E+01  9.28666296E+00  3.16392696E+00  7.86827235E+00  1.88128854E+00
  5.44249258E-01  1.68714478E-01  8.00000000E-01  3.04752488E+03  4.57369518E+02
  1.03948685E+02  2.92101553E+01  9.28666296E+00  3.16392696E+00  7.86827235E+00
  1.88128854E+00  5.44249258E-01  1.68714478E-01  8.00000000E-01  3.04752488E+03
  4.57369518E+02  1.03948685E+02  2.92101553E+01  9.28666296E+00  3.16392696E+00
  7.86827235E+00  1.88128854E+00  5.44249258E-01  1.68714478E-01  8.00000000E-01
  3.04752488E+03  4.57369518E+02  1.03948685E+02  2.92101553E+01  9.28666296E+00
  3.16392696E+00  7.86827235E+00  1.88128854E+00  5.44249258E-01  1.68714478E-01
  8.00000000E-01  3.04752488E+03  4.57369518E+02  1.03948685E+02  2.92101553E+01
  9.28666296E+00  3.16392696E+00  7.86827235E+00  1.88128854E+00  5.44249258E-01
  1.68714478E-01  8.00000000E-01  3.04752488E+03  4.57369518E+02  1.03948685E+02
  2.92101553E+01  9.28666296E+00  3.16392696E+00  7.86827235E+00  1.88128854E+00
  5.44249258E-01  1.68714478E-01  8.00000000E-01  1.87311370E+01  2.82539436E+00
  6.40121692E-01  1.61277759E-01  1.87311370E+01  2.82539436E+00  6.40121692E-01
  1.61277759E-01  1.87311370E+01  2.82539436E+00  6.40121692E-01  1.61277759E-01
  1.87311370E+01  2.82539436E+00  6.40121692E-01  1.61277759E-01  1.87311370E+01
  2.82539436E+00  6.40121692E-01  1.61277759E-01  1.87311370E+01  2.82539436E+00
  6.40121692E-01  1.61277759E-01  1.87311370E+01  2.82539436E+00  6.40121692E-01
  1.61277759E-01  1.87311370E+01  2.82539436E+00  6.40121692E-01  1.61277759E-01
Contraction coefficients                   R   N=         170
  1.86924085E-03  1.42303065E-02  6.96962317E-02  2.38487108E-01  4.83307220E-01
  3.38074154E-01 -2.37677050E-03 -3.16930067E-02 -1.13317024E-01  5.60900118E-02
  5.92255124E-01  4.55006095E-01 -2.50373114E-01  6.69567631E-02  1.05450627E+00
  1.00000000E+00  1.00000000E+00  1.83477216E-03  1.39946270E-02  6.85865518E-02
  2.32240873E-01  4.69069948E-01  3.60455199E-01 -1.14961182E-01 -1.69117479E-01
  1.14585195E+00  1.00000000E+00  1.00000000E+00  1.83477216E-03  1.39946270E-02
  6.85865518E-02  2.32240873E-01  4.69069948E-01  3.60455199E-01 -1.14961182E-01
 -1.69117479E-01  1.14585195E+00  1.00000000E+00  1.00000000E+00  1.83473713E-03
  1.40373228E-02  6.88426223E-02  2.32184443E-01  4.67941348E-01  3.62311985E-01
 -1.19332420E-01 -1.60854152E-01  1.14345644E+00  1.00000000E+00  1.00000000E+00
  1.83473713E-03  1.40373228E-02  6.88426223E-02  2.32184443E-01  4.67941348E-01
  3.62311985E-01 -1.19332420E-01 -1.60854152E-01  1.14345644E+00  1.00000000E+00
  1.00000000E+00  1.83473713E-03  1.40373228E-02  6.88426223E-02  2.32184443E-01
  4.67941348E-01  3.62311985E-01 -1.19332420E-01 -1.60854152E-01  1.14345644E+00
  1.00000000E+00  1.00000000E+00  1.83473713E-03  1.40373228E-02  6.88426223E-02
  2.32184443E-01  4.67941348E-01  3.62311985E-01 -1.19332420E-01 -1.60854152E-01
  1.14345644E+00  1.00000000E+00  1.00000000E+00  1.83473713E-03  1.40373228E-02
  6.88426223E-02  2.32184443E-01  4.67941348E-01  3.62311985E-01 -1.19332420E-01
 -1.60854152E-01  1.14345644E+00  1.00000000E+00  1.00000000E+00  1.83473713E-03
  1.40373228E-02  6.88426223E-02  2.32184443E-01  4.67941348E-01  3.62311985E-01
 -1.19332420E-01 -1.60854152E-01  1.14345644E+00  1.00000000E+00  1.00000000E+00
  1.83473713E-03  1.40373228E-02  6.88426223E-02  2.32184443E-01  4.67941348E-01
  3.62311985E-01 -1.19332420E-01 -1.60854152E-01  1.14345644E+00  1.00000000E+00
  1.00000000E+00  1.83473713E-03  1.40373228E-02  6.88426223E-02  2.32184443E-01
  4.67941348E-01  3.62311985E-01 -1.19332420E-01 -1.60854152E-01  1.14345644E+00
  1.00000000E+00  1.00000000E+00  1.83473713E-03  1.40373228E-02  6.88426223E-02
  2.32184443E-01  4.67941348E-01  3.62311985E-01 -1.19332420E-01 -1.60854152E-01
  1.14345644E+00  1.00000000E+00  1.00000000E+00  3.34946043E-02  2.34726953E-01
  8.13757326E-01  1.00000000E+00  3.34946043E-02  2.34726953E-01  8.13757326E-01
  1.00000000E+00  3.34946043E-02  2.34726953E-01  8.13757326E-01  1.00000000E+00
  3.34946043E-02  2.34726953E-01  8.13757326E-01  1.00000000E+00  3.34946043E-02
  2.34726953E-01  8.13757326E-01  1.00000000E+00  3.34946043E-02  2.34726953E-01
  8.13757326E-01  1.00000000E+00  3.34946043E-02  2.34726953E-01  8.13757326E-01
  1.00000000E+00  3.34946043E-02  2.34726953E-01  8.13757326E-01  1.00000000E+00
P(S=P) Contraction coefficients            R   N=         170
  0.00000000E+00  0.00000000E+00  0.00000000E+00  0.00000000E+00  0.00000000E+00
  0.00000000E+00  4.06100998E-03  3.06812999E-02  1.30451999E-01  3.27204999E-01
  4.52850998E-01  2.56041999E-01 -1.45104895E-02  3.10262776E-01  7.54482456E-01
  1.00000000E+00  0.00000000E+00  0.00000000E+00  0.00000000E+00  0.00000000E+00
  0.00000000E+00  0.00000000E+00  0.00000000E+00  6.75797439E-02  3.23907296E-01
  7.40895140E-01  1.00000000E+00  0.00000000E+00  0.00000000E+00  0.00000000E+00
  0.00000000E+00  0.00000000E+00  0.00000000E+00  0.00000000E+00  6.75797439E-02
  3.23907296E-01  7.40895140E-01  1.00000000E+00  0.00000000E+00  0.00000000E+00
  0.00000000E+00  0.00000000E+00  0.00000000E+00  0.00000000E+00  0.00000000E+00
  6.89990666E-02  3.16423961E-01  7.44308291E-01  1.00000000E+00  0.00000000E+00
  0.00000000E+00  0.00000000E+00  0.00000000E+00  0.00000000E+00  0.00000000E+00
  0.00000000E+00  6.89990666E-02  3.16423961E-01  7.44308291E-01  1.00000000E+00
  0.00000000E+00  0.00000000E+00  0.00000000E+00  0.00000000E+00  0.00000000E+00
  0.00000000E+00  0.00000000E+00  6.89990666E-02  3.16423961E-01  7.44308291E-01
  1.00000000E+00  0.00000000E+00  0.00000000E+00  0.00000000E+00  0.00000000E+00
  0.00000000E+00  0.00000000E+00  0.00000000E+00  6.89990666E-02  3.16423961E-01
  7.44308291E-01  1.00000000E+00  0.00000000E+00  0.00000000E+00  0.00000000E+00
  0.00000000E+00  0.00000000E+00  0.00000000E+00  0.00000000E+00  6.89990666E-02
  3.16423961E-01  7.44308291E-01  1.00000000E+00  0.00000000E+00  0.00000000E+00
  0.00000000E+00  0.00000000E+00  0.00000000E+00  0.00000000E+00  0.00000000E+00
  6.89990666E-02  3.16423961E-01  7.44308291E-01  1.00000000E+00  0.00000000E+00
  0.00000000E+00  0.00000000E+00  0.00000000E+00  0.00000000E+00  0.00000000E+00
  0.00000000E+00  6.89990666E-02  3.16423961E-01  7.44308291E-01  1.00000000E+00
  0.00000000E+00  0.00000000E+00  0.00000000E+00  0.00000000E+00  0.00000000E+00
  0.00000000E+00  0.00000000E+00  6.89990666E-02  3.16423961E-01  7.44308291E-01
  1.00000000E+00  0.00000000E+00  0.00000000E+00  0.00000000E+00  0.00000000E+00
  0.00000000E+00  0.00000000E+00  0.00000000E+00  6.89990666E-02  3.16423961E-01
  7.44308291E-01  1.00000000E+00  0.00000000E+00  0.00000000E+00  0.00000000E+00
  0.00000000E+00  0.00000000E+00  0.00000000E+00  0.00000000E+00  0.00000000E+00
  0.00000000E+00  0.00000000E+00  0.00000000E+00  0.00000000E+00  0.00000000E+00
  0.00000000E+00  0.00000000E+00  0.00000000E+00  0.00000000E+00  0.00000000E+00
  0.00000000E+00  0.00000000E+00  0.00000000E+00  0.00000000E+00  0.00000000E+00
  0.00000000E+00  0.00000000E+00  0.00000000E+00  0.00000000E+00  0.00000000E+00
  0.00000000E+00  0.00000000E+00  0.00000000E+00  0.00000000E+00  0.00000000E+00
Coordinates of each shell                  R   N=         195
  4.37038966E+00 -1.93422599E+00  1.01944803E-02  4.37038966E+00 -1.93422599E+00
  1.01944803E-02  4.37038966E+00 -1.93422599E+00  1.01944803E-02  4.37038966E+00
 -1.93422599E+00  1.01944803E-02  4.37038966E+00 -1.93422599E+00  1.01944803E-02
 -1.14114793E+00 -2.77249873E+00  4.85287181E-03 -1.14114793E+00 -2.77249873E+00
  4.85287181E-03 -1.14114793E+00 -2.77249873E+00  4.85287181E-03 -1.14114793E+00
 -2.77249873E+00  4.85287181E-03  2.92246566E+00  2.74038858E+00 -1.01414715E-02
  2.92246566E+00  2.74038858E+00 -1.01414715E-02  2.92246566E+00  2.74038858E+00
 -1.01414715E-02  2.92246566E+00  2.74038858E+00 -1.01414715E-02 -5.02498323E+00
  9.02846993E-01 -2.49148666E-02 -5.02498323E+00  9.02846993E-01 -2.49148666E-02
 -5.02498323E+00  9.02846993E-01 -2.49148666E-02 -5.02498323E+00  9.02846993E-01
 -2.49148666E-02 -6.24281439E-01 -2.76561031E-01 -2.81472342E-03 -6.24281439E-01
 -2.76561031E-01 -2.81472342E-03 -6.24281439E-01 -2.76561031E-01 -2.81472342E-03
 -6.24281439E-01 -2.76561031E-01 -2.81472342E-03 -2.48484964E+00  1.60625891E+00
 -1.49994812E-02 -2.48484964E+00  1.60625891E+00 -1.49994812E-02 -2.48484964E+00
  1.60625891E+00 -1.49994812E-02 -2.48484964E+00  1.60625891E+00 -1.49994812E-02
  2.05705740E+00  3.92423112E-01 -2.44108982E-03  2.05705740E+00  3.92423112E-01
 -2.44108982E-03  2.05705740E+00  3.92423112E-01 -2.44108982E-03  2.05705740E+00
  3.92423112E-01 -2.44108982E-03 -5.56969557E+00 -1.68805794E+00 -1.43560878E-02
 -5.56969557E+00 -1.68805794E+00 -1.43560878E-02 -5.56969557E+00 -1.68805794E+00
 -1.43560878E-02 -5.56969557E+00 -1.68805794E+00 -1.43560878E-02 -7.09821330E+00
  2.84787078E+00  2.71571389E-02 -7.09821330E+00  2.84787078E+00  2.71571389E-02
 -7.09821330E+00  2.84787078E+00  2.71571389E-02 -7.09821330E+00  2.84787078E+00
  2.71571389E-02 -3.59269138E+00 -3.42926189E+00 -1.81876367E-03 -3.59269138E+00
 -3.42926189E+00 -1.81876367E-03 -3.59269138E+00 -3.42926189E+00 -1.81876367E-03
 -3.59269138E+00 -3.42926189E+00 -1.81876367E-03  6.62705814E+00  3.87369699E-01
  4.81666478E-03  6.62705814E+00  3.87369699E-01  4.81666478E-03  6.62705814E+00
  3.87369699E-01  4.81666478E-03  6.62705814E+00  3.87369699E-01  4.81666478E-03
  5.50695264E+00  2.73705383E+00 -6.29503943E-03  5.50695264E+00  2.73705383E+00
 -6.29503943E-03  5.50695264E+00  2.73705383E+00 -6.29503943E-03  5.50695264E+00
  2.73705383E+00 -6.29503943E-03 -1.90810432E+00  3.57807067E+00 -2.84463279E-02
 -1.90810432E+00  3.57807067E+00 -2.84463279E-02 -7.51661006E+00 -2.34859749E+00
 -2.84149940E-02 -7.51661006E+00 -2.34859749E+00 -2.84149940E-02 -7.74239275E+00
  3.18012776E+00  1.96575540E+00 -7.74239275E+00  3.18012776E+00  1.96575540E+00
 -6.44141215E+00  4.64999747E+00 -7.39277564E-01 -6.44141215E+00  4.64999747E+00
 -7.39277564E-01 -8.72900881E+00  2.22397830E+00 -1.07856984E+00 -8.72900881E+00
  2.22397830E+00 -1.07856984E+00 -3.97615790E+00 -5.45078229E+00 -7.50587899E-04
 -3.97615790E+00 -5.45078229E+00 -7.50587899E-04  8.62288066E+00 -6.07490412E-02
  9.40750423E-03  8.62288066E+00 -6.07490412E-02  9.40750423E-03  6.51722505E+00
  4.52068673E+00 -1.17975876E-02  6.51722505E+00  4.52068673E+00 -1.17975876E-02
Constraint Structure                       R   N=          60
  4.37038966E+00 -1.93422599E+00  1.01944803E-02 -1.14114793E+00 -2.77249873E+00
  4.85287181E-03  2.92246566E+00  2.74038858E+00 -1.01414715E-02 -5.02498323E+00
  9.02846993E-01 -2.49148666E-02 -6.24281439E-01 -2.76561031E-01 -2.81472342E-03
 -2.48484964E+00  1.60625891E+00 -1.49994812E-02  2.05705740E+00  3.92423112E-01
 -2.44108982E-03 -5.56969557E+00 -1.68805794E+00 -1.43560878E-02 -7.09821330E+00
  2.84787078E+00  2.71571389E-02 -3.59269138E+00 -3.42926189E+00 -1.81876367E-03
  6.62705814E+00  3.87369699E-01  4.81666478E-03  5.50695264E+00  2.73705383E+00
 -6.29503943E-03 -1.90810432E+00  3.57807067E+00 -2.84463279E-02 -7.51661006E+00
 -2.34859749E+00 -2.84149940E-02 -7.74239275E+00  3.18012776E+00  1.96575540E+00
 -6.44141215E+00  4.64999747E+00 -7.39277564E-01 -8.72900881E+00  2.22397830E+00
 -1.07856984E+00 -3.97615790E+00 -5.45078229E+00 -7.50587899E-04  8.62288066E+00
 -6.07490412E-02  9.40750423E-03  6.51722505E+00  4.52068673E+00 -1.17975876E-02
Num ILSW                                   I              100
ILSW                                       I   N=         100
           0           1           0           0           2           0
           0           0           0           0           0          -1
           0           0           0           0           0           0
           0           0           0           0           1           0
           1           0           0           0           0           0
           0           0      100000           0          -1           0
           0           0           0           0           0           0
           0           0           0           1           1           0
           0           0           1           0           0           0
           0           0           4          40           0           0
           0           0           0           0           0           0
           0           0           0           0           0           0
           0           0           0           0           0           0
           0           0           0           0           0           0
           0           0           0           0           0           0
           0           0           0           0           0           0
           0           0           0           0
Num RLSW                                   I               40
RLSW                                       R   N=          40
  1.00000000E+00  1.00000000E+00  1.00000000E+00  1.00000000E+00  1.00000000E+00
  0.00000000E+00  0.00000000E+00  1.00000000E+00  0.00000000E+00  0.00000000E+00
  0.00000000E+00  0.00000000E+00  1.00000000E+00  0.00000000E+00  0.00000000E+00
  0.00000000E+00  0.00000000E+00  1.00000000E+00  0.00000000E+00  0.00000000E+00
  0.00000000E+00  0.00000000E+00  1.00000000E+00  0.00000000E+00  0.00000000E+00
  0.00000000E+00  0.00000000E+00  1.00000000E+00  0.00000000E+00  0.00000000E+00
  0.00000000E+00  0.00000000E+00  0.00000000E+00  0.00000000E+00  0.00000000E+00
  0.00000000E+00  0.00000000E+00  0.00000000E+00  1.00000000E+00  1.00000000E+00
MxBond                                     I                4
NBond                                      I   N=          20
           2           2           2           3           3           3
           3           3           4           3           3           3
           1           1           1           1           1           1
           1           1
IBond                                      I   N=          80
           7          11           0           0           5          10
           0           0           7          12           0           0
           6           8           9           0           2           6
           7           0           4           5          13           0
           1           3           5           0           4          10
          14           0           4          15          16          17
           2           8          18           0           1          12
          19           0           3          11          20           0
           6           0           0           0           8           0
           0           0           9           0           0           0
           9           0           0           0           9           0
           0           0          10           0           0           0
          11           0           0           0          12           0
           0           0
RBond                                      R   N=          80
  1.00000000E+00  1.00000000E+00  0.00000000E+00  0.00000000E+00  1.50000000E+00
  1.50000000E+00  0.00000000E+00  0.00000000E+00  1.50000000E+00  1.00000000E+00
  0.00000000E+00  0.00000000E+00  1.50000000E+00  1.50000000E+00  1.00000000E+00
  0.00000000E+00  1.50000000E+00  1.50000000E+00  1.00000000E+00  0.00000000E+00
  1.50000000E+00  1.50000000E+00  1.00000000E+00  0.00000000E+00  1.00000000E+00
  1.50000000E+00  1.00000000E+00  0.00000000E+00  1.50000000E+00  1.50000000E+00
  1.00000000E+00  0.00000000E+00  1.00000000E+00  1.00000000E+00  1.00000000E+00
  1.00000000E+00  1.50000000E+00  1.50000000E+00  1.00000000E+00  0.00000000E+00
  1.00000000E+00  1.50000000E+00  1.00000000E+00  0.00000000E+00  1.00000000E+00
  1.50000000E+00  1.00000000E+00  0.00000000E+00  1.00000000E+00  0.00000000E+00
  0.00000000E+00  0.00000000E+00  1.00000000E+00  0.00000000E+00  0.00000000E+00
  0.00000000E+00  1.00000000E+00  0.00000000E+00  0.00000000E+00  0.00000000E+00
  1.00000000E+00  0.00000000E+00  0.00000000E+00  0.00000000E+00  1.00000000E+00
  0.00000000E+00  0.00000000E+00  0.00000000E+00  1.00000000E+00  0.00000000E+00
  0.00000000E+00  0.00000000E+00  1.00000000E+00  0.00000000E+00  0.00000000E+00
  0.00000000E+00  1.00000000E+00  0.00000000E+00  0.00000000E+00  0.00000000E+00
Virial Ratio                               R      2.001463482433402E+00
SCF Energy                                 R     -8.518758266229393E+02
MP2 Energy                                 R     -8.534760179339369E+02
Total Energy                               R     -8.534760179339369E+02
Post-SCF wavefunction norm                 R      1.785326719004556E+00
RMS Force                                  R      4.887684319690217E-07
RMS Density                                R      1.261555361613630E-09
External E-field                           R   N=          35
  0.00000000E+00  0.00000000E+00  0.00000000E+00  0.00000000E+00  0.00000000E+00
  0.00000000E+00  0.00000000E+00  0.00000000E+00  0.00000000E+00  0.00000000E+00
  0.00000000E+00  0.00000000E+00  0.00000000E+00  0.00000000E+00  0.00000000E+00
  0.00000000E+00  0.00000000E+00  0.00000000E+00  0.00000000E+00  0.00000000E+00
  0.00000000E+00  0.00000000E+00  0.00000000E+00  0.00000000E+00  0.00000000E+00
  0.00000000E+00  0.00000000E+00  0.00000000E+00  0.00000000E+00  0.00000000E+00
  0.00000000E+00  0.00000000E+00  0.00000000E+00  0.00000000E+00  0.00000000E+00
IOpCl                                      I                0
IROHF                                      I                0
Alpha Orbital Energies                     R   N=         200
 -9.19786273E+01 -1.55745768E+01 -1.55743387E+01 -1.13101960E+01 -1.12925500E+01
 -1.12812700E+01 -1.12706005E+01 -1.12671613E+01 -1.12628185E+01 -1.12439430E+01
 -1.12421669E+01 -1.12392923E+01 -8.98863722E+00 -6.67088714E+00 -6.67002519E+00
 -6.66854713E+00 -1.28273815E+00 -1.25431034E+00 -1.11136387E+00 -1.06319662E+00
 -1.05837383E+00 -9.82170584E-01 -9.70390242E-01 -8.69107541E-01 -8.40909360E-01
 -7.81014457E-01 -7.46843073E-01 -6.94460942E-01 -6.75388768E-01 -6.68656280E-01
 -6.31500396E-01 -5.93327102E-01 -5.84549731E-01 -5.69445697E-01 -5.68140553E-01
 -5.60029047E-01 -5.44317000E-01 -5.21638210E-01 -5.12415165E-01 -4.97250576E-01
 -4.36426812E-01 -4.16621157E-01 -3.89284649E-01 -3.76853392E-01 -3.62186764E-01
 -3.00853839E-01  7.08434317E-02  1.23909955E-01  1.73606984E-01  1.94575226E-01
  2.33313524E-01  2.40534936E-01  2.62550760E-01  2.67097730E-01  2.72394689E-01
  2.91242273E-01  3.07923815E-01  3.17029412E-01  3.25454170E-01  3.30336281E-01
  3.73461444E-01  3.79193249E-01  3.95502994E-01  4.05991390E-01  4.34682361E-01
  4.72932382E-01  5.01874895E-01  5.09189044E-01  5.25236901E-01  5.38652965E-01
  5.62199653E-01  5.74054453E-01  6.12309637E-01  6.64378945E-01  6.81593634E-01
  6.84598927E-01  7.25373327E-01  7.40919800E-01  7.41601363E-01  7.69144091E-01
  7.78870534E-01  7.83700696E-01  7.86500903E-01  7.94003356E-01  8.05314417E-01
  8.23079395E-01  8.51106666E-01  8.77851140E-01  8.84152914E-01  8.94778776E-01
  8.96522807E-01  9.23658062E-01  9.53416065E-01  9.59688014E-01  9.67583000E-01
  9.86284753E-01  9.98443622E-01  1.02158666E+00  1.02728724E+00  1.05205487E+00