
    -----------------------------------------------------------------------
          Psi4: An Open-Source Ab Initio Electronic Structure Package
                               Psi4 1.4a3.dev225 

                         Git: Rev {master} 7105e37 


    D. G. A. Smith, L. A. Burns, A. C. Simmonett, R. M. Parrish,
    M. C. Schieber, R. Galvelis, P. Kraus, H. Kruse, R. Di Remigio,
    A. Alenaizan, A. M. James, S. Lehtola, J. P. Misiewicz, M. Scheurer,
    R. A. Shaw, J. B. Schriber, Y. Xie, Z. L. Glick, D. A. Sirianni,
    J. S. O'Brien, J. M. Waldrop, A. Kumar, E. G. Hohenstein,
    B. P. Pritchard, B. R. Brooks, H. F. Schaefer III, A. Yu. Sokolov,
    K. Patkowski, A. E. DePrince III, U. Bozkaya, R. A. King,
    F. A. Evangelista, J. M. Turney, T. D. Crawford, C. D. Sherrill,
    J. Chem. Phys. 152(18) 184108 (2020). https://doi.org/10.1063/5.0006002

                            Additional Code Authors
    E. T. Seidl, C. L. Janssen, E. F. Valeev, M. L. Leininger,
    J. F. Gonthier, R. M. Richard, H. R. McAlexander, M. Saitow, X. Wang,
    P. Verma, and M. H. Lechner

             Previous Authors, Complete List of Code Contributors,
                       and Citations for Specific Modules
    https://github.com/psi4/psi4/blob/master/codemeta.json
    https://github.com/psi4/psi4/graphs/contributors
    http://psicode.org/psi4manual/master/introduction.html#citing-psifour

    -----------------------------------------------------------------------


    Psi4 started on: Friday, 19 March 2021 01:58PM

    Process ID: 46657
    Host:       c434-071.stampede2.tacc.utexas.edu
    PSIDATADIR: /home1/07844/xy3866/miniconda3/envs/p4env/share/psi4
    Memory:     500.0 MiB
    Threads:    32
    
  ==> Input File <==

--------------------------------------------------------------------------
#psi4
#
memory 32 gb

molecule  {
0 1
  O       -1.2544100    -0.2466020     0.3472100
  O       -0.1467170     1.6857710    -0.1068680
  O        2.1477710    -1.6706650    -0.3531650
  C        0.9946280    -0.1112570     1.0566320
  C       -2.4121570     0.3091030    -0.3317080
  C       -0.1772600     0.5642340     0.3788210
  C        2.0415881    -0.5070887    -0.0172665
  C       -3.4935060    -0.7442920    -0.2688040
  C        2.8658400     0.6173540    -0.5670070
  H        0.6698310    -1.0124810     1.5769910
  H        1.4325960     0.6058250     1.7585570
  H       -2.7009940     1.2359100     0.1709210
  H       -2.1292340     0.5563720    -1.3582130
  H       -4.3948380    -0.3800300    -0.7696350
  H       -3.1655030    -1.6602290    -0.7643920
  H       -3.7422990    -0.9781810     0.7683530
  H        3.4354090     0.2520080    -1.4220870
  H        3.5572420     0.9731160     0.2051050
  H        2.2308310     1.4607170    -0.8501030
units angstrom
no_reorient  #important for SAPT in psi4, default
symmetry c1  #important for SAPT in psi4, default
}

set PROPERTIES_ORIGIN ["COM"]
properties('MP2/aug-cc-pvtz', properties = ['dipole'])
--------------------------------------------------------------------------

  Memory set to  29.802 GiB by Python driver.
    SCF Algorithm Type (re)set to DF.

*** tstart() called on c434-071.stampede2.tacc.utexas.edu
*** at Fri Mar 19 13:58:31 2021

   => Loading Basis Set <=

    Name: AUG-CC-PVTZ
    Role: ORBITAL
    Keyword: BASIS
    atoms 1-3   entry O          line   331 file /home1/07844/xy3866/miniconda3/envs/p4env/share/psi4/basis/aug-cc-pvtz.gbs 
    atoms 4-9   entry C          line   239 file /home1/07844/xy3866/miniconda3/envs/p4env/share/psi4/basis/aug-cc-pvtz.gbs 
    atoms 10-19 entry H          line    40 file /home1/07844/xy3866/miniconda3/envs/p4env/share/psi4/basis/aug-cc-pvtz.gbs 


         ---------------------------------------------------------
                                   SCF
               by Justin Turney, Rob Parrish, Andy Simmonett
                          and Daniel G. A. Smith
                              RHF Reference
                       32 Threads,  30517 MiB Core
         ---------------------------------------------------------

  ==> Geometry <==

    Molecular point group: c1
    Full point group: C1

    Geometry (in Angstrom), charge = 0, multiplicity = 1:

       Center              X                  Y                   Z               Mass       
    ------------   -----------------  -----------------  -----------------  -----------------
         O           -1.292295723400    -0.238107253347     0.343261478800    15.994914619570
         O           -0.184602723400     1.694265746653    -0.110816521200    15.994914619570
         O            2.109885276600    -1.662170253347    -0.357113521200    15.994914619570
         C            0.956742276600    -0.102762253347     1.052683478800    12.000000000000
         C           -2.450042723400     0.317597746653    -0.335656521200    12.000000000000
         C           -0.215145723400     0.572728746653     0.374872478800    12.000000000000
         C            2.003702376600    -0.498593953347    -0.021215021200    12.000000000000
         C           -3.531391723400    -0.735797253347    -0.272752521200    12.000000000000
         C            2.827954276600     0.625848746653    -0.570955521200    12.000000000000
         H            0.631945276600    -1.003986253347     1.573042478800     1.007825032230
         H            1.394710276600     0.614319746653     1.754608478800     1.007825032230
         H           -2.738879723400     1.244404746653     0.166972478800     1.007825032230
         H           -2.167119723400     0.564866746653    -1.362161521200     1.007825032230
         H           -4.432723723400    -0.371535253347    -0.773583521200     1.007825032230
         H           -3.203388723400    -1.651734253347    -0.768340521200     1.007825032230
         H           -3.780184723400    -0.969686253347     0.764404478800     1.007825032230
         H            3.397523276600     0.260502746653    -1.426035521200     1.007825032230
         H            3.519356276600     0.981610746653     0.201156478800     1.007825032230
         H            2.192945276600     1.469211746653    -0.854051521200     1.007825032230

  Running in c1 symmetry.

  Rotational constants: A =      0.10689  B =      0.02801  C =      0.02462 [cm^-1]
  Rotational constants: A =   3204.38794  B =    839.82326  C =    737.95180 [MHz]
  Nuclear repulsion =  453.122908041675998

  Charge       = 0
  Multiplicity = 1
  Electrons    = 70
  Nalpha       = 35
  Nbeta        = 35

  ==> Algorithm <==

  SCF Algorithm Type is DF.
  DIIS enabled.
  MOM disabled.
  Fractional occupation disabled.
  Guess Type is SAD.
  Energy threshold   = 1.00e-10
  Density threshold  = 1.00e-10
  Integral threshold = 1.00e-12

  ==> Primary Basis <==

  Basis Set: AUG-CC-PVTZ
    Blend: AUG-CC-PVTZ
    Number of shells: 216
    Number of basis functions: 644
    Number of Cartesian functions: 745
    Spherical Harmonics?: true
    Max angular momentum: 3

   => Loading Basis Set <=

    Name: (AUG-CC-PVTZ AUX)
    Role: JKFIT
    Keyword: DF_BASIS_SCF
    atoms 1-3   entry O          line   286 file /home1/07844/xy3866/miniconda3/envs/p4env/share/psi4/basis/aug-cc-pvtz-jkfit.gbs 
    atoms 4-9   entry C          line   162 file /home1/07844/xy3866/miniconda3/envs/p4env/share/psi4/basis/aug-cc-pvtz-jkfit.gbs 
    atoms 10-19 entry H          line    70 file /home1/07844/xy3866/miniconda3/envs/p4env/share/psi4/basis/aug-cc-pvtz-jkfit.gbs 

  ==> Integral Setup <==

  DFHelper Memory: AOs need 3.950 GiB; user supplied 22.352 GiB. Using in-core AOs.

  ==> MemDFJK: Density-Fitted J/K Matrices <==

    J tasked:                   Yes
    K tasked:                   Yes
    wK tasked:                   No
    OpenMP threads:              32
    Memory [MiB]:             22888
    Algorithm:                 Core
    Schwarz Cutoff:           1E-12
    Mask sparsity (%):      12.9996
    Fitting Condition:        1E-10

   => Auxiliary Basis Set <=

  Basis Set: (AUG-CC-PVTZ AUX)
    Blend: AUG-CC-PVTZ-JKFIT
    Number of shells: 410
    Number of basis functions: 1396
    Number of Cartesian functions: 1729
    Spherical Harmonics?: true
    Max angular momentum: 4

  Minimum eigenvalue in the overlap matrix is 5.6873002889E-06.
  Reciprocal condition number of the overlap matrix is 3.2350255427E-07.
    Using symmetric orthogonalization.

  ==> Pre-Iterations <==

  SCF Guess: Superposition of Atomic Densities via on-the-fly atomic UHF (no occupation information).

   -------------------------
    Irrep   Nso     Nmo    
   -------------------------
     A        644     644 
   -------------------------
    Total     644     644
   -------------------------

  ==> Iterations <==

                           Total Energy        Delta E     RMS |[F,P]|

   @DF-RHF iter SAD:  -456.43194802190396   -4.56432e+02   0.00000e+00 
   @DF-RHF iter   1:  -457.48518197093216   -1.05323e+00   1.23789e-03 DIIS
   @DF-RHF iter   2:  -457.72139414535019   -2.36212e-01   7.47326e-04 DIIS
   @DF-RHF iter   3:  -457.79971712900618   -7.83230e-02   1.55874e-04 DIIS
   @DF-RHF iter   4:  -457.80584485342297   -6.12772e-03   6.18609e-05 DIIS
   @DF-RHF iter   5:  -457.80699951819707   -1.15466e-03   1.34292e-05 DIIS
   @DF-RHF iter   6:  -457.80708414332855   -8.46251e-05   7.42005e-06 DIIS
   @DF-RHF iter   7:  -457.80710391660989   -1.97733e-05   2.65853e-06 DIIS
   @DF-RHF iter   8:  -457.80710797274787   -4.05614e-06   9.78026e-07 DIIS
   @DF-RHF iter   9:  -457.80710853090346   -5.58156e-07   2.78854e-07 DIIS
   @DF-RHF iter  10:  -457.80710857261482   -4.17114e-08   9.49019e-08 DIIS
   @DF-RHF iter  11:  -457.80710857618976   -3.57494e-09   4.33860e-08 DIIS
   @DF-RHF iter  12:  -457.80710857702064   -8.30880e-10   1.86839e-08 DIIS
   @DF-RHF iter  13:  -457.80710857731526   -2.94619e-10   9.02484e-09 DIIS
   @DF-RHF iter  14:  -457.80710857742173   -1.06468e-10   4.21490e-09 DIIS
   @DF-RHF iter  15:  -457.80710857744361   -2.18847e-11   1.17830e-09 DIIS
   @DF-RHF iter  16:  -457.80710857744560   -1.98952e-12   3.57509e-10 DIIS
   @DF-RHF iter  17:  -457.80710857744560    0.00000e+00   1.59109e-10 DIIS
   @DF-RHF iter  18:  -457.80710857744560    0.00000e+00   7.61807e-11 DIIS
  Energy and wave function converged.


  ==> Post-Iterations <==

    Orbital Energies [Eh]
    ---------------------

    Doubly Occupied:                                                      

       1A    -20.614772     2A    -20.559727     3A    -20.557298  
       4A    -11.398882     5A    -11.349431     6A    -11.296395  
       7A    -11.262023     8A    -11.236637     9A    -11.229489  
      10A     -1.466065    11A     -1.396147    12A     -1.365334  
      13A     -1.079466    14A     -1.040339    15A     -0.992185  
      16A     -0.874976    17A     -0.798095    18A     -0.755589  
      19A     -0.707748    20A     -0.693124    21A     -0.678933  
      22A     -0.653116    23A     -0.643295    24A     -0.604356  
      25A     -0.588949    26A     -0.576703    27A     -0.568910  
      28A     -0.551078    29A     -0.538318    30A     -0.521383  
      31A     -0.514236    32A     -0.506971    33A     -0.469280  
      34A     -0.457723    35A     -0.421721  

    Virtual:                                                              

      36A      0.027731    37A      0.031140    38A      0.035880  
      39A      0.041455    40A      0.047618    41A      0.048585  
      42A      0.056126    43A      0.063567    44A      0.064583  
      45A      0.069526    46A      0.085062    47A      0.097787  
      48A      0.102217    49A      0.107169    50A      0.112450  
      51A      0.120285    52A      0.121944    53A      0.124541  
      54A      0.129123    55A      0.131673    56A      0.133885  
      57A      0.136295    58A      0.139062    59A      0.140487  
      60A      0.145811    61A      0.155918    62A      0.160657  
      63A      0.162135    64A      0.169217    65A      0.173633  
      66A      0.175597    67A      0.190580    68A      0.193679  
      69A      0.205218    70A      0.213022    71A      0.218143  
      72A      0.223031    73A      0.234234    74A      0.237194  
      75A      0.238778    76A      0.250246    77A      0.255988  
      78A      0.258796    79A      0.271105    80A      0.272968  
      81A      0.280920    82A      0.286429    83A      0.290464  
      84A      0.298380    85A      0.302282    86A      0.311190  
      87A      0.312343    88A      0.315689    89A      0.322252  
      90A      0.326317    91A      0.330462    92A      0.336612  
      93A      0.340055    94A      0.343933    95A      0.352914  
      96A      0.354632    97A      0.358067    98A      0.361593  
      99A      0.366833   100A      0.373553   101A      0.376876  
     102A      0.387194   103A      0.387803   104A      0.398029  
     105A      0.399656   106A      0.406097   107A      0.408942  
     108A      0.409300   109A      0.411984   110A      0.420336  
     111A      0.425074   112A      0.433891   113A      0.436588  
     114A      0.438918   115A      0.445028   116A      0.449810  
     117A      0.452269   118A      0.454925   119A      0.459359  
     120A      0.465922   121A      0.472691   122A      0.473950  
     123A      0.478912   124A      0.480288   125A      0.482650  
     126A      0.484974   127A      0.486689   128A      0.500724  
     129A      0.507737   130A      0.511075   131A      0.519857  
     132A      0.531973   133A      0.534322   134A      0.535667  
     135A      0.542580   136A      0.548474   137A      0.550118  
     138A      0.559012   139A      0.570505   140A      0.571734  
     141A      0.579963   142A      0.589069   143A      0.592988  
     144A      0.596863   145A      0.605424   146A      0.610976  
     147A      0.614075   148A      0.621770   149A      0.627738  
     150A      0.640281   151A      0.642851   152A      0.648105  
     153A      0.662546   154A      0.668313   155A      0.678098  
     156A      0.679930   157A      0.693419   158A      0.703834  
     159A      0.714695   160A      0.734250   161A      0.743056  
     162A      0.750736   163A      0.762433   164A      0.775947  
     165A      0.781192   166A      0.781587   167A      0.792708  
     168A      0.795131   169A      0.803137   170A      0.816068  
     171A      0.820616   172A      0.825751   173A      0.830700  
     174A      0.835925   175A      0.842578   176A      0.851464  
     177A      0.854123   178A      0.860023   179A      0.873139  
     180A      0.878371   181A      0.882768   182A      0.889545  
     183A      0.895633   184A      0.899380   185A      0.905874  
     186A      0.914678   187A      0.917406   188A      0.922581  
     189A      0.931326   190A      0.932211   191A      0.934544  
     192A      0.938466   193A      0.944504   194A      0.949866  
     195A      0.962254   196A      0.964936   197A      0.966180  
     198A      0.977833   199A      0.982468   200A      0.987870  
     201A      0.994647   202A      1.003019   203A      1.009539  
     204A      1.015504   205A      1.021394   206A      1.024527  
     207A      1.035658   208A      1.037400   209A      1.043683  
     210A      1.050503   211A      1.062137   212A      1.065993  
     213A      1.069967   214A      1.076235   215A      1.081783  
     216A      1.088120   217A      1.098310   218A      1.101207  
     219A      1.115205   220A      1.120367   221A      1.123593  
     222A      1.127174   223A      1.131765   224A      1.141939  
     225A      1.148905   226A      1.150044   227A      1.157961  
     228A      1.166279   229A      1.177214   230A      1.186438  
     231A      1.190894   232A      1.199045   233A      1.207198  
     234A      1.212077   235A      1.216537   236A      1.217402  
     237A      1.235788   238A      1.237826   239A      1.246738  
     240A      1.249280   241A      1.257004   242A      1.271628  
     243A      1.277602   244A      1.288211   245A      1.291959  
     246A      1.293718   247A      1.302201   248A      1.315942  
     249A      1.321433   250A      1.329326   251A      1.336218  
     252A      1.349910   253A      1.358688   254A      1.360199  
     255A      1.373572   256A      1.385904   257A      1.398839  
     258A      1.404695   259A      1.410626   260A      1.420280  
     261A      1.434355   262A      1.448481   263A      1.468071  
     264A      1.483450   265A      1.484507   266A      1.491980  
     267A      1.501149   268A      1.510429   269A      1.516771  
     270A      1.526866   271A      1.534372   272A      1.540432  
     273A      1.555747   274A      1.565584   275A      1.575744  
     276A      1.583105   277A      1.588163   278A      1.602111  
     279A      1.611117   280A      1.613577   281A      1.619846  
     282A      1.631329   283A      1.638667   284A      1.643923  
     285A      1.649566   286A      1.660876   287A      1.666232  
     288A      1.667616   289A      1.676683   290A      1.679153  
     291A      1.681887   292A      1.691904   293A      1.707492  
     294A      1.708984   295A      1.710227   296A      1.721708  
     297A      1.727768   298A      1.734444   299A      1.749752  
     300A      1.751600   301A      1.764048   302A      1.770116  
     303A      1.779310   304A      1.784594   305A      1.795607  
     306A      1.805443   307A      1.820751   308A      1.823012  
     309A      1.832405   310A      1.845360   311A      1.849299  
     312A      1.865111   313A      1.870267   314A      1.877106  
     315A      1.883936   316A      1.895504   317A      1.910949  
     318A      1.919041   319A      1.931166   320A      1.939757  
     321A      1.942020   322A      1.958579   323A      1.970956  
     324A      1.973837   325A      1.996120   326A      2.005924  
     327A      2.012031   328A      2.022477   329A      2.026510  
     330A      2.039594   331A      2.050795   332A      2.058740  
     333A      2.067754   334A      2.085775   335A      2.098192  
     336A      2.107653   337A      2.129064   338A      2.139064  
     339A      2.150520   340A      2.163181   341A      2.169247  
     342A      2.169429   343A      2.202352   344A      2.217110  
     345A      2.231545   346A      2.235940   347A      2.238455  
     348A      2.247453   349A      2.260212   350A      2.275206  
     351A      2.283292   352A      2.296896   353A      2.304165  
     354A      2.316991   355A      2.319569   356A      2.348055  
     357A      2.373412   358A      2.383306   359A      2.396619  
     360A      2.410652   361A      2.425112   362A      2.442594  
     363A      2.445697   364A      2.476409   365A      2.500499  
     366A      2.507404   367A      2.531911   368A      2.534198  
     369A      2.550755   370A      2.582673   371A      2.599101  
     372A      2.614570   373A      2.628157   374A      2.637047  
     375A      2.649829   376A      2.662914   377A      2.680636  
     378A      2.693248   379A      2.704620   380A      2.716751  
     381A      2.723603   382A      2.751925   383A      2.759907  
     384A      2.795409   385A      2.811182   386A      2.825325  
     387A      2.846852   388A      2.859768   389A      2.909015  
     390A      2.916326   391A      2.925845   392A      2.947132  
     393A      2.962596   394A      2.985915   395A      2.991247  
     396A      3.020013   397A      3.026626   398A      3.061921  
     399A      3.082332   400A      3.100964   401A      3.111531  
     402A      3.139055   403A      3.151610   404A      3.163078  
     405A      3.186705   406A      3.217848   407A      3.244664  
     408A      3.277269   409A      3.293576   410A      3.316535  
     411A      3.330344   412A      3.353085   413A      3.391477  
     414A      3.401774   415A      3.418586   416A      3.428335  
     417A      3.434033   418A      3.447814   419A      3.456992  
     420A      3.480947   421A      3.499226   422A      3.508215  
     423A      3.539684   424A      3.554476   425A      3.576188  
     426A      3.583400   427A      3.597009   428A      3.615382  
     429A      3.621810   430A      3.624802   431A      3.645869  
     432A      3.656504   433A      3.666681   434A      3.679809  
     435A      3.683312   436A      3.695798   437A      3.703208  
     438A      3.715435   439A      3.725985   440A      3.747000  
     441A      3.755648   442A      3.764513   443A      3.787530  
     444A      3.793952   445A      3.819432   446A      3.819729  
     447A      3.833524   448A      3.853216   449A      3.860996  
     450A      3.873599   451A      3.888086   452A      3.892385  
     453A      3.910010   454A      3.926799   455A      3.934044  
     456A      3.938200   457A      3.950750   458A      3.967312  
     459A      3.972808   460A      3.979073   461A      3.993400  
     462A      4.010545   463A      4.027559   464A      4.038913  
     465A      4.053551   466A      4.056110   467A      4.062066  
     468A      4.079611   469A      4.083704   470A      4.095871  
     471A      4.118631   472A      4.135648   473A      4.150079  
     474A      4.155677   475A      4.173105   476A      4.173734  
     477A      4.183678   478A      4.187295   479A      4.195433  
     480A      4.216150   481A      4.222108   482A      4.238196  
     483A      4.251634   484A      4.276525   485A      4.291670  
     486A      4.298756   487A      4.316280   488A      4.333411  
     489A      4.362831   490A      4.379190   491A      4.394410  
     492A      4.399727   493A      4.410131   494A      4.432748  
     495A      4.434643   496A      4.461248   497A      4.470547  
     498A      4.479124   499A      4.507716   500A      4.515736  
     501A      4.529506   502A      4.532292   503A      4.552726  
     504A      4.569329   505A      4.579739   506A      4.594300  
     507A      4.630042   508A      4.637368   509A      4.651188  
     510A      4.665799   511A      4.685049   512A      4.695208  
     513A      4.718575   514A      4.724013   515A      4.754393  
     516A      4.783520   517A      4.801549   518A      4.832023  
     519A      4.842483   520A      4.847390   521A      4.860165  
     522A      4.866852   523A      4.888798   524A      4.893399  
     525A      4.906464   526A      4.938855   527A      4.952786  
     528A      4.961682   529A      4.980772   530A      4.999955  
     531A      5.005369   532A      5.026051   533A      5.042891  
     534A      5.071156   535A      5.075525   536A      5.093134  
     537A      5.115936   538A      5.130194   539A      5.142346  
     540A      5.148931   541A      5.167200   542A      5.185713  
     543A      5.190375   544A      5.227513   545A      5.238100  
     546A      5.265881   547A      5.295300   548A      5.313553  
     549A      5.332718   550A      5.346351   551A      5.363797  
     552A      5.376978   553A      5.406848   554A      5.421106  
     555A      5.431198   556A      5.443042   557A      5.459604  
     558A      5.476572   559A      5.507605   560A      5.517400  
     561A      5.546166   562A      5.559067   563A      5.576657  
     564A      5.584170   565A      5.624181   566A      5.637867  
     567A      5.658782   568A      5.681035   569A      5.736183  
     570A      5.763248   571A      5.771886   572A      5.796668  
     573A      5.801704   574A      5.853458   575A      5.908334  
     576A      5.970051   577A      6.002494   578A      6.010223  
     579A      6.025471   580A      6.040072   581A      6.061673  
     582A      6.113324   583A      6.142698   584A      6.147402  
     585A      6.160569   586A      6.200051   587A      6.220252  
     588A      6.233001   589A      6.338782   590A      6.403746  
     591A      6.419077   592A      6.492939   593A      6.619123  
     594A      6.692523   595A      6.714028   596A      6.740323  
     597A      6.748358   598A      6.760507   599A      6.799830  
     600A      6.817515   601A      6.856867   602A      6.860333  
     603A      6.901759   604A      6.943084   605A      6.965086  
     606A      7.042627   607A      7.052160   608A      7.107839  
     609A      7.113571   610A      7.186117   611A      7.197368  
     612A      7.263953   613A      7.282870   614A      7.318322  
     615A      7.379466   616A      7.422533   617A      7.457775  
     618A      7.473465   619A      7.495477   620A      7.512350  
     621A      7.558344   622A      7.628903   623A      7.635203  
     624A      7.685807   625A      7.709392   626A      7.732845  
     627A      7.816405   628A      7.858790   629A      7.897558  
     630A      7.932067   631A      7.957212   632A      7.986071  
     633A      8.097208   634A      8.354050   635A      8.556146  
     636A     14.922235   637A     15.526149   638A     15.961891  
     639A     17.091581   640A     17.721653   641A     17.921203  
     642A     18.467037   643A     19.233677   644A     20.294507  

    Final Occupation by Irrep:
              A 
    DOCC [    35 ]

  @DF-RHF Final Energy:  -457.80710857744560

   => Energetics <=

    Nuclear Repulsion Energy =            453.1229080416759984
    One-Electron Energy =               -1523.9226462807077951
    Two-Electron Energy =                 612.9926296615861929
    Total Energy =                       -457.8071085774455469

Computation Completed

*** tstop() called on c434-071.stampede2.tacc.utexas.edu at Fri Mar 19 13:59:04 2021
Module time:
	user time   =     591.25 seconds =       9.85 minutes
	system time =      43.49 seconds =       0.72 minutes
	total time  =         33 seconds =       0.55 minutes
Total time:
	user time   =     591.25 seconds =       9.85 minutes
	system time =      43.49 seconds =       0.72 minutes
	total time  =         33 seconds =       0.55 minutes
   => Loading Basis Set <=

    Name: (AUG-CC-PVTZ AUX)
    Role: RIFIT
    Keyword: DF_BASIS_MP2
    atoms 1-3   entry O          line   264 file /home1/07844/xy3866/miniconda3/envs/p4env/share/psi4/basis/aug-cc-pvtz-ri.gbs 
    atoms 4-9   entry C          line   148 file /home1/07844/xy3866/miniconda3/envs/p4env/share/psi4/basis/aug-cc-pvtz-ri.gbs 
    atoms 10-19 entry H          line    30 file /home1/07844/xy3866/miniconda3/envs/p4env/share/psi4/basis/aug-cc-pvtz-ri.gbs 


*** tstart() called on c434-071.stampede2.tacc.utexas.edu
*** at Fri Mar 19 13:59:05 2021


  //>>>>>>>>>>>>>>>>>>>>>>>>>>>>>>>>>>>//
  //               DFMP2               //
  //<<<<<<<<<<<<<<<<<<<<<<<<<<<<<<<<<<<//

	 --------------------------------------------------------
	                          DF-MP2                         
	      2nd-Order Density-Fitted Moller-Plesset Theory     
	              RMP2 Wavefunction,  32 Threads             
	                                                         
	        Rob Parrish, Justin Turney, Andy Simmonett,      
	           Ed Hohenstein, and C. David Sherrill          
	 --------------------------------------------------------

   => Auxiliary Basis Set <=

  Basis Set: (AUG-CC-PVTZ AUX)
    Blend: AUG-CC-PVTZ-RI
    Number of shells: 392
    Number of basis functions: 1414
    Number of Cartesian functions: 1774
    Spherical Harmonics?: true
    Max angular momentum: 4

	 --------------------------------------------------------
	                 NBF =   644, NAUX =  1414
	 --------------------------------------------------------
	   CLASS    FOCC     OCC    AOCC    AVIR     VIR    FVIR
	   PAIRS       0      35      35     609     609       0
	 --------------------------------------------------------

  DFHelper Memory: AOs need 4.152 GiB; user supplied 22.352 GiB. Using in-core AOs.


         ------------------------------------------------------------
                                     CPHF                           
                                  Rob Parrish                       
         ------------------------------------------------------------

  ==> Geometry <==

    Molecular point group: c1
    Full point group: C1

    Geometry (in Angstrom), charge = 0, multiplicity = 1:

       Center              X                  Y                   Z               Mass       
    ------------   -----------------  -----------------  -----------------  -----------------
         O           -1.292295723400    -0.238107253347     0.343261478800    15.994914619570
         O           -0.184602723400     1.694265746653    -0.110816521200    15.994914619570
         O            2.109885276600    -1.662170253347    -0.357113521200    15.994914619570
         C            0.956742276600    -0.102762253347     1.052683478800    12.000000000000
         C           -2.450042723400     0.317597746653    -0.335656521200    12.000000000000
         C           -0.215145723400     0.572728746653     0.374872478800    12.000000000000
         C            2.003702376600    -0.498593953347    -0.021215021200    12.000000000000
         C           -3.531391723400    -0.735797253347    -0.272752521200    12.000000000000
         C            2.827954276600     0.625848746653    -0.570955521200    12.000000000000
         H            0.631945276600    -1.003986253347     1.573042478800     1.007825032230
         H            1.394710276600     0.614319746653     1.754608478800     1.007825032230
         H           -2.738879723400     1.244404746653     0.166972478800     1.007825032230
         H           -2.167119723400     0.564866746653    -1.362161521200     1.007825032230
         H           -4.432723723400    -0.371535253347    -0.773583521200     1.007825032230
         H           -3.203388723400    -1.651734253347    -0.768340521200     1.007825032230
         H           -3.780184723400    -0.969686253347     0.764404478800     1.007825032230
         H            3.397523276600     0.260502746653    -1.426035521200     1.007825032230
         H            3.519356276600     0.981610746653     0.201156478800     1.007825032230
         H            2.192945276600     1.469211746653    -0.854051521200     1.007825032230

  Nuclear repulsion =  453.122908041675998
  Reference energy  = -457.807108577445604

  ==> Basis Set <==

  Basis Set: AUG-CC-PVTZ
    Blend: AUG-CC-PVTZ
    Number of shells: 216
    Number of basis functions: 644
    Number of Cartesian functions: 745
    Spherical Harmonics?: true
    Max angular momentum: 3

  ==> CGRSolver (by Rob Parrish) <==

   Number of roots    =         1
   Preconditioning    =    JACOBI
   Convergence cutoff =     1E-06
   Maximum iterations =       100

  ==> CPHFRHamiltonian (by Rob Parrish) <== 

  ==> MemDFJK: Density-Fitted J/K Matrices <==

    J tasked:                   Yes
    K tasked:                   Yes
    wK tasked:                   No
    OpenMP threads:              32
    Memory [MiB]:             22888
    Algorithm:                 Core
    Schwarz Cutoff:           1E-12
    Mask sparsity (%):       8.3214
    Fitting Condition:        1E-10

   => Auxiliary Basis Set <=

  Basis Set: (AUG-CC-PVTZ AUX)
    Blend: AUG-CC-PVTZ-JKFIT
    Number of shells: 410
    Number of basis functions: 1396
    Number of Cartesian functions: 1729
    Spherical Harmonics?: true
    Max angular momentum: 4

  ==> CPHF Iterations <==

  => Iterations <=

             Iter  Converged  Remaining    Residual
  CGR           1          0          1   1.175E-01
  CGR           2          0          1   3.424E-02
  CGR           3          0          1   1.199E-02
  CGR           4          0          1   4.009E-03
  CGR           5          0          1   1.487E-03
  CGR           6          0          1   4.512E-04
  CGR           7          0          1   1.577E-04
  CGR           8          0          1   6.534E-05
  CGR           9          0          1   3.175E-05
  CGR          10          0          1   1.192E-05
  CGR          11          0          1   4.190E-06
  CGR          12          0          1   1.893E-06
  CGR          13          1          0   8.060E-07

    CGRSolver converged.

	-----------------------------------------------------------
	 ==================> DF-MP2 Energies <==================== 
	-----------------------------------------------------------
	 Reference Energy          =    -457.8071085774456037 [Eh]
	 Singles Energy            =      -0.0000000000000000 [Eh]
	 Same-Spin Energy          =      -0.4480125019455671 [Eh]
	 Opposite-Spin Energy      =      -1.4387765752289297 [Eh]
	 Correlation Energy        =      -1.8867890771744968 [Eh]
	 Total Energy              =    -459.6938976546201161 [Eh]
	-----------------------------------------------------------
	 ================> DF-SCS-MP2 Energies <================== 
	-----------------------------------------------------------
	 SCS Same-Spin Scale       =       0.3333333333333333 [-]
	 SCS Opposite-Spin Scale   =       1.2000000000000000 [-]
	 SCS Same-Spin Energy      =      -0.1493375006485224 [Eh]
	 SCS Opposite-Spin Energy  =      -1.7265318902747155 [Eh]
	 SCS Correlation Energy    =      -1.8758693909232378 [Eh]
	 SCS Total Energy          =    -459.6829779683688457 [Eh]
	-----------------------------------------------------------



Properties will be evaluated at   0.000000,   0.000000,   0.000000 [a0]

Properties computed using the MP2 density matrix

  Nuclear Dipole Moment: [e a0]
     X:    -4.8585      Y:     1.0658      Z:    -0.6793

  Electronic Dipole Moment: [e a0]
     X:     4.3833      Y:    -0.6409      Z:     1.0450

  Dipole Moment: [e a0]
     X:    -0.4752      Y:     0.4249      Z:     0.3657     Total:     0.7349

  Dipole Moment: [D]
     X:    -1.2079      Y:     1.0800      Z:     0.9294     Total:     1.8680


*** tstop() called on c434-071.stampede2.tacc.utexas.edu at Fri Mar 19 14:02:15 2021
Module time:
	user time   =    1676.00 seconds =      27.93 minutes
	system time =      60.32 seconds =       1.01 minutes
	total time  =        190 seconds =       3.17 minutes
Total time:
	user time   =    2268.20 seconds =      37.80 minutes
	system time =     103.83 seconds =       1.73 minutes
	total time  =        224 seconds =       3.73 minutes

    Psi4 stopped on: Friday, 19 March 2021 02:02PM
    Psi4 wall time for execution: 0:03:44.76

*** Psi4 exiting successfully. Buy a developer a beer!
