
    -----------------------------------------------------------------------
          Psi4: An Open-Source Ab Initio Electronic Structure Package
                               Psi4 1.4a3.dev225 

                         Git: Rev {master} 7105e37 


    D. G. A. Smith, L. A. Burns, A. C. Simmonett, R. M. Parrish,
    M. C. Schieber, R. Galvelis, P. Kraus, H. Kruse, R. Di Remigio,
    A. Alenaizan, A. M. James, S. Lehtola, J. P. Misiewicz, M. Scheurer,
    R. A. Shaw, J. B. Schriber, Y. Xie, Z. L. Glick, D. A. Sirianni,
    J. S. O'Brien, J. M. Waldrop, A. Kumar, E. G. Hohenstein,
    B. P. Pritchard, B. R. Brooks, H. F. Schaefer III, A. Yu. Sokolov,
    K. Patkowski, A. E. DePrince III, U. Bozkaya, R. A. King,
    F. A. Evangelista, J. M. Turney, T. D. Crawford, C. D. Sherrill,
    J. Chem. Phys. 152(18) 184108 (2020). https://doi.org/10.1063/5.0006002

                            Additional Code Authors
    E. T. Seidl, C. L. Janssen, E. F. Valeev, M. L. Leininger,
    J. F. Gonthier, R. M. Richard, H. R. McAlexander, M. Saitow, X. Wang,
    P. Verma, and M. H. Lechner

             Previous Authors, Complete List of Code Contributors,
                       and Citations for Specific Modules
    https://github.com/psi4/psi4/blob/master/codemeta.json
    https://github.com/psi4/psi4/graphs/contributors
    http://psicode.org/psi4manual/master/introduction.html#citing-psifour

    -----------------------------------------------------------------------


    Psi4 started on: Friday, 19 March 2021 01:46PM

    Process ID: 44324
    Host:       c434-071.stampede2.tacc.utexas.edu
    PSIDATADIR: /home1/07844/xy3866/miniconda3/envs/p4env/share/psi4
    Memory:     500.0 MiB
    Threads:    32
    
  ==> Input File <==

--------------------------------------------------------------------------
#psi4
#
memory 32 gb

molecule  {
0 1
  O       -1.2544100    -0.2466020     0.3472100
  O       -0.1467170     1.6857710    -0.1068680
  O        2.1477710    -1.6706650    -0.3531650
  C        0.9946280    -0.1112570     1.0566320
  C       -2.4121570     0.3091030    -0.3317080
  C       -0.2159884     0.5865575     0.3564208
  C        2.0280890    -0.5019850    -0.0034200
  C       -3.4935060    -0.7442920    -0.2688040
  C        2.8658400     0.6173540    -0.5670070
  H        0.6698310    -1.0124810     1.5769910
  H        1.4325960     0.6058250     1.7585570
  H       -2.7009940     1.2359100     0.1709210
  H       -2.1292340     0.5563720    -1.3582130
  H       -4.3948380    -0.3800300    -0.7696350
  H       -3.1655030    -1.6602290    -0.7643920
  H       -3.7422990    -0.9781810     0.7683530
  H        3.4354090     0.2520080    -1.4220870
  H        3.5572420     0.9731160     0.2051050
  H        2.2308310     1.4607170    -0.8501030
units angstrom
no_reorient  #important for SAPT in psi4, default
symmetry c1  #important for SAPT in psi4, default
}

set PROPERTIES_ORIGIN ["COM"]
properties('MP2/aug-cc-pvtz', properties = ['dipole'])
--------------------------------------------------------------------------

  Memory set to  29.802 GiB by Python driver.
    SCF Algorithm Type (re)set to DF.

*** tstart() called on c434-071.stampede2.tacc.utexas.edu
*** at Fri Mar 19 13:46:41 2021

   => Loading Basis Set <=

    Name: AUG-CC-PVTZ
    Role: ORBITAL
    Keyword: BASIS
    atoms 1-3   entry O          line   331 file /home1/07844/xy3866/miniconda3/envs/p4env/share/psi4/basis/aug-cc-pvtz.gbs 
    atoms 4-9   entry C          line   239 file /home1/07844/xy3866/miniconda3/envs/p4env/share/psi4/basis/aug-cc-pvtz.gbs 
    atoms 10-19 entry H          line    40 file /home1/07844/xy3866/miniconda3/envs/p4env/share/psi4/basis/aug-cc-pvtz.gbs 


         ---------------------------------------------------------
                                   SCF
               by Justin Turney, Rob Parrish, Andy Simmonett
                          and Daniel G. A. Smith
                              RHF Reference
                       32 Threads,  30517 MiB Core
         ---------------------------------------------------------

  ==> Geometry <==

    Molecular point group: c1
    Full point group: C1

    Geometry (in Angstrom), charge = 0, multiplicity = 1:

       Center              X                  Y                   Z               Mass       
    ------------   -----------------  -----------------  -----------------  -----------------
         O           -1.287477058383    -0.240637768672     0.344050668690    15.994914619570
         O           -0.179784058383     1.691735231328    -0.110027331310    15.994914619570
         O            2.114703941617    -1.664700768672    -0.356324331310    15.994914619570
         C            0.961560941617    -0.105292768672     1.053472668690    12.000000000000
         C           -2.445224058383     0.315067231328    -0.334867331310    12.000000000000
         C           -0.249055458383     0.592521731328     0.353261468690    12.000000000000
         C            1.995021941617    -0.496020768672    -0.006579331310    12.000000000000
         C           -3.526573058383    -0.738327768672    -0.271963331310    12.000000000000
         C            2.832772941617     0.623318231328    -0.570166331310    12.000000000000
         H            0.636763941617    -1.006516768672     1.573831668690     1.007825032230
         H            1.399528941617     0.611789231328     1.755397668690     1.007825032230
         H           -2.734061058383     1.241874231328     0.167761668690     1.007825032230
         H           -2.162301058383     0.562336231328    -1.361372331310     1.007825032230
         H           -4.427905058383    -0.374065768672    -0.772794331310     1.007825032230
         H           -3.198570058383    -1.654264768672    -0.767551331310     1.007825032230
         H           -3.775366058383    -0.972216768672     0.765193668690     1.007825032230
         H            3.402341941617     0.257972231328    -1.425246331310     1.007825032230
         H            3.524174941617     0.979080231328     0.201945668690     1.007825032230
         H            2.197763941617     1.466681231328    -0.853262331310     1.007825032230

  Running in c1 symmetry.

  Rotational constants: A =      0.10686  B =      0.02804  C =      0.02462 [cm^-1]
  Rotational constants: A =   3203.47776  B =    840.68693  C =    738.15534 [MHz]
  Nuclear repulsion =  453.414766711576931

  Charge       = 0
  Multiplicity = 1
  Electrons    = 70
  Nalpha       = 35
  Nbeta        = 35

  ==> Algorithm <==

  SCF Algorithm Type is DF.
  DIIS enabled.
  MOM disabled.
  Fractional occupation disabled.
  Guess Type is SAD.
  Energy threshold   = 1.00e-10
  Density threshold  = 1.00e-10
  Integral threshold = 1.00e-12

  ==> Primary Basis <==

  Basis Set: AUG-CC-PVTZ
    Blend: AUG-CC-PVTZ
    Number of shells: 216
    Number of basis functions: 644
    Number of Cartesian functions: 745
    Spherical Harmonics?: true
    Max angular momentum: 3

   => Loading Basis Set <=

    Name: (AUG-CC-PVTZ AUX)
    Role: JKFIT
    Keyword: DF_BASIS_SCF
    atoms 1-3   entry O          line   286 file /home1/07844/xy3866/miniconda3/envs/p4env/share/psi4/basis/aug-cc-pvtz-jkfit.gbs 
    atoms 4-9   entry C          line   162 file /home1/07844/xy3866/miniconda3/envs/p4env/share/psi4/basis/aug-cc-pvtz-jkfit.gbs 
    atoms 10-19 entry H          line    70 file /home1/07844/xy3866/miniconda3/envs/p4env/share/psi4/basis/aug-cc-pvtz-jkfit.gbs 

  ==> Integral Setup <==

  DFHelper Memory: AOs need 3.952 GiB; user supplied 22.352 GiB. Using in-core AOs.

  ==> MemDFJK: Density-Fitted J/K Matrices <==

    J tasked:                   Yes
    K tasked:                   Yes
    wK tasked:                   No
    OpenMP threads:              32
    Memory [MiB]:             22888
    Algorithm:                 Core
    Schwarz Cutoff:           1E-12
    Mask sparsity (%):      12.9523
    Fitting Condition:        1E-10

   => Auxiliary Basis Set <=

  Basis Set: (AUG-CC-PVTZ AUX)
    Blend: AUG-CC-PVTZ-JKFIT
    Number of shells: 410
    Number of basis functions: 1396
    Number of Cartesian functions: 1729
    Spherical Harmonics?: true
    Max angular momentum: 4

  Minimum eigenvalue in the overlap matrix is 6.2496969371E-06.
  Reciprocal condition number of the overlap matrix is 3.5550223515E-07.
    Using symmetric orthogonalization.

  ==> Pre-Iterations <==

  SCF Guess: Superposition of Atomic Densities via on-the-fly atomic UHF (no occupation information).

   -------------------------
    Irrep   Nso     Nmo    
   -------------------------
     A        644     644 
   -------------------------
    Total     644     644
   -------------------------

  ==> Iterations <==

                           Total Energy        Delta E     RMS |[F,P]|

   @DF-RHF iter SAD:  -456.45999451462689   -4.56460e+02   0.00000e+00 
   @DF-RHF iter   1:  -457.48569786680088   -1.02570e+00   1.23661e-03 DIIS
   @DF-RHF iter   2:  -457.72265252355407   -2.36955e-01   7.40570e-04 DIIS
   @DF-RHF iter   3:  -457.79959790566090   -7.69454e-02   1.53234e-04 DIIS
   @DF-RHF iter   4:  -457.80557369983256   -5.97579e-03   6.22649e-05 DIIS
   @DF-RHF iter   5:  -457.80671859347001   -1.14489e-03   1.36079e-05 DIIS
   @DF-RHF iter   6:  -457.80680362942263   -8.50360e-05   7.36180e-06 DIIS
   @DF-RHF iter   7:  -457.80682348089027   -1.98515e-05   2.65422e-06 DIIS
   @DF-RHF iter   8:  -457.80682736511136   -3.88422e-06   1.00976e-06 DIIS
   @DF-RHF iter   9:  -457.80682792314155   -5.58030e-07   3.19184e-07 DIIS
   @DF-RHF iter  10:  -457.80682796833293   -4.51914e-08   1.22194e-07 DIIS
   @DF-RHF iter  11:  -457.80682797289819   -4.56527e-09   3.89450e-08 DIIS
   @DF-RHF iter  12:  -457.80682797368877   -7.90578e-10   1.55942e-08 DIIS
   @DF-RHF iter  13:  -457.80682797388891   -2.00146e-10   7.37229e-09 DIIS
   @DF-RHF iter  14:  -457.80682797395536   -6.64500e-11   3.69071e-09 DIIS
   @DF-RHF iter  15:  -457.80682797397310   -1.77351e-11   1.15181e-09 DIIS
   @DF-RHF iter  16:  -457.80682797397435   -1.25056e-12   3.94131e-10 DIIS
   @DF-RHF iter  17:  -457.80682797397492   -5.68434e-13   1.88098e-10 DIIS
   @DF-RHF iter  18:  -457.80682797397424    6.82121e-13   9.22751e-11 DIIS
  Energy and wave function converged.


  ==> Post-Iterations <==

    Orbital Energies [Eh]
    ---------------------

    Doubly Occupied:                                                      

       1A    -20.619997     2A    -20.561562     3A    -20.554454  
       4A    -11.397793     5A    -11.345190     6A    -11.299415  
       7A    -11.259376     8A    -11.234374     9A    -11.231620  
      10A     -1.480231    11A     -1.386018    12A     -1.384251  
      13A     -1.074100    14A     -1.040909    15A     -0.984680  
      16A     -0.878189    17A     -0.801771    18A     -0.753528  
      19A     -0.710360    20A     -0.698881    21A     -0.682507  
      22A     -0.649322    23A     -0.641483    24A     -0.603068  
      25A     -0.591121    26A     -0.577361    27A     -0.568528  
      28A     -0.550211    29A     -0.537208    30A     -0.526021  
      31A     -0.520295    32A     -0.503021    33A     -0.476407  
      34A     -0.453305    35A     -0.419186  

    Virtual:                                                              

      36A      0.027368    37A      0.031183    38A      0.035929  
      39A      0.040984    40A      0.047537    41A      0.048433  
      42A      0.056355    43A      0.063778    44A      0.064319  
      45A      0.069132    46A      0.085668    47A      0.097821  
      48A      0.102447    49A      0.106668    50A      0.114906  
      51A      0.120389    52A      0.121874    53A      0.124098  
      54A      0.129360    55A      0.132165    56A      0.133468  
      57A      0.136701    58A      0.139074    59A      0.140195  
      60A      0.145875    61A      0.156584    62A      0.160721  
      63A      0.162302    64A      0.169161    65A      0.174852  
      66A      0.179103    67A      0.190399    68A      0.193826  
      69A      0.205147    70A      0.213671    71A      0.218170  
      72A      0.222770    73A      0.233305    74A      0.235793  
      75A      0.238136    76A      0.250530    77A      0.254958  
      78A      0.259284    79A      0.271423    80A      0.272748  
      81A      0.281643    82A      0.287411    83A      0.289757  
      84A      0.298914    85A      0.302209    86A      0.311352  
      87A      0.312548    88A      0.315509    89A      0.322021  
      90A      0.326721    91A      0.331190    92A      0.336107  
      93A      0.339565    94A      0.343819    95A      0.352259  
      96A      0.354866    97A      0.357687    98A      0.361637  
      99A      0.366878   100A      0.373013   101A      0.376775  
     102A      0.386752   103A      0.386975   104A      0.398192  
     105A      0.399204   106A      0.406601   107A      0.407747  
     108A      0.409707   109A      0.412298   110A      0.418755  
     111A      0.425712   112A      0.433168   113A      0.437686  
     114A      0.438267   115A      0.445280   116A      0.449700  
     117A      0.452336   118A      0.454703   119A      0.457976  
     120A      0.464075   121A      0.473027   122A      0.474001  
     123A      0.479140   124A      0.480810   125A      0.482107  
     126A      0.486558   127A      0.487471   128A      0.500072  
     129A      0.506537   130A      0.511715   131A      0.519151  
     132A      0.530800   133A      0.533515   134A      0.533870  
     135A      0.543099   136A      0.546473   137A      0.549827  
     138A      0.559880   139A      0.571037   140A      0.572202  
     141A      0.580844   142A      0.588990   143A      0.592301  
     144A      0.598616   145A      0.605620   146A      0.611899  
     147A      0.613827   148A      0.621147   149A      0.622936  
     150A      0.640583   151A      0.642178   152A      0.648358  
     153A      0.661045   154A      0.669428   155A      0.677806  
     156A      0.682206   157A      0.692282   158A      0.705912  
     159A      0.714498   160A      0.735468   161A      0.744519  
     162A      0.751197   163A      0.761668   164A      0.774930  
     165A      0.779538   166A      0.788685   167A      0.790961  
     168A      0.796473   169A      0.804150   170A      0.817244  
     171A      0.819970   172A      0.825112   173A      0.830142  
     174A      0.835014   175A      0.839997   176A      0.851649  
     177A      0.855180   178A      0.857807   179A      0.873510  
     180A      0.878690   181A      0.881962   182A      0.890574  
     183A      0.895796   184A      0.900041   185A      0.904214  
     186A      0.914446   187A      0.917138   188A      0.921837  
     189A      0.931698   190A      0.932798   191A      0.934400  
     192A      0.938208   193A      0.945269   194A      0.950048  
     195A      0.962709   196A      0.963565   197A      0.964968  
     198A      0.977375   199A      0.981892   200A      0.987746  
     201A      0.995988   202A      1.002653   203A      1.008943  
     204A      1.016652   205A      1.019110   206A      1.024511  
     207A      1.035958   208A      1.037975   209A      1.043238  
     210A      1.051163   211A      1.061740   212A      1.066322  
     213A      1.070774   214A      1.077145   215A      1.081618  
     216A      1.089306   217A      1.099096   218A      1.100754  
     219A      1.115688   220A      1.119470   221A      1.123077  
     222A      1.126309   223A      1.132490   224A      1.142503  
     225A      1.149879   226A      1.150957   227A      1.158521  
     228A      1.167186   229A      1.177173   230A      1.185971  
     231A      1.191614   232A      1.200052   233A      1.206217  
     234A      1.212532   235A      1.215536   236A      1.217910  
     237A      1.234801   238A      1.237025   239A      1.247845  
     240A      1.253075   241A      1.256813   242A      1.272495  
     243A      1.277000   244A      1.287515   245A      1.291070  
     246A      1.293310   247A      1.303940   248A      1.315948  
     249A      1.323128   250A      1.326543   251A      1.335191  
     252A      1.349325   253A      1.357871   254A      1.360771  
     255A      1.374312   256A      1.387339   257A      1.398832  
     258A      1.407630   259A      1.413524   260A      1.419793  
     261A      1.434477   262A      1.448135   263A      1.469286  
     264A      1.480283   265A      1.486390   266A      1.494633  
     267A      1.500482   268A      1.510862   269A      1.517599  
     270A      1.525309   271A      1.532924   272A      1.539274  
     273A      1.556909   274A      1.566397   275A      1.575139  
     276A      1.583896   277A      1.587413   278A      1.600515  
     279A      1.609530   280A      1.613020   281A      1.621600  
     282A      1.632230   283A      1.637909   284A      1.643055  
     285A      1.651537   286A      1.659742   287A      1.664806  
     288A      1.668028   289A      1.676826   290A      1.678732  
     291A      1.682382   292A      1.692223   293A      1.704123  
     294A      1.706114   295A      1.706753   296A      1.724313  
     297A      1.727133   298A      1.734021   299A      1.747651  
     300A      1.750954   301A      1.763263   302A      1.769704  
     303A      1.778344   304A      1.782659   305A      1.795238  
     306A      1.804644   307A      1.820998   308A      1.821979  
     309A      1.831108   310A      1.844626   311A      1.847386  
     312A      1.863297   313A      1.871326   314A      1.876800  
     315A      1.883335   316A      1.896249   317A      1.908207  
     318A      1.917345   319A      1.933015   320A      1.937506  
     321A      1.941739   322A      1.953722   323A      1.971718  
     324A      1.976298   325A      1.999041   326A      2.001372  
     327A      2.010754   328A      2.021785   329A      2.027187  
     330A      2.036417   331A      2.052285   332A      2.056724  
     333A      2.067762   334A      2.088293   335A      2.099256  
     336A      2.105825   337A      2.132153   338A      2.137997  
     339A      2.149315   340A      2.160178   341A      2.172808  
     342A      2.175466   343A      2.200758   344A      2.216490  
     345A      2.227914   346A      2.235219   347A      2.238130  
     348A      2.248484   349A      2.261305   350A      2.277272  
     351A      2.283485   352A      2.297071   353A      2.301090  
     354A      2.315964   355A      2.320375   356A      2.350902  
     357A      2.375504   358A      2.387234   359A      2.397673  
     360A      2.409456   361A      2.429002   362A      2.438983  
     363A      2.449630   364A      2.475184   365A      2.500768  
     366A      2.505646   367A      2.527834   368A      2.539129  
     369A      2.548439   370A      2.583322   371A      2.598724  
     372A      2.615876   373A      2.619359   374A      2.636817  
     375A      2.649636   376A      2.663958   377A      2.672581  
     378A      2.694949   379A      2.704009   380A      2.716692  
     381A      2.723449   382A      2.744702   383A      2.764164  
     384A      2.791834   385A      2.812294   386A      2.832842  
     387A      2.851317   388A      2.852762   389A      2.909814  
     390A      2.917503   391A      2.923323   392A      2.946108  
     393A      2.960804   394A      2.987307   395A      2.988799  
     396A      3.020093   397A      3.029605   398A      3.063071  
     399A      3.078917   400A      3.096631   401A      3.116209  
     402A      3.132223   403A      3.151858   404A      3.167086  
     405A      3.189620   406A      3.220569   407A      3.226465  
     408A      3.281769   409A      3.296741   410A      3.316934  
     411A      3.327087   412A      3.352235   413A      3.390944  
     414A      3.404620   415A      3.420146   416A      3.426898  
     417A      3.436208   418A      3.448391   419A      3.459212  
     420A      3.480900   421A      3.501743   422A      3.510016  
     423A      3.540897   424A      3.555334   425A      3.578652  
     426A      3.584614   427A      3.604325   428A      3.616332  
     429A      3.618967   430A      3.628762   431A      3.643370  
     432A      3.655253   433A      3.665975   434A      3.681251  
     435A      3.688375   436A      3.694093   437A      3.712836  
     438A      3.714496   439A      3.728845   440A      3.745555  
     441A      3.754777   442A      3.764199   443A      3.783283  
     444A      3.796589   445A      3.815505   446A      3.819417  
     447A      3.830842   448A      3.853740   449A      3.862324  
     450A      3.873074   451A      3.889568   452A      3.891427  
     453A      3.908661   454A      3.927155   455A      3.936252  
     456A      3.942221   457A      3.952486   458A      3.966800  
     459A      3.973548   460A      3.978900   461A      3.990705  
     462A      4.015020   463A      4.032384   464A      4.038741  
     465A      4.053741   466A      4.056123   467A      4.059735  
     468A      4.083339   469A      4.091370   470A      4.099109  
     471A      4.115450   472A      4.139522   473A      4.151818  
     474A      4.160975   475A      4.167954   476A      4.176305  
     477A      4.182163   478A      4.188952   479A      4.196777  
     480A      4.217088   481A      4.228080   482A      4.237878  
     483A      4.248348   484A      4.276005   485A      4.288947  
     486A      4.296321   487A      4.319576   488A      4.333312  
     489A      4.356326   490A      4.366651   491A      4.388118  
     492A      4.401675   493A      4.417766   494A      4.431762  
     495A      4.433621   496A      4.466158   497A      4.476828  
     498A      4.487431   499A      4.507543   500A      4.516245  
     501A      4.527789   502A      4.536504   503A      4.551814  
     504A      4.568083   505A      4.587284   506A      4.593091  
     507A      4.625252   508A      4.634402   509A      4.641101  
     510A      4.661035   511A      4.683648   512A      4.691905  
     513A      4.720624   514A      4.734156   515A      4.752106  
     516A      4.774768   517A      4.798331   518A      4.830570  
     519A      4.841011   520A      4.846683   521A      4.861027  
     522A      4.865787   523A      4.892500   524A      4.895380  
     525A      4.910801   526A      4.938660   527A      4.955474  
     528A      4.966110   529A      4.985406   530A      5.004426  
     531A      5.005351   532A      5.027806   533A      5.042491  
     534A      5.068817   535A      5.074199   536A      5.097082  
     537A      5.112429   538A      5.135527   539A      5.148651  
     540A      5.153105   541A      5.172712   542A      5.185064  
     543A      5.192138   544A      5.235610   545A      5.248687  
     546A      5.266229   547A      5.309132   548A      5.311325  
     549A      5.344174   550A      5.354729   551A      5.360482  
     552A      5.378059   553A      5.402998   554A      5.420673  
     555A      5.429276   556A      5.440936   557A      5.463351  
     558A      5.476921   559A      5.500050   560A      5.518768  
     561A      5.543890   562A      5.554395   563A      5.574978  
     564A      5.579197   565A      5.625272   566A      5.636005  
     567A      5.656611   568A      5.681922   569A      5.734451  
     570A      5.758816   571A      5.769653   572A      5.791340  
     573A      5.797868   574A      5.851679   575A      5.903989  
     576A      5.954430   577A      6.000116   578A      6.010046  
     579A      6.020339   580A      6.040996   581A      6.063785  
     582A      6.111829   583A      6.134388   584A      6.143256  
     585A      6.158336   586A      6.199095   587A      6.217856  
     588A      6.230564   589A      6.331226   590A      6.381782  
     591A      6.402712   592A      6.493563   593A      6.630507  
     594A      6.694461   595A      6.712517   596A      6.742309  
     597A      6.749087   598A      6.764619   599A      6.798989  
     600A      6.815888   601A      6.852796   602A      6.855226  
     603A      6.894573   604A      6.939578   605A      6.964645  
     606A      7.042183   607A      7.053668   608A      7.113128  
     609A      7.115861   610A      7.190688   611A      7.211583  
     612A      7.255083   613A      7.290901   614A      7.326553  
     615A      7.382091   616A      7.422742   617A      7.461635  
     618A      7.475300   619A      7.495739   620A      7.500009  
     621A      7.563296   622A      7.636268   623A      7.647081  
     624A      7.700108   625A      7.713657   626A      7.731509  
     627A      7.839831   628A      7.887007   629A      7.891230  
     630A      7.934110   631A      7.979363   632A      8.002752  
     633A      8.103694   634A      8.327459   635A      8.572870  
     636A     15.113219   637A     15.417064   638A     16.409517  
     639A     17.113866   640A     17.739433   641A     18.032458  
     642A     18.534122   643A     19.342263   644A     20.256833  

    Final Occupation by Irrep:
              A 
    DOCC [    35 ]

  @DF-RHF Final Energy:  -457.80682797397424

   => Energetics <=

    Nuclear Repulsion Energy =            453.4147667115769309
    One-Electron Energy =               -1524.4517029450792052
    Two-Electron Energy =                 613.2301082595280377
    Total Energy =                       -457.8068279739742366

Computation Completed

*** tstop() called on c434-071.stampede2.tacc.utexas.edu at Fri Mar 19 13:47:14 2021
Module time:
	user time   =     590.36 seconds =       9.84 minutes
	system time =      43.10 seconds =       0.72 minutes
	total time  =         33 seconds =       0.55 minutes
Total time:
	user time   =     590.36 seconds =       9.84 minutes
	system time =      43.10 seconds =       0.72 minutes
	total time  =         33 seconds =       0.55 minutes
   => Loading Basis Set <=

    Name: (AUG-CC-PVTZ AUX)
    Role: RIFIT
    Keyword: DF_BASIS_MP2
    atoms 1-3   entry O          line   264 file /home1/07844/xy3866/miniconda3/envs/p4env/share/psi4/basis/aug-cc-pvtz-ri.gbs 
    atoms 4-9   entry C          line   148 file /home1/07844/xy3866/miniconda3/envs/p4env/share/psi4/basis/aug-cc-pvtz-ri.gbs 
    atoms 10-19 entry H          line    30 file /home1/07844/xy3866/miniconda3/envs/p4env/share/psi4/basis/aug-cc-pvtz-ri.gbs 


*** tstart() called on c434-071.stampede2.tacc.utexas.edu
*** at Fri Mar 19 13:47:15 2021


  //>>>>>>>>>>>>>>>>>>>>>>>>>>>>>>>>>>>//
  //               DFMP2               //
  //<<<<<<<<<<<<<<<<<<<<<<<<<<<<<<<<<<<//

	 --------------------------------------------------------
	                          DF-MP2                         
	      2nd-Order Density-Fitted Moller-Plesset Theory     
	              RMP2 Wavefunction,  32 Threads             
	                                                         
	        Rob Parrish, Justin Turney, Andy Simmonett,      
	           Ed Hohenstein, and C. David Sherrill          
	 --------------------------------------------------------

   => Auxiliary Basis Set <=

  Basis Set: (AUG-CC-PVTZ AUX)
    Blend: AUG-CC-PVTZ-RI
    Number of shells: 392
    Number of basis functions: 1414
    Number of Cartesian functions: 1774
    Spherical Harmonics?: true
    Max angular momentum: 4

	 --------------------------------------------------------
	                 NBF =   644, NAUX =  1414
	 --------------------------------------------------------
	   CLASS    FOCC     OCC    AOCC    AVIR     VIR    FVIR
	   PAIRS       0      35      35     609     609       0
	 --------------------------------------------------------

  DFHelper Memory: AOs need 4.152 GiB; user supplied 22.352 GiB. Using in-core AOs.


         ------------------------------------------------------------
                                     CPHF                           
                                  Rob Parrish                       
         ------------------------------------------------------------

  ==> Geometry <==

    Molecular point group: c1
    Full point group: C1

    Geometry (in Angstrom), charge = 0, multiplicity = 1:

       Center              X                  Y                   Z               Mass       
    ------------   -----------------  -----------------  -----------------  -----------------
         O           -1.287477058383    -0.240637768672     0.344050668690    15.994914619570
         O           -0.179784058383     1.691735231328    -0.110027331310    15.994914619570
         O            2.114703941617    -1.664700768672    -0.356324331310    15.994914619570
         C            0.961560941617    -0.105292768672     1.053472668690    12.000000000000
         C           -2.445224058383     0.315067231328    -0.334867331310    12.000000000000
         C           -0.249055458383     0.592521731328     0.353261468690    12.000000000000
         C            1.995021941617    -0.496020768672    -0.006579331310    12.000000000000
         C           -3.526573058383    -0.738327768672    -0.271963331310    12.000000000000
         C            2.832772941617     0.623318231328    -0.570166331310    12.000000000000
         H            0.636763941617    -1.006516768672     1.573831668690     1.007825032230
         H            1.399528941617     0.611789231328     1.755397668690     1.007825032230
         H           -2.734061058383     1.241874231328     0.167761668690     1.007825032230
         H           -2.162301058383     0.562336231328    -1.361372331310     1.007825032230
         H           -4.427905058383    -0.374065768672    -0.772794331310     1.007825032230
         H           -3.198570058383    -1.654264768672    -0.767551331310     1.007825032230
         H           -3.775366058383    -0.972216768672     0.765193668690     1.007825032230
         H            3.402341941617     0.257972231328    -1.425246331310     1.007825032230
         H            3.524174941617     0.979080231328     0.201945668690     1.007825032230
         H            2.197763941617     1.466681231328    -0.853262331310     1.007825032230

  Nuclear repulsion =  453.414766711576931
  Reference energy  = -457.806827973974237

  ==> Basis Set <==

  Basis Set: AUG-CC-PVTZ
    Blend: AUG-CC-PVTZ
    Number of shells: 216
    Number of basis functions: 644
    Number of Cartesian functions: 745
    Spherical Harmonics?: true
    Max angular momentum: 3

  ==> CGRSolver (by Rob Parrish) <==

   Number of roots    =         1
   Preconditioning    =    JACOBI
   Convergence cutoff =     1E-06
   Maximum iterations =       100

  ==> CPHFRHamiltonian (by Rob Parrish) <== 

  ==> MemDFJK: Density-Fitted J/K Matrices <==

    J tasked:                   Yes
    K tasked:                   Yes
    wK tasked:                   No
    OpenMP threads:              32
    Memory [MiB]:             22888
    Algorithm:                 Core
    Schwarz Cutoff:           1E-12
    Mask sparsity (%):       8.3157
    Fitting Condition:        1E-10

   => Auxiliary Basis Set <=

  Basis Set: (AUG-CC-PVTZ AUX)
    Blend: AUG-CC-PVTZ-JKFIT
    Number of shells: 410
    Number of basis functions: 1396
    Number of Cartesian functions: 1729
    Spherical Harmonics?: true
    Max angular momentum: 4

  ==> CPHF Iterations <==

  => Iterations <=

             Iter  Converged  Remaining    Residual
  CGR           1          0          1   1.153E-01
  CGR           2          0          1   3.372E-02
  CGR           3          0          1   1.167E-02
  CGR           4          0          1   4.087E-03
  CGR           5          0          1   1.532E-03
  CGR           6          0          1   5.313E-04
  CGR           7          0          1   1.750E-04
  CGR           8          0          1   7.352E-05
  CGR           9          0          1   3.052E-05
  CGR          10          0          1   9.966E-06
  CGR          11          0          1   3.454E-06
  CGR          12          0          1   1.487E-06
  CGR          13          1          0   6.425E-07

    CGRSolver converged.

	-----------------------------------------------------------
	 ==================> DF-MP2 Energies <==================== 
	-----------------------------------------------------------
	 Reference Energy          =    -457.8068279739742366 [Eh]
	 Singles Energy            =      -0.0000000000000000 [Eh]
	 Same-Spin Energy          =      -0.4473794922949426 [Eh]
	 Opposite-Spin Energy      =      -1.4377520197059317 [Eh]
	 Correlation Energy        =      -1.8851315120008743 [Eh]
	 Total Energy              =    -459.6919594859751328 [Eh]
	-----------------------------------------------------------
	 ================> DF-SCS-MP2 Energies <================== 
	-----------------------------------------------------------
	 SCS Same-Spin Scale       =       0.3333333333333333 [-]
	 SCS Opposite-Spin Scale   =       1.2000000000000000 [-]
	 SCS Same-Spin Energy      =      -0.1491264974316475 [Eh]
	 SCS Opposite-Spin Energy  =      -1.7253024236471179 [Eh]
	 SCS Correlation Energy    =      -1.8744289210787655 [Eh]
	 SCS Total Energy          =    -459.6812568950530249 [Eh]
	-----------------------------------------------------------



Properties will be evaluated at  -0.000000,  -0.000000,   0.000000 [a0]

Properties computed using the MP2 density matrix

  Nuclear Dipole Moment: [e a0]
     X:    -4.8133      Y:     1.0421      Z:    -0.6719

  Electronic Dipole Moment: [e a0]
     X:     4.1721      Y:    -0.5465      Z:     1.0217

  Dipole Moment: [e a0]
     X:    -0.6412      Y:     0.4956      Z:     0.3498     Total:     0.8827

  Dipole Moment: [D]
     X:    -1.6298      Y:     1.2597      Z:     0.8892     Total:     2.2436


*** tstop() called on c434-071.stampede2.tacc.utexas.edu at Fri Mar 19 13:50:27 2021
Module time:
	user time   =    1659.30 seconds =      27.66 minutes
	system time =      55.27 seconds =       0.92 minutes
	total time  =        192 seconds =       3.20 minutes
Total time:
	user time   =    2250.61 seconds =      37.51 minutes
	system time =      98.38 seconds =       1.64 minutes
	total time  =        226 seconds =       3.77 minutes

    Psi4 stopped on: Friday, 19 March 2021 01:50PM
    Psi4 wall time for execution: 0:03:47.00

*** Psi4 exiting successfully. Buy a developer a beer!
