
    -----------------------------------------------------------------------
          Psi4: An Open-Source Ab Initio Electronic Structure Package
                               Psi4 1.3.2 release

                         Git: Rev {HEAD} ecbda83 


    R. M. Parrish, L. A. Burns, D. G. A. Smith, A. C. Simmonett,
    A. E. DePrince III, E. G. Hohenstein, U. Bozkaya, A. Yu. Sokolov,
    R. Di Remigio, R. M. Richard, J. F. Gonthier, A. M. James,
    H. R. McAlexander, A. Kumar, M. Saitow, X. Wang, B. P. Pritchard,
    P. Verma, H. F. Schaefer III, K. Patkowski, R. A. King, E. F. Valeev,
    F. A. Evangelista, J. M. Turney, T. D. Crawford, and C. D. Sherrill,
    J. Chem. Theory Comput. 13(7) pp 3185--3197 (2017).
    (doi: 10.1021/acs.jctc.7b00174)


                         Additional Contributions by
    P. Kraus, H. Kruse, M. H. Lechner, M. C. Schieber, R. A. Shaw,
    A. Alenaizan, R. Galvelis, Z. L. Glick, S. Lehtola, and J. P. Misiewicz

    -----------------------------------------------------------------------


    Psi4 started on: Thursday, 05 November 2020 08:01PM

    Process ID: 12068
    Host:       node37.bme.utexas.edu
    PSIDATADIR: /home/xy3866/psi4conda/share/psi4
    Memory:     500.0 MiB
    Threads:    8
    
  ==> Input File <==

--------------------------------------------------------------------------
#psi4
#
memory 32 gb

molecule  {
0 1
  O        1.5705367     1.1411899    -0.3021225
  O        1.6261270    -1.1051420    -0.3568940
  N        1.2303560    -0.0005110     0.0571010
  C       -1.2291370     0.0005950     0.4261400
  C        0.1537920    -0.0002450     1.0856290
  C       -1.4725310    -1.2637550    -0.3963350
  C       -1.4703770     1.2649030    -0.3970360
  H       -1.9318680     0.0014310     1.2711020
  H        0.3121680     0.8980270     1.6854240
  H        0.3113180    -0.8988370     1.6852010
  H       -0.8065590    -1.3055500    -1.2620530
  H       -2.5039820    -1.2782850    -0.7600790
  H       -1.3066080    -2.1670550     0.1981350
  H       -1.3030680     2.1682800     0.1969290
  H       -0.8042250     1.3051620    -1.2627130
  H       -2.5017350     1.2809580    -0.7610030
units angstrom
no_reorient  #important for SAPT in psi4, default
symmetry c1  #important for SAPT in psi4, default
}

set PROPERTIES_ORIGIN ["COM"]
properties('MP2/aug-cc-pvtz', properties = ['dipole'])
--------------------------------------------------------------------------

  Memory set to  29.802 GiB by Python driver.
    SCF Algorithm Type (re)set to DF.

*** tstart() called on node37.bme.utexas.edu
*** at Thu Nov  5 20:01:55 2020

   => Loading Basis Set <=

    Name: AUG-CC-PVTZ
    Role: ORBITAL
    Keyword: BASIS
    atoms 1-2  entry O          line   327 file /home/xy3866/psi4conda/share/psi4/basis/aug-cc-pvtz.gbs 
    atoms 3    entry N          line   281 file /home/xy3866/psi4conda/share/psi4/basis/aug-cc-pvtz.gbs 
    atoms 4-7  entry C          line   235 file /home/xy3866/psi4conda/share/psi4/basis/aug-cc-pvtz.gbs 
    atoms 8-16 entry H          line    36 file /home/xy3866/psi4conda/share/psi4/basis/aug-cc-pvtz.gbs 


         ---------------------------------------------------------
                                   SCF
               by Justin Turney, Rob Parrish, Andy Simmonett
                          and Daniel G. A. Smith
                              RHF Reference
                        8 Threads,  30517 MiB Core
         ---------------------------------------------------------

  ==> Geometry <==

    Molecular point group: c1
    Full point group: C1

    Geometry (in Angstrom), charge = 0, multiplicity = 1:

       Center              X                  Y                   Z               Mass       
    ------------   -----------------  -----------------  -----------------  -----------------
         O            1.478136222152     1.135450061732    -0.300940217587    15.994914619570
         O            1.533726522152    -1.110881838268    -0.355711717587    15.994914619570
         N            1.137955522152    -0.006250838268     0.058283282413    14.003074004430
         C           -1.321537477848    -0.005144838268     0.427322282413    12.000000000000
         C            0.061391522152    -0.005984838268     1.086811282413    12.000000000000
         C           -1.564931477848    -1.269494838268    -0.395152717587    12.000000000000
         C           -1.562777477848     1.259163161732    -0.395853717587    12.000000000000
         H           -2.024268477848    -0.004308838268     1.272284282413     1.007825032230
         H            0.219767522152     0.892287161732     1.686606282413     1.007825032230
         H            0.218917522152    -0.904576838268     1.686383282413     1.007825032230
         H           -0.898959477848    -1.311289838268    -1.260870717587     1.007825032230
         H           -2.596382477848    -1.284024838268    -0.758896717587     1.007825032230
         H           -1.399008477848    -2.172794838268     0.199317282413     1.007825032230
         H           -1.395468477848     2.162540161732     0.198111282413     1.007825032230
         H           -0.896625477848     1.299422161732    -1.261530717587     1.007825032230
         H           -2.594135477848     1.275218161732    -0.759820717587     1.007825032230

  Running in c1 symmetry.

  Rotational constants: A =      0.12773  B =      0.07355  C =      0.05806 [cm^-1]
  Rotational constants: A =   3829.17871  B =   2204.88852  C =   1740.48655 [MHz]
  Nuclear repulsion =  328.944229857872756

  Charge       = 0
  Multiplicity = 1
  Electrons    = 56
  Nalpha       = 28
  Nbeta        = 28

  ==> Algorithm <==

  SCF Algorithm Type is DF.
  DIIS enabled.
  MOM disabled.
  Fractional occupation disabled.
  Guess Type is SAD.
  Energy threshold   = 1.00e-10
  Density threshold  = 1.00e-10
  Integral threshold = 0.00e+00

  ==> Primary Basis <==

  Basis Set: AUG-CC-PVTZ
    Blend: AUG-CC-PVTZ
    Number of shells: 179
    Number of basis function: 529
    Number of Cartesian functions: 610
    Spherical Harmonics?: true
    Max angular momentum: 3

   => Loading Basis Set <=

    Name: (AUG-CC-PVTZ AUX)
    Role: JKFIT
    Keyword: DF_BASIS_SCF
    atoms 1-2  entry O          line   286 file /home/xy3866/psi4conda/share/psi4/basis/aug-cc-pvtz-jkfit.gbs 
    atoms 3    entry N          line   224 file /home/xy3866/psi4conda/share/psi4/basis/aug-cc-pvtz-jkfit.gbs 
    atoms 4-7  entry C          line   162 file /home/xy3866/psi4conda/share/psi4/basis/aug-cc-pvtz-jkfit.gbs 
    atoms 8-16 entry H          line    70 file /home/xy3866/psi4conda/share/psi4/basis/aug-cc-pvtz-jkfit.gbs 

  ==> Pre-Iterations <==

   -------------------------------------------------------
    Irrep   Nso     Nmo     Nalpha   Nbeta   Ndocc  Nsocc
   -------------------------------------------------------
     A        529     529       0       0       0       0
   -------------------------------------------------------
    Total     529     529      28      28      28       0
   -------------------------------------------------------

  ==> Integral Setup <==

  DFHelper Memory: AOs need 2.423 GiB; user supplied 22.352 GiB. Using in-core AOs.

  ==> MemDFJK: Density-Fitted J/K Matrices <==

    J tasked:                   Yes
    K tasked:                   Yes
    wK tasked:                   No
    OpenMP threads:               8
    Memory [MiB]:             22888
    Algorithm:                 Disk
    Schwarz Cutoff:           1E-12
    Mask sparsity (%):       1.7267
    Fitting Condition:        1E-10

   => Auxiliary Basis Set <=

  Basis Set: (AUG-CC-PVTZ AUX)
    Blend: AUG-CC-PVTZ-JKFIT
    Number of shells: 336
    Number of basis function: 1142
    Number of Cartesian functions: 1412
    Spherical Harmonics?: true
    Max angular momentum: 4

  Minimum eigenvalue in the overlap matrix is 3.8517771721E-06.
  Using Symmetric Orthogonalization.

  SCF Guess: Superposition of Atomic Densities via on-the-fly atomic UHF.

  ==> Iterations <==

                           Total Energy        Delta E     RMS |[F,P]|

   @DF-RHF iter SAD:  -360.23279655156392   -3.60233e+02   0.00000e+00 
   @DF-RHF iter   1:  -360.57678286617613   -3.43986e-01   1.52531e-03 DIIS
   @DF-RHF iter   2:  -360.78485587739550   -2.08073e-01   1.05132e-03 DIIS
   @DF-RHF iter   3:  -360.89118225256561   -1.06326e-01   1.75282e-04 DIIS
   @DF-RHF iter   4:  -360.89604707331785   -4.86482e-03   7.05105e-05 DIIS
   @DF-RHF iter   5:  -360.89695245234071   -9.05379e-04   1.48215e-05 DIIS
   @DF-RHF iter   6:  -360.89700368017509   -5.12278e-05   4.94097e-06 DIIS
   @DF-RHF iter   7:  -360.89701040963507   -6.72946e-06   1.80606e-06 DIIS
   @DF-RHF iter   8:  -360.89701124146546   -8.31830e-07   1.02259e-06 DIIS
   @DF-RHF iter   9:  -360.89701145289689   -2.11431e-07   3.85479e-07 DIIS
   @DF-RHF iter  10:  -360.89701150055504   -4.76581e-08   1.09983e-07 DIIS
   @DF-RHF iter  11:  -360.89701150457989   -4.02486e-09   2.52382e-08 DIIS
   @DF-RHF iter  12:  -360.89701150481210   -2.32205e-10   6.99386e-09 DIIS
   @DF-RHF iter  13:  -360.89701150483029   -1.81899e-11   2.61294e-09 DIIS
   @DF-RHF iter  14:  -360.89701150483290   -2.61480e-12   1.31247e-09 DIIS
   @DF-RHF iter  15:  -360.89701150483421   -1.30740e-12   5.80035e-10 DIIS
   @DF-RHF iter  16:  -360.89701150483540   -1.19371e-12   2.39049e-10 DIIS
   @DF-RHF iter  17:  -360.89701150483262    2.78533e-12   9.35175e-11 DIIS
  Energy and wave function converged.


  ==> Post-Iterations <==

    Orbital Energies [Eh]
    ---------------------

    Doubly Occupied:                                                      

       1A    -20.610986     2A    -20.608876     3A    -15.847125  
       4A    -11.301944     5A    -11.262897     6A    -11.227476  
       7A    -11.226956     8A     -1.584427     9A     -1.393018  
      10A     -1.140434    11A     -1.039128    12A     -0.946916  
      13A     -0.880951    14A     -0.805172    15A     -0.738230  
      16A     -0.731222    17A     -0.705437    18A     -0.637737  
      19A     -0.627868    20A     -0.606666    21A     -0.557258  
      22A     -0.543782    23A     -0.514763    24A     -0.504011  
      25A     -0.498477    26A     -0.485767    27A     -0.471474  
      28A     -0.452486  

    Virtual:                                                              

      29A      0.021638    30A      0.033067    31A      0.036354  
      32A      0.043160    33A      0.052656    34A      0.054966  
      35A      0.062282    36A      0.067814    37A      0.075994  
      38A      0.077785    39A      0.092885    40A      0.105471  
      41A      0.113420    42A      0.114709    43A      0.122875  
      44A      0.127299    45A      0.130055    46A      0.137323  
      47A      0.141148    48A      0.141419    49A      0.144626  
      50A      0.146819    51A      0.160039    52A      0.170373  
      53A      0.184480    54A      0.186762    55A      0.205799  
      56A      0.211518    57A      0.214576    58A      0.226070  
      59A      0.233630    60A      0.240165    61A      0.244769  
      62A      0.246705    63A      0.256254    64A      0.257015  
      65A      0.272661    66A      0.275712    67A      0.276216  
      68A      0.294973    69A      0.305163    70A      0.311152  
      71A      0.311903    72A      0.317382    73A      0.319962  
      74A      0.337237    75A      0.339204    76A      0.349911  
      77A      0.356536    78A      0.361816    79A      0.365783  
      80A      0.373442    81A      0.378693    82A      0.379277  
      83A      0.383434    84A      0.388675    85A      0.390609  
      86A      0.398661    87A      0.402425    88A      0.402752  
      89A      0.412956    90A      0.429331    91A      0.429844  
      92A      0.437481    93A      0.438708    94A      0.444105  
      95A      0.450742    96A      0.453483    97A      0.468192  
      98A      0.468949    99A      0.477148   100A      0.482653  
     101A      0.494737   102A      0.500244   103A      0.507053  
     104A      0.510491   105A      0.512549   106A      0.520802  
     107A      0.526649   108A      0.532097   109A      0.541576  
     110A      0.548707   111A      0.555776   112A      0.559511  
     113A      0.566023   114A      0.580004   115A      0.586436  
     116A      0.597842   117A      0.599083   118A      0.614061  
     119A      0.616647   120A      0.621164   121A      0.623676  
     122A      0.631563   123A      0.643429   124A      0.651809  
     125A      0.656518   126A      0.661039   127A      0.676728  
     128A      0.680371   129A      0.698615   130A      0.720934  
     131A      0.733473   132A      0.739044   133A      0.756604  
     134A      0.778025   135A      0.781665   136A      0.792822  
     137A      0.798526   138A      0.815724   139A      0.815892  
     140A      0.822732   141A      0.835859   142A      0.838412  
     143A      0.842317   144A      0.847213   145A      0.861753  
     146A      0.869236   147A      0.879313   148A      0.886126  
     149A      0.887979   150A      0.894822   151A      0.903855  
     152A      0.919211   153A      0.927553   154A      0.930670  
     155A      0.934524   156A      0.941164   157A      0.951915  
     158A      0.965371   159A      0.970470   160A      0.978671  
     161A      0.987659   162A      0.995356   163A      1.003661  
     164A      1.017517   165A      1.020012   166A      1.024420  
     167A      1.033965   168A      1.039381   169A      1.042587  
     170A      1.054356   171A      1.055776   172A      1.060539  
     173A      1.081828   174A      1.090983   175A      1.099113  
     176A      1.106022   177A      1.117505   178A      1.119811  
     179A      1.125737   180A      1.134025   181A      1.137826  
     182A      1.149218   183A      1.161467   184A      1.172120  
     185A      1.183074   186A      1.193971   187A      1.200427  
     188A      1.214544   189A      1.220587   190A      1.221814  
     191A      1.221888   192A      1.245741   193A      1.249595  
     194A      1.251985   195A      1.260341   196A      1.270326  
     197A      1.301483   198A      1.315468   199A      1.325259  
     200A      1.329141   201A      1.336734   202A      1.340435  
     203A      1.352823   204A      1.370732   205A      1.373296  
     206A      1.381665   207A      1.412643   208A      1.425583  
     209A      1.433370   210A      1.439098   211A      1.444573  
     212A      1.458125   213A      1.460234   214A      1.471899  
     215A      1.473750   216A      1.479634   217A      1.489566  
     218A      1.515102   219A      1.521928   220A      1.550071  
     221A      1.557700   222A      1.563967   223A      1.571014  
     224A      1.581534   225A      1.587629   226A      1.605639  
     227A      1.618840   228A      1.628204   229A      1.634328  
     230A      1.641428   231A      1.655942   232A      1.666285  
     233A      1.680461   234A      1.685827   235A      1.697822  
     236A      1.708914   237A      1.712616   238A      1.718959  
     239A      1.727821   240A      1.741040   241A      1.748565  
     242A      1.750956   243A      1.768043   244A      1.772549  
     245A      1.780813   246A      1.798885   247A      1.820285  
     248A      1.827881   249A      1.849473   250A      1.853156  
     251A      1.869862   252A      1.877118   253A      1.882327  
     254A      1.904680   255A      1.911296   256A      1.912220  
     257A      1.934728   258A      1.940955   259A      1.948182  
     260A      1.960897   261A      1.967404   262A      1.979336  
     263A      1.980917   264A      2.003372   265A      2.023493  
     266A      2.034206   267A      2.050701   268A      2.052142  
     269A      2.059971   270A      2.080667   271A      2.102108  
     272A      2.120697   273A      2.124056   274A      2.130693  
     275A      2.146874   276A      2.173910   277A      2.187043  
     278A      2.195015   279A      2.197666   280A      2.212881  
     281A      2.219729   282A      2.235378   283A      2.237377  
     284A      2.254702   285A      2.268173   286A      2.277481  
     287A      2.305956   288A      2.320055   289A      2.331239  
     290A      2.333544   291A      2.362795   292A      2.375641  
     293A      2.403532   294A      2.415372   295A      2.421483  
     296A      2.426993   297A      2.444226   298A      2.450149  
     299A      2.479179   300A      2.483332   301A      2.486483  
     302A      2.512918   303A      2.516687   304A      2.530353  
     305A      2.544648   306A      2.565970   307A      2.582976  
     308A      2.585109   309A      2.598924   310A      2.614212  
     311A      2.643809   312A      2.680705   313A      2.686128  
     314A      2.715953   315A      2.719711   316A      2.757688  
     317A      2.762953   318A      2.799622   319A      2.834772  
     320A      2.850564   321A      2.884578   322A      2.917113  
     323A      2.939234   324A      2.975486   325A      3.003028  
     326A      3.114313   327A      3.127678   328A      3.148701  
     329A      3.181674   330A      3.195990   331A      3.263227  
     332A      3.302886   333A      3.334848   334A      3.375461  
     335A      3.404579   336A      3.421524   337A      3.463670  
     338A      3.484534   339A      3.490154   340A      3.507364  
     341A      3.511122   342A      3.535118   343A      3.551686  
     344A      3.576903   345A      3.608041   346A      3.621245  
     347A      3.636622   348A      3.643178   349A      3.671395  
     350A      3.691484   351A      3.710275   352A      3.726985  
     353A      3.729946   354A      3.741500   355A      3.744271  
     356A      3.772838   357A      3.791804   358A      3.793795  
     359A      3.817860   360A      3.826618   361A      3.838236  
     362A      3.856770   363A      3.863099   364A      3.889772  
     365A      3.896312   366A      3.923992   367A      3.948818  
     368A      3.956143   369A      3.957004   370A      3.985020  
     371A      3.994750   372A      3.999020   373A      4.003007  
     374A      4.016683   375A      4.023191   376A      4.041266  
     377A      4.051091   378A      4.057249   379A      4.107824  
     380A      4.118841   381A      4.128144   382A      4.150551  
     383A      4.173584   384A      4.187488   385A      4.194295  
     386A      4.204779   387A      4.209061   388A      4.227308  
     389A      4.252768   390A      4.261085   391A      4.268972  
     392A      4.301134   393A      4.324858   394A      4.336060  
     395A      4.364060   396A      4.366245   397A      4.389476  
     398A      4.422577   399A      4.431436   400A      4.443985  
     401A      4.475365   402A      4.484878   403A      4.503426  
     404A      4.520353   405A      4.559114   406A      4.587436  
     407A      4.618775   408A      4.631131   409A      4.653673  
     410A      4.684942   411A      4.699981   412A      4.705232  
     413A      4.715350   414A      4.719341   415A      4.768623  
     416A      4.791861   417A      4.804497   418A      4.869408  
     419A      4.870896   420A      4.882337   421A      4.890820  
     422A      4.893905   423A      4.917064   424A      4.936487  
     425A      4.950324   426A      4.965738   427A      4.983904  
     428A      4.993533   429A      5.025323   430A      5.080303  
     431A      5.087123   432A      5.103378   433A      5.109971  
     434A      5.124429   435A      5.152869   436A      5.153254  
     437A      5.159258   438A      5.187094   439A      5.223010  
     440A      5.238926   441A      5.262822   442A      5.298022  
     443A      5.307327   444A      5.322892   445A      5.334785  
     446A      5.353969   447A      5.371130   448A      5.375959  
     449A      5.387689   450A      5.404436   451A      5.415627  
     452A      5.441633   453A      5.470025   454A      5.475156  
     455A      5.484946   456A      5.513913   457A      5.538529  
     458A      5.550844   459A      5.561620   460A      5.597046  
     461A      5.614059   462A      5.632522   463A      5.661372  
     464A      5.664077   465A      5.681250   466A      5.709377  
     467A      5.716124   468A      5.772938   469A      5.798264  
     470A      5.802489   471A      5.810724   472A      5.884126  
     473A      5.934725   474A      5.944708   475A      5.947956  
     476A      5.963386   477A      6.002886   478A      6.038924  
     479A      6.075213   480A      6.123273   481A      6.148833  
     482A      6.157178   483A      6.195941   484A      6.244441  
     485A      6.275243   486A      6.284195   487A      6.346313  
     488A      6.351009   489A      6.380408   490A      6.477335  
     491A      6.611718   492A      6.700411   493A      6.711474  
     494A      6.728249   495A      6.733462   496A      6.764447  
     497A      6.772942   498A      6.843414   499A      6.866120  
     500A      6.885128   501A      6.894585   502A      6.922500  
     503A      6.937302   504A      6.951457   505A      6.976106  
     506A      7.001259   507A      7.137718   508A      7.343602  
     509A      7.359156   510A      7.373006   511A      7.395852  
     512A      7.423360   513A      7.458112   514A      7.738424  
     515A      7.749639   516A      7.790758   517A      7.871600  
     518A      7.968284   519A      7.992071   520A      8.087690  
     521A      8.215188   522A      8.490599   523A     15.859330  
     524A     16.070653   525A     17.476702   526A     18.130158  
     527A     18.370070   528A     19.429436   529A     20.023673  

    Final Occupation by Irrep:
              A 
    DOCC [    28 ]

  @DF-RHF Final Energy:  -360.89701150483262

   => Energetics <=

    Nuclear Repulsion Energy =            328.9442298578727559
    One-Electron Energy =               -1143.7795092649300841
    Two-Electron Energy =                 453.9382679022247089
    Total Energy =                       -360.8970115048326193

Computation Completed

*** tstop() called on node37.bme.utexas.edu at Thu Nov  5 20:03:03 2020
Module time:
	user time   =     230.83 seconds =       3.85 minutes
	system time =      55.19 seconds =       0.92 minutes
	total time  =         68 seconds =       1.13 minutes
Total time:
	user time   =     230.83 seconds =       3.85 minutes
	system time =      55.19 seconds =       0.92 minutes
	total time  =         68 seconds =       1.13 minutes
   => Loading Basis Set <=

    Name: (AUG-CC-PVTZ AUX)
    Role: RIFIT
    Keyword: DF_BASIS_MP2
    atoms 1-2  entry O          line   264 file /home/xy3866/psi4conda/share/psi4/basis/aug-cc-pvtz-ri.gbs 
    atoms 3    entry N          line   206 file /home/xy3866/psi4conda/share/psi4/basis/aug-cc-pvtz-ri.gbs 
    atoms 4-7  entry C          line   148 file /home/xy3866/psi4conda/share/psi4/basis/aug-cc-pvtz-ri.gbs 
    atoms 8-16 entry H          line    30 file /home/xy3866/psi4conda/share/psi4/basis/aug-cc-pvtz-ri.gbs 


*** tstart() called on node37.bme.utexas.edu
*** at Thu Nov  5 20:03:03 2020


  //>>>>>>>>>>>>>>>>>>>>>>>>>>>>>>>>>>>//
  //               DFMP2               //
  //<<<<<<<<<<<<<<<<<<<<<<<<<<<<<<<<<<<//

	 --------------------------------------------------------
	                          DF-MP2                         
	      2nd-Order Density-Fitted Moller-Plesset Theory     
	              RMP2 Wavefunction,   8 Threads             
	                                                         
	        Rob Parrish, Justin Turney, Andy Simmonett,      
	           Ed Hohenstein, and C. David Sherrill          
	 --------------------------------------------------------

   => Auxiliary Basis Set <=

  Basis Set: (AUG-CC-PVTZ AUX)
    Blend: AUG-CC-PVTZ-RI
    Number of shells: 322
    Number of basis function: 1156
    Number of Cartesian functions: 1447
    Spherical Harmonics?: true
    Max angular momentum: 4

	 --------------------------------------------------------
	                 NBF =   529, NAUX =  1156
	 --------------------------------------------------------
	   CLASS    FOCC     OCC    AOCC    AVIR     VIR    FVIR
	   PAIRS       0      28      28     501     501       0
	 --------------------------------------------------------

  DFHelper Memory: AOs need 2.423 GiB; user supplied 22.352 GiB. Using in-core AOs.


         ------------------------------------------------------------
                                     CPHF                           
                                  Rob Parrish                       
         ------------------------------------------------------------

  ==> Geometry <==

    Molecular point group: c1
    Full point group: C1

    Geometry (in Angstrom), charge = 0, multiplicity = 1:

       Center              X                  Y                   Z               Mass       
    ------------   -----------------  -----------------  -----------------  -----------------
         O            1.478136222152     1.135450061732    -0.300940217587    15.994914619570
         O            1.533726522152    -1.110881838268    -0.355711717587    15.994914619570
         N            1.137955522152    -0.006250838268     0.058283282413    14.003074004430
         C           -1.321537477848    -0.005144838268     0.427322282413    12.000000000000
         C            0.061391522152    -0.005984838268     1.086811282413    12.000000000000
         C           -1.564931477848    -1.269494838268    -0.395152717587    12.000000000000
         C           -1.562777477848     1.259163161732    -0.395853717587    12.000000000000
         H           -2.024268477848    -0.004308838268     1.272284282413     1.007825032230
         H            0.219767522152     0.892287161732     1.686606282413     1.007825032230
         H            0.218917522152    -0.904576838268     1.686383282413     1.007825032230
         H           -0.898959477848    -1.311289838268    -1.260870717587     1.007825032230
         H           -2.596382477848    -1.284024838268    -0.758896717587     1.007825032230
         H           -1.399008477848    -2.172794838268     0.199317282413     1.007825032230
         H           -1.395468477848     2.162540161732     0.198111282413     1.007825032230
         H           -0.896625477848     1.299422161732    -1.261530717587     1.007825032230
         H           -2.594135477848     1.275218161732    -0.759820717587     1.007825032230

  Nuclear repulsion =  328.944229857872756
  Reference energy  = -360.897011504832619

  ==> Basis Set <==

  Basis Set: AUG-CC-PVTZ
    Blend: AUG-CC-PVTZ
    Number of shells: 179
    Number of basis function: 529
    Number of Cartesian functions: 610
    Spherical Harmonics?: true
    Max angular momentum: 3

  ==> CGRSolver (by Rob Parrish) <==

   Number of roots    =         1
   Preconditioning    =    JACOBI
   Convergence cutoff =     1E-06
   Maximum iterations =       100

  ==> CPHFRHamiltonian (by Rob Parrish) <== 

  ==> MemDFJK: Density-Fitted J/K Matrices <==

    J tasked:                   Yes
    K tasked:                   Yes
    wK tasked:                   No
    OpenMP threads:               8
    Memory [MiB]:             22888
    Algorithm:                 Disk
    Schwarz Cutoff:           1E-12
    Mask sparsity (%):       1.7267
    Fitting Condition:        1E-10

   => Auxiliary Basis Set <=

  Basis Set: (AUG-CC-PVTZ AUX)
    Blend: AUG-CC-PVTZ-JKFIT
    Number of shells: 336
    Number of basis function: 1142
    Number of Cartesian functions: 1412
    Spherical Harmonics?: true
    Max angular momentum: 4

  ==> CPHF Iterations <==

  => Iterations <=

             Iter  Converged  Remaining    Residual
  CGR           1          0          1   1.644E-01
  CGR           2          0          1   5.242E-02
  CGR           3          0          1   2.363E-02
  CGR           4          0          1   6.487E-03
  CGR           5          0          1   2.100E-03
  CGR           6          0          1   7.236E-04
  CGR           7          0          1   3.497E-04
  CGR           8          0          1   2.468E-04
  CGR           9          0          1   1.027E-04
  CGR          10          0          1   3.241E-05
  CGR          11          0          1   7.232E-06
  CGR          12          0          1   2.311E-06
  CGR          13          1          0   8.140E-07

    CGRSolver converged.

	-----------------------------------------------------------
	 ==================> DF-MP2 Energies <==================== 
	-----------------------------------------------------------
	 Reference Energy          =    -360.8970115048326193 [Eh]
	 Singles Energy            =      -0.0000000000000000 [Eh]
	 Same-Spin Energy          =      -0.3692079360453313 [Eh]
	 Opposite-Spin Energy      =      -1.1817340961228786 [Eh]
	 Correlation Energy        =      -1.5509420321682099 [Eh]
	 Total Energy              =    -362.4479535370008421 [Eh]
	-----------------------------------------------------------
	 ================> DF-SCS-MP2 Energies <================== 
	-----------------------------------------------------------
	 SCS Same-Spin Scale       =       0.3333333333333333 [-]
	 SCS Opposite-Spin Scale   =       1.2000000000000000 [-]
	 SCS Same-Spin Energy      =      -0.1230693120151104 [Eh]
	 SCS Opposite-Spin Energy  =      -1.4180809153474543 [Eh]
	 SCS Correlation Energy    =      -1.5411502273625648 [Eh]
	 SCS Total Energy          =    -362.4381617321951694 [Eh]
	-----------------------------------------------------------



Properties will be evaluated at   0.000000,  -0.000000,  -0.000000 [a0]

Properties computed using the MP2 density matrix

  Nuclear Dipole Moment: [e a0]
     X:   -10.6443      Y:    -0.0444      Z:     0.9356

  Electronic Dipole Moment: [e a0]
     X:     9.5247      Y:     0.0298      Z:    -0.1235

  Dipole Moment: [e a0]
     X:    -1.1196      Y:    -0.0146      Z:     0.8121     Total:     1.3832

  Dipole Moment: [D]
     X:    -2.8457      Y:    -0.0371      Z:     2.0642     Total:     3.5157


*** tstop() called on node37.bme.utexas.edu at Thu Nov  5 20:04:59 2020
Module time:
	user time   =     540.44 seconds =       9.01 minutes
	system time =      84.06 seconds =       1.40 minutes
	total time  =        116 seconds =       1.93 minutes
Total time:
	user time   =     772.47 seconds =      12.87 minutes
	system time =     139.36 seconds =       2.32 minutes
	total time  =        184 seconds =       3.07 minutes

    Psi4 stopped on: Thursday, 05 November 2020 08:04PM
    Psi4 wall time for execution: 0:03:04.20

*** Psi4 exiting successfully. Buy a developer a beer!
