
    -----------------------------------------------------------------------
          Psi4: An Open-Source Ab Initio Electronic Structure Package
                               Psi4 1.3.2 release

                         Git: Rev {HEAD} ecbda83 


    R. M. Parrish, L. A. Burns, D. G. A. Smith, A. C. Simmonett,
    A. E. DePrince III, E. G. Hohenstein, U. Bozkaya, A. Yu. Sokolov,
    R. Di Remigio, R. M. Richard, J. F. Gonthier, A. M. James,
    H. R. McAlexander, A. Kumar, M. Saitow, X. Wang, B. P. Pritchard,
    P. Verma, H. F. Schaefer III, K. Patkowski, R. A. King, E. F. Valeev,
    F. A. Evangelista, J. M. Turney, T. D. Crawford, and C. D. Sherrill,
    J. Chem. Theory Comput. 13(7) pp 3185--3197 (2017).
    (doi: 10.1021/acs.jctc.7b00174)


                         Additional Contributions by
    P. Kraus, H. Kruse, M. H. Lechner, M. C. Schieber, R. A. Shaw,
    A. Alenaizan, R. Galvelis, Z. L. Glick, S. Lehtola, and J. P. Misiewicz

    -----------------------------------------------------------------------


    Psi4 started on: Thursday, 05 November 2020 07:11PM

    Process ID: 8556
    Host:       node37.bme.utexas.edu
    PSIDATADIR: /home/xy3866/psi4conda/share/psi4
    Memory:     500.0 MiB
    Threads:    8
    
  ==> Input File <==

--------------------------------------------------------------------------
#psi4
#
memory 32 gb

molecule  {
0 1
  O        1.6278220     1.1039490    -0.3557360
  O        1.6261270    -1.1051420    -0.3568940
  N        1.2942426     0.1770142    -0.0092563
  C       -1.2291370     0.0005950     0.4261400
  C        0.1537920    -0.0002450     1.0856290
  C       -1.4725310    -1.2637550    -0.3963350
  C       -1.4703770     1.2649030    -0.3970360
  H       -1.9318680     0.0014310     1.2711020
  H        0.3121680     0.8980270     1.6854240
  H        0.3113180    -0.8988370     1.6852010
  H       -0.8065590    -1.3055500    -1.2620530
  H       -2.5039820    -1.2782850    -0.7600790
  H       -1.3066080    -2.1670550     0.1981350
  H       -1.3030680     2.1682800     0.1969290
  H       -0.8042250     1.3051620    -1.2627130
  H       -2.5017350     1.2809580    -0.7610030
units angstrom
no_reorient  #important for SAPT in psi4, default
symmetry c1  #important for SAPT in psi4, default
}

set PROPERTIES_ORIGIN ["COM"]
properties('MP2/aug-cc-pvtz', properties = ['dipole'])
--------------------------------------------------------------------------

  Memory set to  29.802 GiB by Python driver.
    SCF Algorithm Type (re)set to DF.

*** tstart() called on node37.bme.utexas.edu
*** at Thu Nov  5 19:11:37 2020

   => Loading Basis Set <=

    Name: AUG-CC-PVTZ
    Role: ORBITAL
    Keyword: BASIS
    atoms 1-2  entry O          line   327 file /home/xy3866/psi4conda/share/psi4/basis/aug-cc-pvtz.gbs 
    atoms 3    entry N          line   281 file /home/xy3866/psi4conda/share/psi4/basis/aug-cc-pvtz.gbs 
    atoms 4-7  entry C          line   235 file /home/xy3866/psi4conda/share/psi4/basis/aug-cc-pvtz.gbs 
    atoms 8-16 entry H          line    36 file /home/xy3866/psi4conda/share/psi4/basis/aug-cc-pvtz.gbs 


         ---------------------------------------------------------
                                   SCF
               by Justin Turney, Rob Parrish, Andy Simmonett
                          and Daniel G. A. Smith
                              RHF Reference
                        8 Threads,  30517 MiB Core
         ---------------------------------------------------------

  ==> Geometry <==

    Molecular point group: c1
    Full point group: C1

    Geometry (in Angstrom), charge = 0, multiplicity = 1:

       Center              X                  Y                   Z               Mass       
    ------------   -----------------  -----------------  -----------------  -----------------
         O            1.517850943985     1.079868656683    -0.337217293827    15.994914619570
         O            1.516155943985    -1.129222343317    -0.338375293827    15.994914619570
         N            1.184271543985     0.152933856683     0.009262406173    14.003074004430
         C           -1.339108056015    -0.023485343317     0.444658706173    12.000000000000
         C            0.043820943985    -0.024325343317     1.104147706173    12.000000000000
         C           -1.582502056015    -1.287835343317    -0.377816293827    12.000000000000
         C           -1.580348056015     1.240822656683    -0.378517293827    12.000000000000
         H           -2.041839056015    -0.022649343317     1.289620706173     1.007825032230
         H            0.202196943985     0.873946656683     1.703942706173     1.007825032230
         H            0.201346943985    -0.922917343317     1.703719706173     1.007825032230
         H           -0.916530056015    -1.329630343317    -1.243534293827     1.007825032230
         H           -2.613953056015    -1.302365343317    -0.741560293827     1.007825032230
         H           -1.416579056015    -2.191135343317     0.216653706173     1.007825032230
         H           -1.413039056015     2.144199656683     0.215447706173     1.007825032230
         H           -0.914196056015     1.281081656683    -1.244194293827     1.007825032230
         H           -2.611706056015     1.256877656683    -0.742484293827     1.007825032230

  Running in c1 symmetry.

  Rotational constants: A =      0.12838  B =      0.07185  C =      0.05727 [cm^-1]
  Rotational constants: A =   3848.61026  B =   2154.13798  C =   1717.00716 [MHz]
  Nuclear repulsion =  329.152604523495938

  Charge       = 0
  Multiplicity = 1
  Electrons    = 56
  Nalpha       = 28
  Nbeta        = 28

  ==> Algorithm <==

  SCF Algorithm Type is DF.
  DIIS enabled.
  MOM disabled.
  Fractional occupation disabled.
  Guess Type is SAD.
  Energy threshold   = 1.00e-10
  Density threshold  = 1.00e-10
  Integral threshold = 0.00e+00

  ==> Primary Basis <==

  Basis Set: AUG-CC-PVTZ
    Blend: AUG-CC-PVTZ
    Number of shells: 179
    Number of basis function: 529
    Number of Cartesian functions: 610
    Spherical Harmonics?: true
    Max angular momentum: 3

   => Loading Basis Set <=

    Name: (AUG-CC-PVTZ AUX)
    Role: JKFIT
    Keyword: DF_BASIS_SCF
    atoms 1-2  entry O          line   286 file /home/xy3866/psi4conda/share/psi4/basis/aug-cc-pvtz-jkfit.gbs 
    atoms 3    entry N          line   224 file /home/xy3866/psi4conda/share/psi4/basis/aug-cc-pvtz-jkfit.gbs 
    atoms 4-7  entry C          line   162 file /home/xy3866/psi4conda/share/psi4/basis/aug-cc-pvtz-jkfit.gbs 
    atoms 8-16 entry H          line    70 file /home/xy3866/psi4conda/share/psi4/basis/aug-cc-pvtz-jkfit.gbs 

  ==> Pre-Iterations <==

   -------------------------------------------------------
    Irrep   Nso     Nmo     Nalpha   Nbeta   Ndocc  Nsocc
   -------------------------------------------------------
     A        529     529       0       0       0       0
   -------------------------------------------------------
    Total     529     529      28      28      28       0
   -------------------------------------------------------

  ==> Integral Setup <==

  DFHelper Memory: AOs need 2.421 GiB; user supplied 22.352 GiB. Using in-core AOs.

  ==> MemDFJK: Density-Fitted J/K Matrices <==

    J tasked:                   Yes
    K tasked:                   Yes
    wK tasked:                   No
    OpenMP threads:               8
    Memory [MiB]:             22888
    Algorithm:                 Disk
    Schwarz Cutoff:           1E-12
    Mask sparsity (%):       1.7767
    Fitting Condition:        1E-10

   => Auxiliary Basis Set <=

  Basis Set: (AUG-CC-PVTZ AUX)
    Blend: AUG-CC-PVTZ-JKFIT
    Number of shells: 336
    Number of basis function: 1142
    Number of Cartesian functions: 1412
    Spherical Harmonics?: true
    Max angular momentum: 4

  Minimum eigenvalue in the overlap matrix is 3.8193694390E-06.
  Using Symmetric Orthogonalization.

  SCF Guess: Superposition of Atomic Densities via on-the-fly atomic UHF.

  ==> Iterations <==

                           Total Energy        Delta E     RMS |[F,P]|

   @DF-RHF iter SAD:  -360.40391924196450   -3.60404e+02   0.00000e+00 
   @DF-RHF iter   1:  -360.49316679052737   -8.92475e-02   1.56598e-03 DIIS
   @DF-RHF iter   2:  -360.68419780410494   -1.91031e-01   1.20218e-03 DIIS
   @DF-RHF iter   3:  -360.82832167133824   -1.44124e-01   2.39048e-04 DIIS
   @DF-RHF iter   4:  -360.83595365419262   -7.63198e-03   9.61713e-05 DIIS
   @DF-RHF iter   5:  -360.83786368992526   -1.91004e-03   3.14275e-05 DIIS
   @DF-RHF iter   6:  -360.83812452752261   -2.60838e-04   1.45746e-05 DIIS
   @DF-RHF iter   7:  -360.83824289026205   -1.18363e-04   7.89387e-06 DIIS
   @DF-RHF iter   8:  -360.83827502475867   -3.21345e-05   2.86732e-06 DIIS
   @DF-RHF iter   9:  -360.83827977248376   -4.74773e-06   8.38828e-07 DIIS
   @DF-RHF iter  10:  -360.83828008689613   -3.14412e-07   2.24727e-07 DIIS
   @DF-RHF iter  11:  -360.83828010687967   -1.99835e-08   6.59785e-08 DIIS
   @DF-RHF iter  12:  -360.83828010833855   -1.45889e-09   1.88690e-08 DIIS
   @DF-RHF iter  13:  -360.83828010846554   -1.26988e-10   7.43803e-09 DIIS
   @DF-RHF iter  14:  -360.83828010848566   -2.01226e-11   3.21690e-09 DIIS
   @DF-RHF iter  15:  -360.83828010848970   -4.03588e-12   1.08552e-09 DIIS
   @DF-RHF iter  16:  -360.83828010848924    4.54747e-13   5.05882e-10 DIIS
   @DF-RHF iter  17:  -360.83828010849038   -1.13687e-12   2.84062e-10 DIIS
   @DF-RHF iter  18:  -360.83828010849038    0.00000e+00   1.62749e-10 DIIS
   @DF-RHF iter  19:  -360.83828010849078   -3.97904e-13   8.22388e-11 DIIS
  Energy and wave function converged.


  ==> Post-Iterations <==

    Orbital Energies [Eh]
    ---------------------

    Doubly Occupied:                                                      

       1A    -20.669428     2A    -20.542059     3A    -15.834540  
       4A    -11.300399     5A    -11.259767     6A    -11.232076  
       7A    -11.220259     8A     -1.743130     9A     -1.333521  
      10A     -1.125357    11A     -1.018266    12A     -0.945850  
      13A     -0.888636    14A     -0.832651    15A     -0.783467  
      16A     -0.761207    17A     -0.736295    18A     -0.641651  
      19A     -0.637219    20A     -0.609138    21A     -0.554783  
      22A     -0.541922    23A     -0.506461    24A     -0.499164  
      25A     -0.492625    26A     -0.469167    27A     -0.438236  
      28A     -0.424385  

    Virtual:                                                              

      29A      0.022191    30A      0.033435    31A      0.035603  
      32A      0.043525    33A      0.052904    34A      0.055132  
      35A      0.062026    36A      0.068608    37A      0.076370  
      38A      0.092142    39A      0.099694    40A      0.110282  
      41A      0.114815    42A      0.121520    43A      0.123968  
      44A      0.127917    45A      0.132234    46A      0.134235  
      47A      0.139783    48A      0.142971    49A      0.146114  
      50A      0.148347    51A      0.160042    52A      0.170839  
      53A      0.182635    54A      0.187269    55A      0.202420  
      56A      0.210418    57A      0.213840    58A      0.222839  
      59A      0.231044    60A      0.234030    61A      0.243136  
      62A      0.246203    63A      0.254899    64A      0.259160  
      65A      0.274172    66A      0.275511    67A      0.278007  
      68A      0.291959    69A      0.304298    70A      0.312236  
      71A      0.312574    72A      0.317438    73A      0.320987  
      74A      0.331646    75A      0.338383    76A      0.344677  
      77A      0.354246    78A      0.360602    79A      0.364487  
      80A      0.372119    81A      0.373077    82A      0.379128  
      83A      0.384300    84A      0.386298    85A      0.391014  
      86A      0.396985    87A      0.400453    88A      0.401941  
      89A      0.409016    90A      0.418678    91A      0.429427  
      92A      0.431040    93A      0.439299    94A      0.441798  
      95A      0.448444    96A      0.452358    97A      0.465634  
      98A      0.471150    99A      0.474796   100A      0.483175  
     101A      0.495267   102A      0.499098   103A      0.500897  
     104A      0.507699   105A      0.513112   106A      0.518223  
     107A      0.529994   108A      0.535954   109A      0.539889  
     110A      0.545180   111A      0.548080   112A      0.560337  
     113A      0.569116   114A      0.571156   115A      0.591360  
     116A      0.596018   117A      0.598245   118A      0.608350  
     119A      0.612636   120A      0.616358   121A      0.622377  
     122A      0.631041   123A      0.637771   124A      0.649729  
     125A      0.653681   126A      0.672247   127A      0.678948  
     128A      0.692272   129A      0.720452   130A      0.722032  
     131A      0.730474   132A      0.749633   133A      0.763913  
     134A      0.777036   135A      0.778263   136A      0.793069  
     137A      0.810119   138A      0.816246   139A      0.822885  
     140A      0.832812   141A      0.835420   142A      0.840420  
     143A      0.843905   144A      0.850352   145A      0.859580  
     146A      0.863645   147A      0.882155   148A      0.887439  
     149A      0.892913   150A      0.899516   151A      0.902580  
     152A      0.918496   153A      0.925643   154A      0.932638  
     155A      0.938312   156A      0.945323   157A      0.956185  
     158A      0.958166   159A      0.965367   160A      0.973912  
     161A      0.989849   162A      0.991533   163A      1.008190  
     164A      1.015538   165A      1.025041   166A      1.026997  
     167A      1.029441   168A      1.041609   169A      1.042875  
     170A      1.056279   171A      1.059448   172A      1.063571  
     173A      1.083098   174A      1.092763   175A      1.104722  
     176A      1.107069   177A      1.114850   178A      1.123251  
     179A      1.134809   180A      1.136419   181A      1.145915  
     182A      1.160864   183A      1.174176   184A      1.181434  
     185A      1.184490   186A      1.194474   187A      1.203438  
     188A      1.215733   189A      1.216128   190A      1.223849  
     191A      1.226221   192A      1.236119   193A      1.249084  
     194A      1.250973   195A      1.262081   196A      1.273574  
     197A      1.293341   198A      1.307048   199A      1.322137  
     200A      1.330382   201A      1.340572   202A      1.341041  
     203A      1.357994   204A      1.368078   205A      1.378523  
     206A      1.380355   207A      1.410091   208A      1.416179  
     209A      1.428550   210A      1.439273   211A      1.447094  
     212A      1.456036   213A      1.459651   214A      1.472087  
     215A      1.476658   216A      1.482110   217A      1.487120  
     218A      1.514622   219A      1.525169   220A      1.541617  
     221A      1.547922   222A      1.557321   223A      1.560140  
     224A      1.579626   225A      1.588860   226A      1.596854  
     227A      1.615064   228A      1.622882   229A      1.633838  
     230A      1.645838   231A      1.655607   232A      1.657205  
     233A      1.676916   234A      1.683110   235A      1.694380  
     236A      1.707191   237A      1.714771   238A      1.719569  
     239A      1.728957   240A      1.732364   241A      1.747737  
     242A      1.756050   243A      1.770249   244A      1.778888  
     245A      1.783016   246A      1.788799   247A      1.817005  
     248A      1.831018   249A      1.845490   250A      1.858579  
     251A      1.866725   252A      1.876838   253A      1.881266  
     254A      1.885819   255A      1.901347   256A      1.912804  
     257A      1.937903   258A      1.945699   259A      1.954191  
     260A      1.958426   261A      1.968889   262A      1.984003  
     263A      1.986060   264A      1.999467   265A      2.014416  
     266A      2.029063   267A      2.039465   268A      2.046949  
     269A      2.053954   270A      2.069935   271A      2.095446  
     272A      2.117058   273A      2.124046   274A      2.127723  
     275A      2.139295   276A      2.161494   277A      2.179063  
     278A      2.188456   279A      2.190341   280A      2.200937  
     281A      2.223400   282A      2.237126   283A      2.239740  
     284A      2.261562   285A      2.268027   286A      2.287183  
     287A      2.292515   288A      2.311196   289A      2.321178  
     290A      2.335459   291A      2.348182   292A      2.360283  
     293A      2.380761   294A      2.410471   295A      2.419480  
     296A      2.430338   297A      2.435383   298A      2.446762  
     299A      2.452153   300A      2.480031   301A      2.496873  
     302A      2.513448   303A      2.519114   304A      2.528923  
     305A      2.537094   306A      2.559979   307A      2.579058  
     308A      2.590909   309A      2.598881   310A      2.614149  
     311A      2.656896   312A      2.663586   313A      2.684145  
     314A      2.707502   315A      2.719970   316A      2.747322  
     317A      2.772552   318A      2.788849   319A      2.824555  
     320A      2.850869   321A      2.880517   322A      2.936623  
     323A      2.957707   324A      2.969723   325A      3.029814  
     326A      3.095823   327A      3.108683   328A      3.152113  
     329A      3.179972   330A      3.248952   331A      3.300084  
     332A      3.311626   333A      3.315459   334A      3.377739  
     335A      3.406873   336A      3.411019   337A      3.425970  
     338A      3.455702   339A      3.483110   340A      3.500187  
     341A      3.514170   342A      3.525372   343A      3.569265  
     344A      3.584596   345A      3.606642   346A      3.609172  
     347A      3.632686   348A      3.656301   349A      3.669927  
     350A      3.676873   351A      3.719323   352A      3.726237  
     353A      3.741935   354A      3.743830   355A      3.755477  
     356A      3.770198   357A      3.791585   358A      3.813101  
     359A      3.817896   360A      3.829858   361A      3.847005  
     362A      3.851759   363A      3.873769   364A      3.892535  
     365A      3.902464   366A      3.926507   367A      3.940264  
     368A      3.949126   369A      3.959108   370A      3.978212  
     371A      3.990993   372A      4.000094   373A      4.006420  
     374A      4.018490   375A      4.026393   376A      4.047833  
     377A      4.056624   378A      4.068340   379A      4.090212  
     380A      4.101421   381A      4.119881   382A      4.138378  
     383A      4.144556   384A      4.170692   385A      4.193287  
     386A      4.199196   387A      4.207440   388A      4.225216  
     389A      4.258663   390A      4.267606   391A      4.280269  
     392A      4.293864   393A      4.321175   394A      4.325255  
     395A      4.348583   396A      4.380811   397A      4.401373  
     398A      4.417022   399A      4.420495   400A      4.449382  
     401A      4.465486   402A      4.476727   403A      4.484931  
     404A      4.530972   405A      4.556895   406A      4.613306  
     407A      4.627857   408A      4.636415   409A      4.661021  
     410A      4.687340   411A      4.696789   412A      4.707068  
     413A      4.716649   414A      4.727788   415A      4.771532  
     416A      4.790033   417A      4.818354   418A      4.854432  
     419A      4.861521   420A      4.875360   421A      4.885738  
     422A      4.899272   423A      4.909914   424A      4.929699  
     425A      4.948685   426A      4.967276   427A      4.974905  
     428A      5.024907   429A      5.035292   430A      5.056423  
     431A      5.077740   432A      5.101051   433A      5.121861  
     434A      5.137906   435A      5.143404   436A      5.151045  
     437A      5.185370   438A      5.211964   439A      5.219718  
     440A      5.226813   441A      5.262039   442A      5.284565  
     443A      5.293851   444A      5.301312   445A      5.340285  
     446A      5.345226   447A      5.355987   448A      5.356942  
     449A      5.370848   450A      5.409433   451A      5.425137  
     452A      5.450047   453A      5.463635   454A      5.482280  
     455A      5.493159   456A      5.509743   457A      5.542126  
     458A      5.551321   459A      5.562462   460A      5.571577  
     461A      5.585662   462A      5.604008   463A      5.647675  
     464A      5.667906   465A      5.678341   466A      5.722742  
     467A      5.729442   468A      5.743464   469A      5.768549  
     470A      5.798551   471A      5.848941   472A      5.874371  
     473A      5.928172   474A      5.936244   475A      5.943276  
     476A      5.975014   477A      6.031184   478A      6.056592  
     479A      6.074988   480A      6.126754   481A      6.138540  
     482A      6.190425   483A      6.213201   484A      6.226227  
     485A      6.277552   486A      6.280503   487A      6.317152  
     488A      6.346351   489A      6.381649   490A      6.411133  
     491A      6.514231   492A      6.621901   493A      6.652203  
     494A      6.688170   495A      6.735720   496A      6.769725  
     497A      6.803878   498A      6.855552   499A      6.870049  
     500A      6.904345   501A      6.910019   502A      6.921549  
     503A      6.937838   504A      6.948203   505A      6.997607  
     506A      7.064860   507A      7.222680   508A      7.295538  
     509A      7.380838   510A      7.401416   511A      7.492438  
     512A      7.494347   513A      7.692666   514A      7.735719  
     515A      7.778368   516A      7.891235   517A      7.957346  
     518A      7.974984   519A      8.140391   520A      8.271758  
     521A      8.503527   522A      8.649462   523A     14.842584  
     524A     17.503670   525A     18.063652   526A     18.343164  
     527A     19.024226   528A     19.680033   529A     22.913176  

    Final Occupation by Irrep:
              A 
    DOCC [    28 ]

  @DF-RHF Final Energy:  -360.83828010849078

   => Energetics <=

    Nuclear Repulsion Energy =            329.1526045234959383
    One-Electron Energy =               -1143.8984466725362381
    Two-Electron Energy =                 453.9075620405495215
    Total Energy =                       -360.8382801084907783

Computation Completed

*** tstop() called on node37.bme.utexas.edu at Thu Nov  5 19:12:42 2020
Module time:
	user time   =     235.42 seconds =       3.92 minutes
	system time =      52.14 seconds =       0.87 minutes
	total time  =         65 seconds =       1.08 minutes
Total time:
	user time   =     235.42 seconds =       3.92 minutes
	system time =      52.14 seconds =       0.87 minutes
	total time  =         65 seconds =       1.08 minutes
   => Loading Basis Set <=

    Name: (AUG-CC-PVTZ AUX)
    Role: RIFIT
    Keyword: DF_BASIS_MP2
    atoms 1-2  entry O          line   264 file /home/xy3866/psi4conda/share/psi4/basis/aug-cc-pvtz-ri.gbs 
    atoms 3    entry N          line   206 file /home/xy3866/psi4conda/share/psi4/basis/aug-cc-pvtz-ri.gbs 
    atoms 4-7  entry C          line   148 file /home/xy3866/psi4conda/share/psi4/basis/aug-cc-pvtz-ri.gbs 
    atoms 8-16 entry H          line    30 file /home/xy3866/psi4conda/share/psi4/basis/aug-cc-pvtz-ri.gbs 


*** tstart() called on node37.bme.utexas.edu
*** at Thu Nov  5 19:12:42 2020


  //>>>>>>>>>>>>>>>>>>>>>>>>>>>>>>>>>>>//
  //               DFMP2               //
  //<<<<<<<<<<<<<<<<<<<<<<<<<<<<<<<<<<<//

	 --------------------------------------------------------
	                          DF-MP2                         
	      2nd-Order Density-Fitted Moller-Plesset Theory     
	              RMP2 Wavefunction,   8 Threads             
	                                                         
	        Rob Parrish, Justin Turney, Andy Simmonett,      
	           Ed Hohenstein, and C. David Sherrill          
	 --------------------------------------------------------

   => Auxiliary Basis Set <=

  Basis Set: (AUG-CC-PVTZ AUX)
    Blend: AUG-CC-PVTZ-RI
    Number of shells: 322
    Number of basis function: 1156
    Number of Cartesian functions: 1447
    Spherical Harmonics?: true
    Max angular momentum: 4

	 --------------------------------------------------------
	                 NBF =   529, NAUX =  1156
	 --------------------------------------------------------
	   CLASS    FOCC     OCC    AOCC    AVIR     VIR    FVIR
	   PAIRS       0      28      28     501     501       0
	 --------------------------------------------------------

  DFHelper Memory: AOs need 2.421 GiB; user supplied 22.352 GiB. Using in-core AOs.


         ------------------------------------------------------------
                                     CPHF                           
                                  Rob Parrish                       
         ------------------------------------------------------------

  ==> Geometry <==

    Molecular point group: c1
    Full point group: C1

    Geometry (in Angstrom), charge = 0, multiplicity = 1:

       Center              X                  Y                   Z               Mass       
    ------------   -----------------  -----------------  -----------------  -----------------
         O            1.517850943985     1.079868656683    -0.337217293827    15.994914619570
         O            1.516155943985    -1.129222343317    -0.338375293827    15.994914619570
         N            1.184271543985     0.152933856683     0.009262406173    14.003074004430
         C           -1.339108056015    -0.023485343317     0.444658706173    12.000000000000
         C            0.043820943985    -0.024325343317     1.104147706173    12.000000000000
         C           -1.582502056015    -1.287835343317    -0.377816293827    12.000000000000
         C           -1.580348056015     1.240822656683    -0.378517293827    12.000000000000
         H           -2.041839056015    -0.022649343317     1.289620706173     1.007825032230
         H            0.202196943985     0.873946656683     1.703942706173     1.007825032230
         H            0.201346943985    -0.922917343317     1.703719706173     1.007825032230
         H           -0.916530056015    -1.329630343317    -1.243534293827     1.007825032230
         H           -2.613953056015    -1.302365343317    -0.741560293827     1.007825032230
         H           -1.416579056015    -2.191135343317     0.216653706173     1.007825032230
         H           -1.413039056015     2.144199656683     0.215447706173     1.007825032230
         H           -0.914196056015     1.281081656683    -1.244194293827     1.007825032230
         H           -2.611706056015     1.256877656683    -0.742484293827     1.007825032230

  Nuclear repulsion =  329.152604523496052
  Reference energy  = -360.838280108490778

  ==> Basis Set <==

  Basis Set: AUG-CC-PVTZ
    Blend: AUG-CC-PVTZ
    Number of shells: 179
    Number of basis function: 529
    Number of Cartesian functions: 610
    Spherical Harmonics?: true
    Max angular momentum: 3

  ==> CGRSolver (by Rob Parrish) <==

   Number of roots    =         1
   Preconditioning    =    JACOBI
   Convergence cutoff =     1E-06
   Maximum iterations =       100

  ==> CPHFRHamiltonian (by Rob Parrish) <== 

  ==> MemDFJK: Density-Fitted J/K Matrices <==

    J tasked:                   Yes
    K tasked:                   Yes
    wK tasked:                   No
    OpenMP threads:               8
    Memory [MiB]:             22888
    Algorithm:                 Disk
    Schwarz Cutoff:           1E-12
    Mask sparsity (%):       1.7767
    Fitting Condition:        1E-10

   => Auxiliary Basis Set <=

  Basis Set: (AUG-CC-PVTZ AUX)
    Blend: AUG-CC-PVTZ-JKFIT
    Number of shells: 336
    Number of basis function: 1142
    Number of Cartesian functions: 1412
    Spherical Harmonics?: true
    Max angular momentum: 4

  ==> CPHF Iterations <==

  => Iterations <=

             Iter  Converged  Remaining    Residual
  CGR           1          0          1   2.359E-01
  CGR           2          0          1   8.941E-02
  CGR           3          0          1   4.563E-02
  CGR           4          0          1   1.664E-02
  CGR           5          0          1   6.408E-03
  CGR           6          0          1   1.832E-03
  CGR           7          0          1   6.010E-04
  CGR           8          0          1   2.022E-04
  CGR           9          0          1   7.855E-05
  CGR          10          0          1   4.949E-05
  CGR          11          0          1   2.172E-05
  CGR          12          0          1   7.674E-06
  CGR          13          0          1   2.354E-06
  CGR          14          1          0   5.700E-07

    CGRSolver converged.

	-----------------------------------------------------------
	 ==================> DF-MP2 Energies <==================== 
	-----------------------------------------------------------
	 Reference Energy          =    -360.8382801084907783 [Eh]
	 Singles Energy            =      -0.0000000000000000 [Eh]
	 Same-Spin Energy          =      -0.3626756006135540 [Eh]
	 Opposite-Spin Energy      =      -1.1680471363190614 [Eh]
	 Correlation Energy        =      -1.5307227369326153 [Eh]
	 Total Energy              =    -362.3690028454233811 [Eh]
	-----------------------------------------------------------
	 ================> DF-SCS-MP2 Energies <================== 
	-----------------------------------------------------------
	 SCS Same-Spin Scale       =       0.3333333333333333 [-]
	 SCS Opposite-Spin Scale   =       1.2000000000000000 [-]
	 SCS Same-Spin Energy      =      -0.1208918668711847 [Eh]
	 SCS Opposite-Spin Energy  =      -1.4016565635828737 [Eh]
	 SCS Correlation Energy    =      -1.5225484304540584 [Eh]
	 SCS Total Energy          =    -362.3608285389448156 [Eh]
	-----------------------------------------------------------



Properties will be evaluated at   0.000000,  -0.000000,   0.000000 [a0]

Properties computed using the MP2 density matrix

  Nuclear Dipole Moment: [e a0]
     X:   -10.7925      Y:    -0.2000      Z:     1.0820

  Electronic Dipole Moment: [e a0]
     X:     9.7149      Y:     0.8023      Z:    -0.3039

  Dipole Moment: [e a0]
     X:    -1.0777      Y:     0.6023      Z:     0.7781     Total:     1.4593

  Dipole Moment: [D]
     X:    -2.7391      Y:     1.5309      Z:     1.9776     Total:     3.7091


*** tstop() called on node37.bme.utexas.edu at Thu Nov  5 19:14:42 2020
Module time:
	user time   =     537.18 seconds =       8.95 minutes
	system time =      81.40 seconds =       1.36 minutes
	total time  =        120 seconds =       2.00 minutes
Total time:
	user time   =     773.80 seconds =      12.90 minutes
	system time =     133.62 seconds =       2.23 minutes
	total time  =        185 seconds =       3.08 minutes

    Psi4 stopped on: Thursday, 05 November 2020 07:14PM
    Psi4 wall time for execution: 0:03:05.31

*** Psi4 exiting successfully. Buy a developer a beer!
