
    -----------------------------------------------------------------------
          Psi4: An Open-Source Ab Initio Electronic Structure Package
                               Psi4 1.3.2 release

                         Git: Rev {HEAD} ecbda83 


    R. M. Parrish, L. A. Burns, D. G. A. Smith, A. C. Simmonett,
    A. E. DePrince III, E. G. Hohenstein, U. Bozkaya, A. Yu. Sokolov,
    R. Di Remigio, R. M. Richard, J. F. Gonthier, A. M. James,
    H. R. McAlexander, A. Kumar, M. Saitow, X. Wang, B. P. Pritchard,
    P. Verma, H. F. Schaefer III, K. Patkowski, R. A. King, E. F. Valeev,
    F. A. Evangelista, J. M. Turney, T. D. Crawford, and C. D. Sherrill,
    J. Chem. Theory Comput. 13(7) pp 3185--3197 (2017).
    (doi: 10.1021/acs.jctc.7b00174)


                         Additional Contributions by
    P. Kraus, H. Kruse, M. H. Lechner, M. C. Schieber, R. A. Shaw,
    A. Alenaizan, R. Galvelis, Z. L. Glick, S. Lehtola, and J. P. Misiewicz

    -----------------------------------------------------------------------


    Psi4 started on: Thursday, 05 November 2020 07:44PM

    Process ID: 10871
    Host:       node37.bme.utexas.edu
    PSIDATADIR: /home/xy3866/psi4conda/share/psi4
    Memory:     500.0 MiB
    Threads:    8
    
  ==> Input File <==

--------------------------------------------------------------------------
#psi4
#
memory 32 gb

molecule  {
0 1
  O        1.6410992     1.0937793    -0.3695889
  O        1.6261270    -1.1051420    -0.3568940
  N        1.2303560    -0.0005110     0.0571010
  C       -1.2291370     0.0005950     0.4261400
  C        0.1537920    -0.0002450     1.0856290
  C       -1.4725310    -1.2637550    -0.3963350
  C       -1.4703770     1.2649030    -0.3970360
  H       -1.9318680     0.0014310     1.2711020
  H        0.3121680     0.8980270     1.6854240
  H        0.3113180    -0.8988370     1.6852010
  H       -0.8065590    -1.3055500    -1.2620530
  H       -2.5039820    -1.2782850    -0.7600790
  H       -1.3066080    -2.1670550     0.1981350
  H       -1.3030680     2.1682800     0.1969290
  H       -0.8042250     1.3051620    -1.2627130
  H       -2.5017350     1.2809580    -0.7610030
units angstrom
no_reorient  #important for SAPT in psi4, default
symmetry c1  #important for SAPT in psi4, default
}

set PROPERTIES_ORIGIN ["COM"]
properties('MP2/aug-cc-pvtz', properties = ['dipole'])
--------------------------------------------------------------------------

  Memory set to  29.802 GiB by Python driver.
    SCF Algorithm Type (re)set to DF.

*** tstart() called on node37.bme.utexas.edu
*** at Thu Nov  5 19:44:48 2020

   => Loading Basis Set <=

    Name: AUG-CC-PVTZ
    Role: ORBITAL
    Keyword: BASIS
    atoms 1-2  entry O          line   327 file /home/xy3866/psi4conda/share/psi4/basis/aug-cc-pvtz.gbs 
    atoms 3    entry N          line   281 file /home/xy3866/psi4conda/share/psi4/basis/aug-cc-pvtz.gbs 
    atoms 4-7  entry C          line   235 file /home/xy3866/psi4conda/share/psi4/basis/aug-cc-pvtz.gbs 
    atoms 8-16 entry H          line    36 file /home/xy3866/psi4conda/share/psi4/basis/aug-cc-pvtz.gbs 


         ---------------------------------------------------------
                                   SCF
               by Justin Turney, Rob Parrish, Andy Simmonett
                          and Daniel G. A. Smith
                              RHF Reference
                        8 Threads,  30517 MiB Core
         ---------------------------------------------------------

  ==> Geometry <==

    Molecular point group: c1
    Full point group: C1

    Geometry (in Angstrom), charge = 0, multiplicity = 1:

       Center              X                  Y                   Z               Mass       
    ------------   -----------------  -----------------  -----------------  -----------------
         O            1.537747774042     1.095397350419    -0.357936168757    15.994914619570
         O            1.522775574042    -1.103523949581    -0.345241268757    15.994914619570
         N            1.127004574042     0.001107050419     0.068753731243    14.003074004430
         C           -1.332488425958     0.002213050419     0.437792731243    12.000000000000
         C            0.050440574042     0.001373050419     1.097281731243    12.000000000000
         C           -1.575882425958    -1.262136949581    -0.384682268757    12.000000000000
         C           -1.573728425958     1.266521050419    -0.385383268757    12.000000000000
         H           -2.035219425958     0.003049050419     1.282754731243     1.007825032230
         H            0.208816574042     0.899645050419     1.697076731243     1.007825032230
         H            0.207966574042    -0.897218949581     1.696853731243     1.007825032230
         H           -0.909910425958    -1.303931949581    -1.250400268757     1.007825032230
         H           -2.607333425958    -1.276666949581    -0.748426268757     1.007825032230
         H           -1.409959425958    -2.165436949581     0.209787731243     1.007825032230
         H           -1.406419425958     2.169898050419     0.208581731243     1.007825032230
         H           -0.907576425958     1.306780050419    -1.251060268757     1.007825032230
         H           -2.605086425958     1.282576050419    -0.749350268757     1.007825032230

  Running in c1 symmetry.

  Rotational constants: A =      0.12876  B =      0.07225  C =      0.05770 [cm^-1]
  Rotational constants: A =   3860.16244  B =   2165.92042  C =   1729.87118 [MHz]
  Nuclear repulsion =  328.387818771571233

  Charge       = 0
  Multiplicity = 1
  Electrons    = 56
  Nalpha       = 28
  Nbeta        = 28

  ==> Algorithm <==

  SCF Algorithm Type is DF.
  DIIS enabled.
  MOM disabled.
  Fractional occupation disabled.
  Guess Type is SAD.
  Energy threshold   = 1.00e-10
  Density threshold  = 1.00e-10
  Integral threshold = 0.00e+00

  ==> Primary Basis <==

  Basis Set: AUG-CC-PVTZ
    Blend: AUG-CC-PVTZ
    Number of shells: 179
    Number of basis function: 529
    Number of Cartesian functions: 610
    Spherical Harmonics?: true
    Max angular momentum: 3

   => Loading Basis Set <=

    Name: (AUG-CC-PVTZ AUX)
    Role: JKFIT
    Keyword: DF_BASIS_SCF
    atoms 1-2  entry O          line   286 file /home/xy3866/psi4conda/share/psi4/basis/aug-cc-pvtz-jkfit.gbs 
    atoms 3    entry N          line   224 file /home/xy3866/psi4conda/share/psi4/basis/aug-cc-pvtz-jkfit.gbs 
    atoms 4-7  entry C          line   162 file /home/xy3866/psi4conda/share/psi4/basis/aug-cc-pvtz-jkfit.gbs 
    atoms 8-16 entry H          line    70 file /home/xy3866/psi4conda/share/psi4/basis/aug-cc-pvtz-jkfit.gbs 

  ==> Pre-Iterations <==

   -------------------------------------------------------
    Irrep   Nso     Nmo     Nalpha   Nbeta   Ndocc  Nsocc
   -------------------------------------------------------
     A        529     529       0       0       0       0
   -------------------------------------------------------
    Total     529     529      28      28      28       0
   -------------------------------------------------------

  ==> Integral Setup <==

  DFHelper Memory: AOs need 2.422 GiB; user supplied 22.352 GiB. Using in-core AOs.

  ==> MemDFJK: Density-Fitted J/K Matrices <==

    J tasked:                   Yes
    K tasked:                   Yes
    wK tasked:                   No
    OpenMP threads:               8
    Memory [MiB]:             22888
    Algorithm:                 Disk
    Schwarz Cutoff:           1E-12
    Mask sparsity (%):       1.7653
    Fitting Condition:        1E-10

   => Auxiliary Basis Set <=

  Basis Set: (AUG-CC-PVTZ AUX)
    Blend: AUG-CC-PVTZ-JKFIT
    Number of shells: 336
    Number of basis function: 1142
    Number of Cartesian functions: 1412
    Spherical Harmonics?: true
    Max angular momentum: 4

  Minimum eigenvalue in the overlap matrix is 3.8223430592E-06.
  Using Symmetric Orthogonalization.

  SCF Guess: Superposition of Atomic Densities via on-the-fly atomic UHF.

  ==> Iterations <==

                           Total Energy        Delta E     RMS |[F,P]|

   @DF-RHF iter SAD:  -360.21965263830390   -3.60220e+02   0.00000e+00 
   @DF-RHF iter   1:  -360.57887156266912   -3.59219e-01   1.52915e-03 DIIS
   @DF-RHF iter   2:  -360.78600481944386   -2.07133e-01   1.06137e-03 DIIS
   @DF-RHF iter   3:  -360.89365001216856   -1.07645e-01   1.75490e-04 DIIS
   @DF-RHF iter   4:  -360.89852983352557   -4.87982e-03   7.03442e-05 DIIS
   @DF-RHF iter   5:  -360.89943180068371   -9.01967e-04   1.45210e-05 DIIS
   @DF-RHF iter   6:  -360.89948089686118   -4.90962e-05   4.66099e-06 DIIS
   @DF-RHF iter   7:  -360.89948708071574   -6.18385e-06   1.45417e-06 DIIS
   @DF-RHF iter   8:  -360.89948781731380   -7.36598e-07   6.04412e-07 DIIS
   @DF-RHF iter   9:  -360.89948793537002   -1.18056e-07   3.37355e-07 DIIS
   @DF-RHF iter  10:  -360.89948795760017   -2.22302e-08   1.14622e-07 DIIS
   @DF-RHF iter  11:  -360.89948796117608   -3.57591e-09   2.57744e-08 DIIS
   @DF-RHF iter  12:  -360.89948796141118   -2.35104e-10   7.10148e-09 DIIS
   @DF-RHF iter  13:  -360.89948796142841   -1.72236e-11   2.47287e-09 DIIS
   @DF-RHF iter  14:  -360.89948796143040   -1.98952e-12   1.10467e-09 DIIS
   @DF-RHF iter  15:  -360.89948796143142   -1.02318e-12   4.43549e-10 DIIS
   @DF-RHF iter  16:  -360.89948796143102    3.97904e-13   2.12134e-10 DIIS
   @DF-RHF iter  17:  -360.89948796143005    9.66338e-13   9.49991e-11 DIIS
  Energy and wave function converged.


  ==> Post-Iterations <==

    Orbital Energies [Eh]
    ---------------------

    Doubly Occupied:                                                      

       1A    -20.605223     2A    -20.604732     3A    -15.845269  
       4A    -11.306953     5A    -11.265037     6A    -11.228538  
       7A    -11.228401     8A     -1.584194     9A     -1.382787  
      10A     -1.144700    11A     -1.042454    12A     -0.948224  
      13A     -0.881327    14A     -0.803889    15A     -0.738342  
      16A     -0.727896    17A     -0.705421    18A     -0.638085  
      19A     -0.629036    20A     -0.608317    21A     -0.557503  
      22A     -0.544776    23A     -0.517417    24A     -0.500596  
      25A     -0.500393    26A     -0.483879    27A     -0.475499  
      28A     -0.447139  

    Virtual:                                                              

      29A      0.020934    30A      0.032722    31A      0.036001  
      32A      0.043056    33A      0.052374    34A      0.054666  
      35A      0.062321    36A      0.067969    37A      0.075771  
      38A      0.077565    39A      0.092974    40A      0.105125  
      41A      0.112714    42A      0.114074    43A      0.122530  
      44A      0.127084    45A      0.129884    46A      0.137326  
      47A      0.141138    48A      0.141220    49A      0.144339  
      50A      0.146847    51A      0.159303    52A      0.170517  
      53A      0.184195    54A      0.186839    55A      0.207432  
      56A      0.212613    57A      0.214085    58A      0.225599  
      59A      0.232945    60A      0.239800    61A      0.245802  
      62A      0.246924    63A      0.255565    64A      0.256536  
      65A      0.270227    66A      0.275325    67A      0.275833  
      68A      0.294791    69A      0.304396    70A      0.309789  
      71A      0.311342    72A      0.316171    73A      0.319498  
      74A      0.336214    75A      0.339479    76A      0.349991  
      77A      0.356450    78A      0.360943    79A      0.366283  
      80A      0.372554    81A      0.376388    82A      0.377087  
      83A      0.382457    84A      0.387238    85A      0.389933  
      86A      0.398408    87A      0.401712    88A      0.401927  
      89A      0.415373    90A      0.428224    91A      0.429548  
      92A      0.438037    93A      0.438322    94A      0.443282  
      95A      0.449095    96A      0.452398    97A      0.466846  
      98A      0.468162    99A      0.479372   100A      0.481251  
     101A      0.493986   102A      0.499659   103A      0.506334  
     104A      0.510937   105A      0.513543   106A      0.521977  
     107A      0.522596   108A      0.532784   109A      0.541888  
     110A      0.542782   111A      0.555845   112A      0.557795  
     113A      0.572819   114A      0.580194   115A      0.584715  
     116A      0.597523   117A      0.599385   118A      0.612252  
     119A      0.621150   120A      0.621472   121A      0.624738  
     122A      0.630852   123A      0.641592   124A      0.648871  
     125A      0.654739   126A      0.662937   127A      0.677995  
     128A      0.678345   129A      0.702365   130A      0.720304  
     131A      0.736514   132A      0.738539   133A      0.755476  
     134A      0.778273   135A      0.779791   136A      0.790345  
     137A      0.802827   138A      0.811458   139A      0.819430  
     140A      0.820659   141A      0.833083   142A      0.837840  
     143A      0.840353   144A      0.846542   145A      0.862535  
     146A      0.866614   147A      0.878461   148A      0.884409  
     149A      0.888666   150A      0.892343   151A      0.902649  
     152A      0.918189   153A      0.925851   154A      0.928493  
     155A      0.931859   156A      0.940175   157A      0.950654  
     158A      0.963122   159A      0.965655   160A      0.979556  
     161A      0.986192   162A      0.995367   163A      1.001159  
     164A      1.017929   165A      1.020188   166A      1.022567  
     167A      1.031062   168A      1.036909   169A      1.041351  
     170A      1.050969   171A      1.052824   172A      1.060506  
     173A      1.080751   174A      1.088955   175A      1.096702  
     176A      1.102720   177A      1.115579   178A      1.118877  
     179A      1.124573   180A      1.129931   181A      1.137623  
     182A      1.147519   183A      1.158309   184A      1.168031  
     185A      1.181257   186A      1.191476   187A      1.198770  
     188A      1.215397   189A      1.216031   190A      1.219938  
     191A      1.221003   192A      1.244264   193A      1.248604  
     194A      1.250674   195A      1.263608   196A      1.268725  
     197A      1.299420   198A      1.311805   199A      1.329097  
     200A      1.329678   201A      1.337995   202A      1.340155  
     203A      1.355191   204A      1.368336   205A      1.368937  
     206A      1.382346   207A      1.410867   208A      1.425033  
     209A      1.429577   210A      1.439452   211A      1.442088  
     212A      1.456343   213A      1.459342   214A      1.473558  
     215A      1.475692   216A      1.477149   217A      1.490937  
     218A      1.514407   219A      1.518358   220A      1.547517  
     221A      1.554606   222A      1.569594   223A      1.570118  
     224A      1.580721   225A      1.589362   226A      1.595011  
     227A      1.615730   228A      1.626795   229A      1.634811  
     230A      1.639906   231A      1.656657   232A      1.666720  
     233A      1.678256   234A      1.685225   235A      1.696379  
     236A      1.705068   237A      1.708011   238A      1.718859  
     239A      1.728377   240A      1.738636   241A      1.747035  
     242A      1.751588   243A      1.768868   244A      1.769835  
     245A      1.780741   246A      1.798475   247A      1.817931  
     248A      1.823582   249A      1.847762   250A      1.850420  
     251A      1.868525   252A      1.873832   253A      1.886919  
     254A      1.901764   255A      1.909972   256A      1.912100  
     257A      1.931098   258A      1.932208   259A      1.946284  
     260A      1.956102   261A      1.970595   262A      1.977576  
     263A      1.979988   264A      1.998207   265A      2.015229  
     266A      2.037915   267A      2.046364   268A      2.050338  
     269A      2.055152   270A      2.075865   271A      2.093463  
     272A      2.118881   273A      2.121167   274A      2.123883  
     275A      2.144884   276A      2.174876   277A      2.181326  
     278A      2.187589   279A      2.212667   280A      2.219090  
     281A      2.230891   282A      2.235928   283A      2.237074  
     284A      2.254929   285A      2.266091   286A      2.274669  
     287A      2.302280   288A      2.322108   289A      2.328438  
     290A      2.333378   291A      2.360132   292A      2.366588  
     293A      2.384950   294A      2.414922   295A      2.419894  
     296A      2.436007   297A      2.440509   298A      2.444314  
     299A      2.463315   300A      2.486689   301A      2.487527  
     302A      2.512647   303A      2.515003   304A      2.539863  
     305A      2.543214   306A      2.556606   307A      2.574244  
     308A      2.603158   309A      2.610609   310A      2.623204  
     311A      2.638534   312A      2.682912   313A      2.686250  
     314A      2.708185   315A      2.714083   316A      2.759297  
     317A      2.764171   318A      2.796512   319A      2.838957  
     320A      2.855146   321A      2.887266   322A      2.923963  
     323A      2.953203   324A      2.969793   325A      2.977683  
     326A      3.090694   327A      3.133578   328A      3.146904  
     329A      3.180091   330A      3.193031   331A      3.271085  
     332A      3.284756   333A      3.322643   334A      3.328315  
     335A      3.406955   336A      3.423952   337A      3.470050  
     338A      3.472420   339A      3.481255   340A      3.504337  
     341A      3.509116   342A      3.520369   343A      3.548731  
     344A      3.572947   345A      3.599144   346A      3.604044  
     347A      3.635477   348A      3.647433   349A      3.668110  
     350A      3.686385   351A      3.707505   352A      3.726805  
     353A      3.729669   354A      3.739508   355A      3.744703  
     356A      3.768847   357A      3.790457   358A      3.792038  
     359A      3.818581   360A      3.823064   361A      3.831814  
     362A      3.859383   363A      3.860321   364A      3.886524  
     365A      3.897912   366A      3.926287   367A      3.944912  
     368A      3.952066   369A      3.960374   370A      3.987646  
     371A      3.992742   372A      4.001967   373A      4.003549  
     374A      4.010172   375A      4.019394   376A      4.044079  
     377A      4.050748   378A      4.055296   379A      4.106268  
     380A      4.118314   381A      4.127319   382A      4.143326  
     383A      4.164523   384A      4.185195   385A      4.190979  
     386A      4.208172   387A      4.208552   388A      4.224071  
     389A      4.258019   390A      4.259959   391A      4.270141  
     392A      4.283870   393A      4.325088   394A      4.328703  
     395A      4.353524   396A      4.370062   397A      4.380783  
     398A      4.422557   399A      4.424079   400A      4.439233  
     401A      4.477788   402A      4.478348   403A      4.504840  
     404A      4.533373   405A      4.552038   406A      4.597913  
     407A      4.613318   408A      4.633423   409A      4.647420  
     410A      4.681827   411A      4.699457   412A      4.703390  
     413A      4.713865   414A      4.716868   415A      4.768940  
     416A      4.788423   417A      4.795524   418A      4.868298  
     419A      4.871773   420A      4.875947   421A      4.889961  
     422A      4.892921   423A      4.917629   424A      4.940120  
     425A      4.954972   426A      4.967764   427A      4.994030  
     428A      4.997056   429A      5.014071   430A      5.075154  
     431A      5.081102   432A      5.097581   433A      5.103939  
     434A      5.125478   435A      5.146787   436A      5.149472  
     437A      5.160010   438A      5.181638   439A      5.223791  
     440A      5.236047   441A      5.259190   442A      5.296899  
     443A      5.306707   444A      5.322299   445A      5.326135  
     446A      5.347762   447A      5.369120   448A      5.373437  
     449A      5.382814   450A      5.409835   451A      5.413562  
     452A      5.421011   453A      5.458508   454A      5.475389  
     455A      5.481441   456A      5.513082   457A      5.536094  
     458A      5.548203   459A      5.562444   460A      5.601005  
     461A      5.610177   462A      5.624727   463A      5.664453  
     464A      5.669864   465A      5.688650   466A      5.706122  
     467A      5.713402   468A      5.767776   469A      5.799558  
     470A      5.821278   471A      5.821823   472A      5.881248  
     473A      5.931567   474A      5.943168   475A      5.945856  
     476A      5.978418   477A      6.010377   478A      6.053831  
     479A      6.073653   480A      6.119316   481A      6.137301  
     482A      6.148446   483A      6.193169   484A      6.239984  
     485A      6.273651   486A      6.283946   487A      6.343294  
     488A      6.345208   489A      6.378029   490A      6.491369  
     491A      6.596609   492A      6.690292   493A      6.711300  
     494A      6.715397   495A      6.729375   496A      6.759097  
     497A      6.772390   498A      6.841781   499A      6.861753  
     500A      6.878653   501A      6.898922   502A      6.915274  
     503A      6.936651   504A      6.964872   505A      6.977023  
     506A      7.002478   507A      7.138320   508A      7.346309  
     509A      7.368281   510A      7.381705   511A      7.398089  
     512A      7.407185   513A      7.439751   514A      7.733349  
     515A      7.752568   516A      7.820790   517A      7.835425  
     518A      7.929722   519A      8.013438   520A      8.018710  
     521A      8.237900   522A      8.448140   523A     15.568187  
     524A     16.057891   525A     17.428178   526A     18.097844  
     527A     18.353838   528A     19.486528   529A     20.179994  

    Final Occupation by Irrep:
              A 
    DOCC [    28 ]

  @DF-RHF Final Energy:  -360.89948796143005

   => Energetics <=

    Nuclear Repulsion Energy =            328.3878187715712329
    One-Electron Energy =               -1142.6825610883252011
    Two-Electron Energy =                 453.3952543553239138
    Total Energy =                       -360.8994879614300544

Computation Completed

*** tstop() called on node37.bme.utexas.edu at Thu Nov  5 19:45:44 2020
Module time:
	user time   =     200.04 seconds =       3.33 minutes
	system time =      44.94 seconds =       0.75 minutes
	total time  =         56 seconds =       0.93 minutes
Total time:
	user time   =     200.04 seconds =       3.33 minutes
	system time =      44.94 seconds =       0.75 minutes
	total time  =         56 seconds =       0.93 minutes
   => Loading Basis Set <=

    Name: (AUG-CC-PVTZ AUX)
    Role: RIFIT
    Keyword: DF_BASIS_MP2
    atoms 1-2  entry O          line   264 file /home/xy3866/psi4conda/share/psi4/basis/aug-cc-pvtz-ri.gbs 
    atoms 3    entry N          line   206 file /home/xy3866/psi4conda/share/psi4/basis/aug-cc-pvtz-ri.gbs 
    atoms 4-7  entry C          line   148 file /home/xy3866/psi4conda/share/psi4/basis/aug-cc-pvtz-ri.gbs 
    atoms 8-16 entry H          line    30 file /home/xy3866/psi4conda/share/psi4/basis/aug-cc-pvtz-ri.gbs 


*** tstart() called on node37.bme.utexas.edu
*** at Thu Nov  5 19:45:45 2020


  //>>>>>>>>>>>>>>>>>>>>>>>>>>>>>>>>>>>//
  //               DFMP2               //
  //<<<<<<<<<<<<<<<<<<<<<<<<<<<<<<<<<<<//

	 --------------------------------------------------------
	                          DF-MP2                         
	      2nd-Order Density-Fitted Moller-Plesset Theory     
	              RMP2 Wavefunction,   8 Threads             
	                                                         
	        Rob Parrish, Justin Turney, Andy Simmonett,      
	           Ed Hohenstein, and C. David Sherrill          
	 --------------------------------------------------------

   => Auxiliary Basis Set <=

  Basis Set: (AUG-CC-PVTZ AUX)
    Blend: AUG-CC-PVTZ-RI
    Number of shells: 322
    Number of basis function: 1156
    Number of Cartesian functions: 1447
    Spherical Harmonics?: true
    Max angular momentum: 4

	 --------------------------------------------------------
	                 NBF =   529, NAUX =  1156
	 --------------------------------------------------------
	   CLASS    FOCC     OCC    AOCC    AVIR     VIR    FVIR
	   PAIRS       0      28      28     501     501       0
	 --------------------------------------------------------

  DFHelper Memory: AOs need 2.422 GiB; user supplied 22.352 GiB. Using in-core AOs.


         ------------------------------------------------------------
                                     CPHF                           
                                  Rob Parrish                       
         ------------------------------------------------------------

  ==> Geometry <==

    Molecular point group: c1
    Full point group: C1

    Geometry (in Angstrom), charge = 0, multiplicity = 1:

       Center              X                  Y                   Z               Mass       
    ------------   -----------------  -----------------  -----------------  -----------------
         O            1.537747774042     1.095397350419    -0.357936168757    15.994914619570
         O            1.522775574042    -1.103523949581    -0.345241268757    15.994914619570
         N            1.127004574042     0.001107050419     0.068753731243    14.003074004430
         C           -1.332488425958     0.002213050419     0.437792731243    12.000000000000
         C            0.050440574042     0.001373050419     1.097281731243    12.000000000000
         C           -1.575882425958    -1.262136949581    -0.384682268757    12.000000000000
         C           -1.573728425958     1.266521050419    -0.385383268757    12.000000000000
         H           -2.035219425958     0.003049050419     1.282754731243     1.007825032230
         H            0.208816574042     0.899645050419     1.697076731243     1.007825032230
         H            0.207966574042    -0.897218949581     1.696853731243     1.007825032230
         H           -0.909910425958    -1.303931949581    -1.250400268757     1.007825032230
         H           -2.607333425958    -1.276666949581    -0.748426268757     1.007825032230
         H           -1.409959425958    -2.165436949581     0.209787731243     1.007825032230
         H           -1.406419425958     2.169898050419     0.208581731243     1.007825032230
         H           -0.907576425958     1.306780050419    -1.251060268757     1.007825032230
         H           -2.605086425958     1.282576050419    -0.749350268757     1.007825032230

  Nuclear repulsion =  328.387818771571176
  Reference energy  = -360.899487961430054

  ==> Basis Set <==

  Basis Set: AUG-CC-PVTZ
    Blend: AUG-CC-PVTZ
    Number of shells: 179
    Number of basis function: 529
    Number of Cartesian functions: 610
    Spherical Harmonics?: true
    Max angular momentum: 3

  ==> CGRSolver (by Rob Parrish) <==

   Number of roots    =         1
   Preconditioning    =    JACOBI
   Convergence cutoff =     1E-06
   Maximum iterations =       100

  ==> CPHFRHamiltonian (by Rob Parrish) <== 

  ==> MemDFJK: Density-Fitted J/K Matrices <==

    J tasked:                   Yes
    K tasked:                   Yes
    wK tasked:                   No
    OpenMP threads:               8
    Memory [MiB]:             22888
    Algorithm:                 Disk
    Schwarz Cutoff:           1E-12
    Mask sparsity (%):       1.7653
    Fitting Condition:        1E-10

   => Auxiliary Basis Set <=

  Basis Set: (AUG-CC-PVTZ AUX)
    Blend: AUG-CC-PVTZ-JKFIT
    Number of shells: 336
    Number of basis function: 1142
    Number of Cartesian functions: 1412
    Spherical Harmonics?: true
    Max angular momentum: 4

  ==> CPHF Iterations <==

  => Iterations <=

             Iter  Converged  Remaining    Residual
  CGR           1          0          1   1.628E-01
  CGR           2          0          1   5.227E-02
  CGR           3          0          1   2.357E-02
  CGR           4          0          1   6.519E-03
  CGR           5          0          1   2.068E-03
  CGR           6          0          1   6.678E-04
  CGR           7          0          1   2.694E-04
  CGR           8          0          1   1.820E-04
  CGR           9          0          1   8.664E-05
  CGR          10          0          1   3.093E-05
  CGR          11          0          1   7.515E-06
  CGR          12          0          1   2.506E-06
  CGR          13          1          0   8.216E-07

    CGRSolver converged.

	-----------------------------------------------------------
	 ==================> DF-MP2 Energies <==================== 
	-----------------------------------------------------------
	 Reference Energy          =    -360.8994879614300544 [Eh]
	 Singles Energy            =      -0.0000000000000000 [Eh]
	 Same-Spin Energy          =      -0.3688423045114368 [Eh]
	 Opposite-Spin Energy      =      -1.1811334754214573 [Eh]
	 Correlation Energy        =      -1.5499757799328941 [Eh]
	 Total Energy              =    -362.4494637413629334 [Eh]
	-----------------------------------------------------------
	 ================> DF-SCS-MP2 Energies <================== 
	-----------------------------------------------------------
	 SCS Same-Spin Scale       =       0.3333333333333333 [-]
	 SCS Opposite-Spin Scale   =       1.2000000000000000 [-]
	 SCS Same-Spin Energy      =      -0.1229474348371456 [Eh]
	 SCS Opposite-Spin Energy  =      -1.4173601705057488 [Eh]
	 SCS Correlation Energy    =      -1.5403076053428943 [Eh]
	 SCS Total Energy          =    -362.4397955667729434 [Eh]
	-----------------------------------------------------------



Properties will be evaluated at   0.000000,   0.000000,   0.000000 [a0]

Properties computed using the MP2 density matrix

  Nuclear Dipole Moment: [e a0]
     X:   -10.7364      Y:     0.0175      Z:     1.0237

  Electronic Dipole Moment: [e a0]
     X:     9.5460      Y:    -0.0127      Z:    -0.1601

  Dipole Moment: [e a0]
     X:    -1.1904      Y:     0.0048      Z:     0.8637     Total:     1.4707

  Dipole Moment: [D]
     X:    -3.0257      Y:     0.0121      Z:     2.1952     Total:     3.7382


*** tstop() called on node37.bme.utexas.edu at Thu Nov  5 19:47:34 2020
Module time:
	user time   =     518.16 seconds =       8.64 minutes
	system time =      57.49 seconds =       0.96 minutes
	total time  =        109 seconds =       1.82 minutes
Total time:
	user time   =     719.41 seconds =      11.99 minutes
	system time =     102.51 seconds =       1.71 minutes
	total time  =        166 seconds =       2.77 minutes

    Psi4 stopped on: Thursday, 05 November 2020 07:47PM
    Psi4 wall time for execution: 0:02:46.10

*** Psi4 exiting successfully. Buy a developer a beer!
