12999978                                                                
Freq      RMP2-FC                                                     6-31G(d)            
Number of atoms                            I               18
Info1-9                                    I   N=           9
          30          28        1002           0           0         100
           6           2           1
Charge                                     I                0
Multiplicity                               I                1
Number of electrons                        I               64
Number of alpha electrons                  I               32
Number of beta electrons                   I               32
Number of basis functions                  I              153
Number of independent functions            I              153
Number of point charges in /Mol/           I                0
Number of translation vectors              I                0
Atomic numbers                             I   N=          18
           7           6           6           6           6           6
           6           6           6           1           1           1
           1           1           1           1           1           1
Nuclear charges                            R   N=          18
  7.00000000E+00  6.00000000E+00  6.00000000E+00  6.00000000E+00  6.00000000E+00
  6.00000000E+00  6.00000000E+00  6.00000000E+00  6.00000000E+00  1.00000000E+00
  1.00000000E+00  1.00000000E+00  1.00000000E+00  1.00000000E+00  1.00000000E+00
  1.00000000E+00  1.00000000E+00  1.00000000E+00
Current cartesian coordinates              R   N=          54
 -3.64269696E-01 -1.88542548E+00 -2.74087547E-05  2.93830675E+00  1.24451894E+00
 -3.69753668E-05  4.76291267E+00 -4.40621834E-01  1.41216754E+00  4.76295861E+00
 -4.40691663E-01 -1.41209414E+00  2.14847817E-01  5.98174325E-01 -3.77945373E-05
 -1.64793198E+00  2.48082584E+00 -2.67036785E-05 -4.18480150E+00  1.78102052E+00
  1.66495014E-05 -2.81946072E+00 -2.53107797E+00 -7.20898382E-06 -4.79229033E+00
 -7.83486017E-01  2.28065992E-05  3.35655576E+00  3.25663183E+00 -9.74093518E-05
  3.93230067E+00 -2.06454879E+00  2.34704801E+00  6.31902882E+00  4.58417218E-01
  2.40079767E+00  6.31910248E+00  4.58357128E-01 -2.40067512E+00  3.93242890E+00
 -2.06466039E+00 -2.34697074E+00 -1.10318908E+00  4.46218137E+00 -4.10015418E-05
 -5.66042699E+00  3.21137090E+00  3.90660305E-05 -3.20924148E+00 -4.55202075E+00
 -1.14236810E-05 -6.74391916E+00 -1.41972296E+00  7.77389625E-05
Force Field                                I                0
Int Atom Types                             I   N=          18
           0           0           0           0           0           0
           0           0           0           0           0           0
           0           0           0           0           0           0
MM charges                                 R   N=          18
  0.00000000E+00  0.00000000E+00  0.00000000E+00  0.00000000E+00  0.00000000E+00
  0.00000000E+00  0.00000000E+00  0.00000000E+00  0.00000000E+00  0.00000000E+00
  0.00000000E+00  0.00000000E+00  0.00000000E+00  0.00000000E+00  0.00000000E+00
  0.00000000E+00  0.00000000E+00  0.00000000E+00
Integer atomic weights                     I   N=          18
          14          12          12          12          12          12
          12          12          12           1           1           1
           1           1           1           1           1           1
Real atomic weights                        R   N=          18
  1.40030740E+01  1.20000000E+01  1.20000000E+01  1.20000000E+01  1.20000000E+01
  1.20000000E+01  1.20000000E+01  1.20000000E+01  1.20000000E+01  1.00782504E+00
  1.00782504E+00  1.00782504E+00  1.00782504E+00  1.00782504E+00  1.00782504E+00
  1.00782504E+00  1.00782504E+00  1.00782504E+00
Atom fragment info                         I   N=          18
           0           0           0           0           0           0
           0           0           0           0           0           0
           0           0           0           0           0           0
Atom residue num                           I   N=          18
           0           0           0           0           0           0
           0           0           0           0           0           0
           0           0           0           0           0           0
Nuclear spins                              I   N=          18
           2           0           0           0           0           0
           0           0           0           1           1           1
           1           1           1           1           1           1
Nuclear ZEff                               R   N=          18
 -4.55000000E+00 -3.60000000E+00 -3.60000000E+00 -3.60000000E+00 -3.60000000E+00
 -3.60000000E+00 -3.60000000E+00 -3.60000000E+00 -3.60000000E+00 -1.00000000E+00
 -1.00000000E+00 -1.00000000E+00 -1.00000000E+00 -1.00000000E+00 -1.00000000E+00
 -1.00000000E+00 -1.00000000E+00 -1.00000000E+00
Nuclear QMom                               R   N=          18
  2.04400000E+00  0.00000000E+00  0.00000000E+00  0.00000000E+00  0.00000000E+00
  0.00000000E+00  0.00000000E+00  0.00000000E+00  0.00000000E+00  0.00000000E+00
  0.00000000E+00  0.00000000E+00  0.00000000E+00  0.00000000E+00  0.00000000E+00
  0.00000000E+00  0.00000000E+00  0.00000000E+00
Nuclear GFac                               R   N=          18
  4.03761000E-01  0.00000000E+00  0.00000000E+00  0.00000000E+00  0.00000000E+00
  0.00000000E+00  0.00000000E+00  0.00000000E+00  0.00000000E+00  2.79284600E+00
  2.79284600E+00  2.79284600E+00  2.79284600E+00  2.79284600E+00  2.79284600E+00
  2.79284600E+00  2.79284600E+00  2.79284600E+00
MicOpt                                     I   N=          18
          -1          -1          -1          -1          -1          -1
          -1          -1          -1          -1          -1          -1
          -1          -1          -1          -1          -1          -1
Number of contracted shells                I               54
Number of primitive shells                 I              135
Pure/Cartesian d shells                    I                1
Pure/Cartesian f shells                    I                0
Highest angular momentum                   I                2
Largest degree of contraction              I                6
Shell types                                I   N=          54
           0          -1          -1           2           0          -1
          -1           2           0          -1          -1           2
           0          -1          -1           2           0          -1
          -1           2           0          -1          -1           2
           0          -1          -1           2           0          -1
          -1           2           0          -1          -1           2
           0           0           0           0           0           0
           0           0           0           0           0           0
           0           0           0           0           0           0
Number of primitives per shell             I   N=          54
           6           3           1           1           6           3
           1           1           6           3           1           1
           6           3           1           1           6           3
           1           1           6           3           1           1
           6           3           1           1           6           3
           1           1           6           3           1           1
           3           1           3           1           3           1
           3           1           3           1           3           1
           3           1           3           1           3           1
Shell to atom map                          I   N=          54
           1           1           1           1           2           2
           2           2           3           3           3           3
           4           4           4           4           5           5
           5           5           6           6           6           6
           7           7           7           7           8           8
           8           8           9           9           9           9
          10          10          11          11          12          12
          13          13          14          14          15          15
          16          16          17          17          18          18
Primitive exponents                        R   N=         135
  4.17351146E+03  6.27457911E+02  1.42902093E+02  4.02343293E+01  1.28202129E+01
  4.39043701E+00  1.16263619E+01  2.71627981E+00  7.72218397E-01  2.12031498E-01
  8.00000000E-01  3.04752488E+03  4.57369518E+02  1.03948685E+02  2.92101553E+01
  9.28666296E+00  3.16392696E+00  7.86827235E+00  1.88128854E+00  5.44249258E-01
  1.68714478E-01  8.00000000E-01  3.04752488E+03  4.57369518E+02  1.03948685E+02
  2.92101553E+01  9.28666296E+00  3.16392696E+00  7.86827235E+00  1.88128854E+00
  5.44249258E-01  1.68714478E-01  8.00000000E-01  3.04752488E+03  4.57369518E+02
  1.03948685E+02  2.92101553E+01  9.28666296E+00  3.16392696E+00  7.86827235E+00
  1.88128854E+00  5.44249258E-01  1.68714478E-01  8.00000000E-01  3.04752488E+03
  4.57369518E+02  1.03948685E+02  2.92101553E+01  9.28666296E+00  3.16392696E+00
  7.86827235E+00  1.88128854E+00  5.44249258E-01  1.68714478E-01  8.00000000E-01
  3.04752488E+03  4.57369518E+02  1.03948685E+02  2.92101553E+01  9.28666296E+00
  3.16392696E+00  7.86827235E+00  1.88128854E+00  5.44249258E-01  1.68714478E-01
  8.00000000E-01  3.04752488E+03  4.57369518E+02  1.03948685E+02  2.92101553E+01
  9.28666296E+00  3.16392696E+00  7.86827235E+00  1.88128854E+00  5.44249258E-01
  1.68714478E-01  8.00000000E-01  3.04752488E+03  4.57369518E+02  1.03948685E+02
  2.92101553E+01  9.28666296E+00  3.16392696E+00  7.86827235E+00  1.88128854E+00
  5.44249258E-01  1.68714478E-01  8.00000000E-01  3.04752488E+03  4.57369518E+02
  1.03948685E+02  2.92101553E+01  9.28666296E+00  3.16392696E+00  7.86827235E+00
  1.88128854E+00  5.44249258E-01  1.68714478E-01  8.00000000E-01  1.87311370E+01
  2.82539436E+00  6.40121692E-01  1.61277759E-01  1.87311370E+01  2.82539436E+00
  6.40121692E-01  1.61277759E-01  1.87311370E+01  2.82539436E+00  6.40121692E-01
  1.61277759E-01  1.87311370E+01  2.82539436E+00  6.40121692E-01  1.61277759E-01
  1.87311370E+01  2.82539436E+00  6.40121692E-01  1.61277759E-01  1.87311370E+01
  2.82539436E+00  6.40121692E-01  1.61277759E-01  1.87311370E+01  2.82539436E+00
  6.40121692E-01  1.61277759E-01  1.87311370E+01  2.82539436E+00  6.40121692E-01
  1.61277759E-01  1.87311370E+01  2.82539436E+00  6.40121692E-01  1.61277759E-01
Contraction coefficients                   R   N=         135
  1.83477216E-03  1.39946270E-02  6.85865518E-02  2.32240873E-01  4.69069948E-01
  3.60455199E-01 -1.14961182E-01 -1.69117479E-01  1.14585195E+00  1.00000000E+00
  1.00000000E+00  1.83473713E-03  1.40373228E-02  6.88426223E-02  2.32184443E-01
  4.67941348E-01  3.62311985E-01 -1.19332420E-01 -1.60854152E-01  1.14345644E+00
  1.00000000E+00  1.00000000E+00  1.83473713E-03  1.40373228E-02  6.88426223E-02
  2.32184443E-01  4.67941348E-01  3.62311985E-01 -1.19332420E-01 -1.60854152E-01
  1.14345644E+00  1.00000000E+00  1.00000000E+00  1.83473713E-03  1.40373228E-02
  6.88426223E-02  2.32184443E-01  4.67941348E-01  3.62311985E-01 -1.19332420E-01
 -1.60854152E-01  1.14345644E+00  1.00000000E+00  1.00000000E+00  1.83473713E-03
  1.40373228E-02  6.88426223E-02  2.32184443E-01  4.67941348E-01  3.62311985E-01
 -1.19332420E-01 -1.60854152E-01  1.14345644E+00  1.00000000E+00  1.00000000E+00
  1.83473713E-03  1.40373228E-02  6.88426223E-02  2.32184443E-01  4.67941348E-01
  3.62311985E-01 -1.19332420E-01 -1.60854152E-01  1.14345644E+00  1.00000000E+00
  1.00000000E+00  1.83473713E-03  1.40373228E-02  6.88426223E-02  2.32184443E-01
  4.67941348E-01  3.62311985E-01 -1.19332420E-01 -1.60854152E-01  1.14345644E+00
  1.00000000E+00  1.00000000E+00  1.83473713E-03  1.40373228E-02  6.88426223E-02
  2.32184443E-01  4.67941348E-01  3.62311985E-01 -1.19332420E-01 -1.60854152E-01
  1.14345644E+00  1.00000000E+00  1.00000000E+00  1.83473713E-03  1.40373228E-02
  6.88426223E-02  2.32184443E-01  4.67941348E-01  3.62311985E-01 -1.19332420E-01
 -1.60854152E-01  1.14345644E+00  1.00000000E+00  1.00000000E+00  3.34946043E-02
  2.34726953E-01  8.13757326E-01  1.00000000E+00  3.34946043E-02  2.34726953E-01
  8.13757326E-01  1.00000000E+00  3.34946043E-02  2.34726953E-01  8.13757326E-01
  1.00000000E+00  3.34946043E-02  2.34726953E-01  8.13757326E-01  1.00000000E+00
  3.34946043E-02  2.34726953E-01  8.13757326E-01  1.00000000E+00  3.34946043E-02
  2.34726953E-01  8.13757326E-01  1.00000000E+00  3.34946043E-02  2.34726953E-01
  8.13757326E-01  1.00000000E+00  3.34946043E-02  2.34726953E-01  8.13757326E-01
  1.00000000E+00  3.34946043E-02  2.34726953E-01  8.13757326E-01  1.00000000E+00
P(S=P) Contraction coefficients            R   N=         135
  0.00000000E+00  0.00000000E+00  0.00000000E+00  0.00000000E+00  0.00000000E+00
  0.00000000E+00  6.75797439E-02  3.23907296E-01  7.40895140E-01  1.00000000E+00
  0.00000000E+00  0.00000000E+00  0.00000000E+00  0.00000000E+00  0.00000000E+00
  0.00000000E+00  0.00000000E+00  6.89990666E-02  3.16423961E-01  7.44308291E-01
  1.00000000E+00  0.00000000E+00  0.00000000E+00  0.00000000E+00  0.00000000E+00
  0.00000000E+00  0.00000000E+00  0.00000000E+00  6.89990666E-02  3.16423961E-01
  7.44308291E-01  1.00000000E+00  0.00000000E+00  0.00000000E+00  0.00000000E+00
  0.00000000E+00  0.00000000E+00  0.00000000E+00  0.00000000E+00  6.89990666E-02
  3.16423961E-01  7.44308291E-01  1.00000000E+00  0.00000000E+00  0.00000000E+00
  0.00000000E+00  0.00000000E+00  0.00000000E+00  0.00000000E+00  0.00000000E+00
  6.89990666E-02  3.16423961E-01  7.44308291E-01  1.00000000E+00  0.00000000E+00
  0.00000000E+00  0.00000000E+00  0.00000000E+00  0.00000000E+00  0.00000000E+00
  0.00000000E+00  6.89990666E-02  3.16423961E-01  7.44308291E-01  1.00000000E+00
  0.00000000E+00  0.00000000E+00  0.00000000E+00  0.00000000E+00  0.00000000E+00
  0.00000000E+00  0.00000000E+00  6.89990666E-02  3.16423961E-01  7.44308291E-01
  1.00000000E+00  0.00000000E+00  0.00000000E+00  0.00000000E+00  0.00000000E+00
  0.00000000E+00  0.00000000E+00  0.00000000E+00  6.89990666E-02  3.16423961E-01
  7.44308291E-01  1.00000000E+00  0.00000000E+00  0.00000000E+00  0.00000000E+00
  0.00000000E+00  0.00000000E+00  0.00000000E+00  0.00000000E+00  6.89990666E-02
  3.16423961E-01  7.44308291E-01  1.00000000E+00  0.00000000E+00  0.00000000E+00
  0.00000000E+00  0.00000000E+00  0.00000000E+00  0.00000000E+00  0.00000000E+00
  0.00000000E+00  0.00000000E+00  0.00000000E+00  0.00000000E+00  0.00000000E+00
  0.00000000E+00  0.00000000E+00  0.00000000E+00  0.00000000E+00  0.00000000E+00
  0.00000000E+00  0.00000000E+00  0.00000000E+00  0.00000000E+00  0.00000000E+00
  0.00000000E+00  0.00000000E+00  0.00000000E+00  0.00000000E+00  0.00000000E+00
  0.00000000E+00  0.00000000E+00  0.00000000E+00  0.00000000E+00  0.00000000E+00
  0.00000000E+00  0.00000000E+00  0.00000000E+00  0.00000000E+00  0.00000000E+00
Coordinates of each shell                  R   N=         162
 -3.64269696E-01 -1.88542548E+00 -2.74087547E-05 -3.64269696E-01 -1.88542548E+00
 -2.74087547E-05 -3.64269696E-01 -1.88542548E+00 -2.74087547E-05 -3.64269696E-01
 -1.88542548E+00 -2.74087547E-05  2.93830675E+00  1.24451894E+00 -3.69753668E-05
  2.93830675E+00  1.24451894E+00 -3.69753668E-05  2.93830675E+00  1.24451894E+00
 -3.69753668E-05  2.93830675E+00  1.24451894E+00 -3.69753668E-05  4.76291267E+00
 -4.40621834E-01  1.41216754E+00  4.76291267E+00 -4.40621834E-01  1.41216754E+00
  4.76291267E+00 -4.40621834E-01  1.41216754E+00  4.76291267E+00 -4.40621834E-01
  1.41216754E+00  4.76295861E+00 -4.40691663E-01 -1.41209414E+00  4.76295861E+00
 -4.40691663E-01 -1.41209414E+00  4.76295861E+00 -4.40691663E-01 -1.41209414E+00
  4.76295861E+00 -4.40691663E-01 -1.41209414E+00  2.14847817E-01  5.98174325E-01
 -3.77945373E-05  2.14847817E-01  5.98174325E-01 -3.77945373E-05  2.14847817E-01
  5.98174325E-01 -3.77945373E-05  2.14847817E-01  5.98174325E-01 -3.77945373E-05
 -1.64793198E+00  2.48082584E+00 -2.67036785E-05 -1.64793198E+00  2.48082584E+00
 -2.67036785E-05 -1.64793198E+00  2.48082584E+00 -2.67036785E-05 -1.64793198E+00
  2.48082584E+00 -2.67036785E-05 -4.18480150E+00  1.78102052E+00  1.66495014E-05
 -4.18480150E+00  1.78102052E+00  1.66495014E-05 -4.18480150E+00  1.78102052E+00
  1.66495014E-05 -4.18480150E+00  1.78102052E+00  1.66495014E-05 -2.81946072E+00
 -2.53107797E+00 -7.20898382E-06 -2.81946072E+00 -2.53107797E+00 -7.20898382E-06
 -2.81946072E+00 -2.53107797E+00 -7.20898382E-06 -2.81946072E+00 -2.53107797E+00
 -7.20898382E-06 -4.79229033E+00 -7.83486017E-01  2.28065992E-05 -4.79229033E+00
 -7.83486017E-01  2.28065992E-05 -4.79229033E+00 -7.83486017E-01  2.28065992E-05
 -4.79229033E+00 -7.83486017E-01  2.28065992E-05  3.35655576E+00  3.25663183E+00
 -9.74093518E-05  3.35655576E+00  3.25663183E+00 -9.74093518E-05  3.93230067E+00
 -2.06454879E+00  2.34704801E+00  3.93230067E+00 -2.06454879E+00  2.34704801E+00
  6.31902882E+00  4.58417218E-01  2.40079767E+00  6.31902882E+00  4.58417218E-01
  2.40079767E+00  6.31910248E+00  4.58357128E-01 -2.40067512E+00  6.31910248E+00
  4.58357128E-01 -2.40067512E+00  3.93242890E+00 -2.06466039E+00 -2.34697074E+00
  3.93242890E+00 -2.06466039E+00 -2.34697074E+00 -1.10318908E+00  4.46218137E+00
 -4.10015418E-05 -1.10318908E+00  4.46218137E+00 -4.10015418E-05 -5.66042699E+00
  3.21137090E+00  3.90660305E-05 -5.66042699E+00  3.21137090E+00  3.90660305E-05
 -3.20924148E+00 -4.55202075E+00 -1.14236810E-05 -3.20924148E+00 -4.55202075E+00
 -1.14236810E-05 -6.74391916E+00 -1.41972296E+00  7.77389625E-05 -6.74391916E+00
 -1.41972296E+00  7.77389625E-05
Constraint Structure                       R   N=          54
 -3.64269696E-01 -1.88542548E+00 -2.74087547E-05  2.93830675E+00  1.24451894E+00
 -3.69753668E-05  4.76291267E+00 -4.40621834E-01  1.41216754E+00  4.76295861E+00
 -4.40691663E-01 -1.41209414E+00  2.14847817E-01  5.98174325E-01 -3.77945373E-05
 -1.64793198E+00  2.48082584E+00 -2.67036785E-05 -4.18480150E+00  1.78102052E+00
  1.66495014E-05 -2.81946072E+00 -2.53107797E+00 -7.20898382E-06 -4.79229033E+00
 -7.83486017E-01  2.28065992E-05  3.35655576E+00  3.25663183E+00 -9.74093518E-05
  3.93230067E+00 -2.06454879E+00  2.34704801E+00  6.31902882E+00  4.58417218E-01
  2.40079767E+00  6.31910248E+00  4.58357128E-01 -2.40067512E+00  3.93242890E+00
 -2.06466039E+00 -2.34697074E+00 -1.10318908E+00  4.46218137E+00 -4.10015418E-05
 -5.66042699E+00  3.21137090E+00  3.90660305E-05 -3.20924148E+00 -4.55202075E+00
 -1.14236810E-05 -6.74391916E+00 -1.41972296E+00  7.77389625E-05
Num ILSW                                   I              100
ILSW                                       I   N=         100
           0           1           0           1           2           0
           0           0           0           0           0          -1
           0           0           0           0           0           0
           0           0           0           0           1           0
           1           0           0           0           0           0
           0           0      100000           0          -1           0
           0           0           0           0           0           0
           0           0           0           1           1           0
           0           0           1           0           0           0
           0           0           4          40           0           0
           0           0           0           0           0           0
           0           0           0           0           0           0
           0           0           0           0           0           0
           0           0           0           0           0           0
           0           0           0           0           0           0
           0           0           0           0           0           0
           0           0           0           0
Num RLSW                                   I               40
RLSW                                       R   N=          40
  1.00000000E+00  1.00000000E+00  1.00000000E+00  1.00000000E+00  1.00000000E+00
  0.00000000E+00  0.00000000E+00  1.00000000E+00  0.00000000E+00  0.00000000E+00
  0.00000000E+00  0.00000000E+00  1.00000000E+00  0.00000000E+00  0.00000000E+00
  0.00000000E+00  0.00000000E+00  1.00000000E+00  0.00000000E+00  0.00000000E+00
  0.00000000E+00  0.00000000E+00  1.00000000E+00  0.00000000E+00  0.00000000E+00
  0.00000000E+00  0.00000000E+00  1.00000000E+00  0.00000000E+00  0.00000000E+00
  0.00000000E+00  0.00000000E+00  0.00000000E+00  0.00000000E+00  0.00000000E+00
  0.00000000E+00  0.00000000E+00  0.00000000E+00  1.00000000E+00  1.00000000E+00
MxBond                                     I                4
NBond                                      I   N=          18
           2           4           4           4           3           3
           3           3           3           1           1           1
           1           1           1           1           1           1
IBond                                      I   N=          72
           5           8           0           0           3           4
           5          10           2           4          11          12
           2           3          13          14           1           2
           6           0           5           7          15           0
           6           9          16           0           1           9
          17           0           7           8          18           0
           2           0           0           0           3           0
           0           0           3           0           0           0
           4           0           0           0           4           0
           0           0           6           0           0           0
           7           0           0           0           8           0
           0           0           9           0           0           0
RBond                                      R   N=          72
  1.50000000E+00  1.50000000E+00  0.00000000E+00  0.00000000E+00  1.00000000E+00
  1.00000000E+00  1.00000000E+00  1.00000000E+00  1.00000000E+00  1.00000000E+00
  1.00000000E+00  1.00000000E+00  1.00000000E+00  1.00000000E+00  1.00000000E+00
  1.00000000E+00  1.50000000E+00  1.00000000E+00  1.50000000E+00  0.00000000E+00
  1.50000000E+00  1.50000000E+00  1.00000000E+00  0.00000000E+00  1.50000000E+00
  1.50000000E+00  1.00000000E+00  0.00000000E+00  1.50000000E+00  1.50000000E+00
  1.00000000E+00  0.00000000E+00  1.50000000E+00  1.50000000E+00  1.00000000E+00
  0.00000000E+00  1.00000000E+00  0.00000000E+00  0.00000000E+00  0.00000000E+00
  1.00000000E+00  0.00000000E+00  0.00000000E+00  0.00000000E+00  1.00000000E+00
  0.00000000E+00  0.00000000E+00  0.00000000E+00  1.00000000E+00  0.00000000E+00
  0.00000000E+00  0.00000000E+00  1.00000000E+00  0.00000000E+00  0.00000000E+00
  0.00000000E+00  1.00000000E+00  0.00000000E+00  0.00000000E+00  0.00000000E+00
  1.00000000E+00  0.00000000E+00  0.00000000E+00  0.00000000E+00  1.00000000E+00
  0.00000000E+00  0.00000000E+00  0.00000000E+00  1.00000000E+00  0.00000000E+00
  0.00000000E+00  0.00000000E+00
Virial Ratio                               R      2.002031696633613E+00
SCF Energy                                 R     -3.626039558079671E+02
MP2 Energy                                 R     -3.637850118640922E+02
Total Energy                               R     -3.637850118640922E+02
Post-SCF wavefunction norm                 R      1.685148447382185E+00
RMS Force                                  R      1.093076545296459E-06
RMS Density                                R      1.714024501402701E-09
External E-field                           R   N=          35
  0.00000000E+00  0.00000000E+00  0.00000000E+00  0.00000000E+00  0.00000000E+00
  0.00000000E+00  0.00000000E+00  0.00000000E+00  0.00000000E+00  0.00000000E+00
  0.00000000E+00  0.00000000E+00  0.00000000E+00  0.00000000E+00  0.00000000E+00
  0.00000000E+00  0.00000000E+00  0.00000000E+00  0.00000000E+00  0.00000000E+00
  0.00000000E+00  0.00000000E+00  0.00000000E+00  0.00000000E+00  0.00000000E+00
  0.00000000E+00  0.00000000E+00  0.00000000E+00  0.00000000E+00  0.00000000E+00
  0.00000000E+00  0.00000000E+00  0.00000000E+00  0.00000000E+00  0.00000000E+00
IOpCl                                      I                0
IROHF                                      I                0
Alpha Orbital Energies                     R   N=         153
 -1.55595413E+01 -1.12791320E+01 -1.12732755E+01 -1.12569933E+01 -1.12345844E+01
 -1.12343621E+01 -1.12310575E+01 -1.12217570E+01 -1.12210812E+01 -1.25057736E+00
 -1.13943360E+00 -1.07801399E+00 -1.02567302E+00 -8.79813304E-01 -8.50002125E-01
 -8.13800676E-01 -7.82984424E-01 -7.04372377E-01 -6.68250907E-01 -6.45614553E-01
 -6.28093287E-01 -6.05021244E-01 -5.69821749E-01 -5.42163308E-01 -5.40415730E-01
 -5.05017045E-01 -5.00781673E-01 -4.31427672E-01 -4.25527094E-01 -4.04455671E-01
 -3.71842615E-01 -3.18152384E-01  1.21700168E-01  1.44520435E-01  2.33876434E-01
  2.56520796E-01  2.80730630E-01  2.98339045E-01  3.12026635E-01  3.14372979E-01
  3.22638972E-01  3.23420277E-01  3.54302999E-01  3.71483592E-01  3.92318724E-01
  4.07904275E-01  4.26294203E-01  4.53036602E-01  4.64545569E-01  4.90929351E-01
  5.19261480E-01  5.46698985E-01  6.58397658E-01  6.62350922E-01  7.15350298E-01
  7.44093834E-01  7.48600022E-01  7.74168993E-01  7.74658180E-01  7.94795943E-01
  8.26473652E-01  8.29662133E-01  8.30583726E-01  8.60356687E-01  8.60472661E-01
  8.86986695E-01  8.89642380E-01  8.99869884E-01  9.14040103E-01  9.42421665E-01
  9.42799650E-01  9.94126072E-01  1.01152855E+00  1.08649106E+00  1.09507381E+00
  1.10177927E+00  1.11533269E+00  1.11968901E+00  1.13470629E+00  1.14762610E+00
  1.15128508E+00  1.18241934E+00  1.19691632E+00  1.21353094E+00  1.22765099E+00
  1.23998619E+00  1.27470377E+00  1.28682339E+00  1.29049119E+00  1.32306305E+00
  1.35288759E+00  1.44693130E+00  1.46978953E+00  1.50501309E+00  1.55637482E+00
  1.59457985E+00  1.66369900E+00  1.70097166E+00  1.72502790E+00  1.75936911E+00
  1.77619866E+00  1.79060990E+00  1.81555349E+00  1.82862584E+00  1.91948035E+00
  1.98103177E+00  2.06823627E+00  2.09627174E+00  2.15113732E+00  2.16378728E+00
  2.17619030E+00  2.20785179E+00  2.22682533E+00  2.23416468E+00  2.25507484E+00
  2.33403737E+00  2.34982259E+00  2.41945240E+00  2.45802792E+00  2.49143401E+00
  2.50598277E+00  2.51229376E+00  2.53691621E+00  2.57342821E+00  2.62461527E+00
  2.65171580E+00  2.66607017E+00  2.73785868E+00  2.73839419E+00  2.75857264E+00
  2.86630121E+00  2.90319229E+00  2.92092387E+00  2.92868509E+00  2.94526563E+00
  3.03018754E+00  3.04513707E+00  3.08840071E+00  3.15253189E+00  3.16627866E+00
  3.22974406E+00  3.23303076E+00  3.51521983E+00  3.77616264E+00  4.47724700E+00
  4.53296115E+00  4.60563820E+00  4.63148052E+00  4.68597629E+00  4.76663337E+00
  4.82865442E+00  4.93182839E+00  5.05807527E+00
Alpha MO coefficients                      R   N=       23409
  9.95243868E-01  2.50643637E-02 -1.39537444E-03  1.33844286E-03  8.64661627E-09
 -7.45345289E-03  1.99424051E-03 -2.60788214E-03 -1.15681127E-08 -2.72538891E-03
 -2.76385934E-03 -3.09869710E-03  1.11531027E-04 -3.73036273E-09 -1.06965980E-09
  7.47270736E-06  5.71456793E-06  2.32310113E-05 -1.34332816E-05  7.10835216E-10
  7.50980363E-04 -4.95224866E-04  5.76943327E-04 -1.63587181E-08  3.11235333E-05
  2.28539508E-05 -1.01833661E-05 -6.32732005E-05  6.25423243E-10 -6.52591383E-10
  1.09999177E-05  5.23499993E-05 -3.04212024E-05  3.04267267E-06 -2.39010068E-05
  1.65741304E-04  6.76269051E-05  1.72002096E-05  3.80203212E-05  3.16325311E-06
  1.75579754E-05  1.17771874E-05  1.01508146E-05  1.29553386E-06  6.88879977E-06
  1.10003182E-05  5.23534355E-05 -3.04247933E-05  3.04185739E-06  2.39005533E-05
  1.65730507E-04  6.76471333E-05  1.72122084E-05 -3.80391924E-05  3.16434063E-06
  1.75571156E-05  1.17756909E-05  1.01515505E-05 -1.29540922E-06 -6.89006152E-06
  2.81009540E-05  3.32020077E-04 -4.09746845E-05 -3.90328807E-05 -1.76431466E-11
  3.60585136E-03 -2.01293732E-03 -2.59471634E-03  2.68016610E-08 -4.80570708E-05
 -4.23002106E-04 -6.49393308E-05 -6.04701378E-05  1.19777170E-10  1.18669647E-09
  2.75288004E-05  1.00970322E-04 -1.45479496E-05  3.09625426E-05  3.40215294E-10
 -2.13087053E-03  1.26232474E-03  1.67550632E-03 -2.45780966E-08  8.55433494E-05
 -2.33660012E-05  1.86731715E-05 -2.30952046E-06 -3.28167007E-10  8.41674967E-10
 -2.74449937E-05 -1.21932458E-04 -2.20585523E-05 -2.83009279E-06  2.02720784E-10
  3.06765378E-03  1.31176462E-03 -9.37567865E-04 -2.53851986E-08 -2.63463665E-05
 -2.16466120E-05 -5.46449946E-05  4.10148083E-06 -9.25451813E-10  9.81764940E-10
  1.47841529E-05  2.68875957E-04  1.12458394E-04  2.67662386E-05 -1.25309034E-09
  4.21560431E-03  6.35603019E-04  2.44418876E-03 -7.81221963E-10 -4.69969050E-04
 -4.80857979E-05 -7.98156385E-05 -1.12449571E-04  3.11719411E-09  1.56448088E-09
  4.01636411E-05  1.81827008E-04 -4.67562147E-05  4.44799921E-05 -5.59321023E-10
 -3.28803552E-03 -2.09233034E-03 -4.96824811E-04  3.65023736E-08 -2.77215535E-05
  6.75954269E-05  4.45922262E-05  1.44341685E-05  1.60964264E-10  4.05165520E-10
 -6.38260443E-05 -2.28293674E-04  2.58457737E-05 -1.22776177E-04 -1.46162030E-05
 -5.35741177E-05 -1.46183412E-05 -5.35874135E-05  2.58532198E-05 -1.22782611E-04
 -9.22468792E-05 -5.48624498E-04  2.65647146E-05  3.55111056E-04  3.74619598E-05
  5.43290504E-04 -6.70361223E-05 -5.26264986E-04 -2.01819717E-04  6.49294926E-04