199_3-Pentanone Gaussian SP Calculation on node58.bme.utexas.edu        
Freq      RMP2-FC                                                     6-31G(d)            
Number of atoms                            I               16
Info1-9                                    I   N=           9
          27          26        1002           0           0         100
           6           2           1
Charge                                     I                0
Multiplicity                               I                1
Number of electrons                        I               48
Number of alpha electrons                  I               24
Number of beta electrons                   I               24
Number of basis functions                  I              110
Number of independent functions            I              110
Number of point charges in /Mol/           I                0
Number of translation vectors              I                0
Atomic numbers                             I   N=          16
           8           6           6           6           6           6
           1           1           1           1           1           1
           1           1           1           1
Nuclear charges                            R   N=          16
  8.00000000E+00  6.00000000E+00  6.00000000E+00  6.00000000E+00  6.00000000E+00
  6.00000000E+00  1.00000000E+00  1.00000000E+00  1.00000000E+00  1.00000000E+00
  1.00000000E+00  1.00000000E+00  1.00000000E+00  1.00000000E+00  1.00000000E+00
  1.00000000E+00
Current cartesian coordinates              R   N=          48
  1.47165196E-07  2.42755733E+00 -4.48010539E-06 -2.44398588E+00 -1.39817121E+00
  1.70123848E-06  2.44398572E+00 -1.39817124E+00 -5.59054082E-06  8.83796162E-19
  1.05069643E-01 -2.36414073E-06 -4.78967812E+00  2.65948491E-01  3.03594459E-06
  4.78967814E+00  2.65948362E-01  6.35920813E-06 -2.42026967E+00 -2.65676892E+00
  1.65010681E+00 -2.42027344E+00 -2.65676916E+00 -1.65010331E+00  2.42027343E+00
 -2.65676020E+00 -1.65011764E+00  2.42026903E+00 -2.65677797E+00  1.65009246E+00
 -6.50152633E+00 -8.90358709E-01  1.09506593E-05 -4.81805519E+00  1.48590229E+00
  1.66341712E+00 -4.81806474E+00  1.48589325E+00 -1.66341761E+00  4.81806117E+00
  1.48588541E+00  1.66343281E+00  4.81805908E+00  1.48590993E+00 -1.66340186E+00
  6.50152633E+00 -8.90358877E-01 -2.72961272E-06
Force Field                                I                0
Int Atom Types                             I   N=          16
           0           0           0           0           0           0
           0           0           0           0           0           0
           0           0           0           0
MM charges                                 R   N=          16
  0.00000000E+00  0.00000000E+00  0.00000000E+00  0.00000000E+00  0.00000000E+00
  0.00000000E+00  0.00000000E+00  0.00000000E+00  0.00000000E+00  0.00000000E+00
  0.00000000E+00  0.00000000E+00  0.00000000E+00  0.00000000E+00  0.00000000E+00
  0.00000000E+00
Integer atomic weights                     I   N=          16
          16          12          12          12          12          12
           1           1           1           1           1           1
           1           1           1           1
Real atomic weights                        R   N=          16
  1.59949146E+01  1.20000000E+01  1.20000000E+01  1.20000000E+01  1.20000000E+01
  1.20000000E+01  1.00782504E+00  1.00782504E+00  1.00782504E+00  1.00782504E+00
  1.00782504E+00  1.00782504E+00  1.00782504E+00  1.00782504E+00  1.00782504E+00
  1.00782504E+00
Atom fragment info                         I   N=          16
           0           0           0           0           0           0
           0           0           0           0           0           0
           0           0           0           0
Atom residue num                           I   N=          16
           0           0           0           0           0           0
           0           0           0           0           0           0
           0           0           0           0
Nuclear spins                              I   N=          16
           0           0           0           0           0           0
           1           1           1           1           1           1
           1           1           1           1
Nuclear ZEff                               R   N=          16
 -5.60000000E+00 -3.60000000E+00 -3.60000000E+00 -3.60000000E+00 -3.60000000E+00
 -3.60000000E+00 -1.00000000E+00 -1.00000000E+00 -1.00000000E+00 -1.00000000E+00
 -1.00000000E+00 -1.00000000E+00 -1.00000000E+00 -1.00000000E+00 -1.00000000E+00
 -1.00000000E+00
Nuclear QMom                               R   N=          16
  0.00000000E+00  0.00000000E+00  0.00000000E+00  0.00000000E+00  0.00000000E+00
  0.00000000E+00  0.00000000E+00  0.00000000E+00  0.00000000E+00  0.00000000E+00
  0.00000000E+00  0.00000000E+00  0.00000000E+00  0.00000000E+00  0.00000000E+00
  0.00000000E+00
Nuclear GFac                               R   N=          16
  0.00000000E+00  0.00000000E+00  0.00000000E+00  0.00000000E+00  0.00000000E+00
  0.00000000E+00  2.79284600E+00  2.79284600E+00  2.79284600E+00  2.79284600E+00
  2.79284600E+00  2.79284600E+00  2.79284600E+00  2.79284600E+00  2.79284600E+00
  2.79284600E+00
MicOpt                                     I   N=          16
          -1          -1          -1          -1          -1          -1
          -1          -1          -1          -1          -1          -1
          -1          -1          -1          -1
Number of contracted shells                I               44
Number of primitive shells                 I              106
Pure/Cartesian d shells                    I                1
Pure/Cartesian f shells                    I                0
Highest angular momentum                   I                2
Largest degree of contraction              I                6
Shell types                                I   N=          44
           0          -1          -1           2           0          -1
          -1           2           0          -1          -1           2
           0          -1          -1           2           0          -1
          -1           2           0          -1          -1           2
           0           0           0           0           0           0
           0           0           0           0           0           0
           0           0           0           0           0           0
           0           0
Number of primitives per shell             I   N=          44
           6           3           1           1           6           3
           1           1           6           3           1           1
           6           3           1           1           6           3
           1           1           6           3           1           1
           3           1           3           1           3           1
           3           1           3           1           3           1
           3           1           3           1           3           1
           3           1
Shell to atom map                          I   N=          44
           1           1           1           1           2           2
           2           2           3           3           3           3
           4           4           4           4           5           5
           5           5           6           6           6           6
           7           7           8           8           9           9
          10          10          11          11          12          12
          13          13          14          14          15          15
          16          16
Primitive exponents                        R   N=         106
  5.48467166E+03  8.25234946E+02  1.88046958E+02  5.29645000E+01  1.68975704E+01
  5.79963534E+00  1.55396162E+01  3.59993359E+00  1.01376175E+00  2.70005823E-01
  8.00000000E-01  3.04752488E+03  4.57369518E+02  1.03948685E+02  2.92101553E+01
  9.28666296E+00  3.16392696E+00  7.86827235E+00  1.88128854E+00  5.44249258E-01
  1.68714478E-01  8.00000000E-01  3.04752488E+03  4.57369518E+02  1.03948685E+02
  2.92101553E+01  9.28666296E+00  3.16392696E+00  7.86827235E+00  1.88128854E+00
  5.44249258E-01  1.68714478E-01  8.00000000E-01  3.04752488E+03  4.57369518E+02
  1.03948685E+02  2.92101553E+01  9.28666296E+00  3.16392696E+00  7.86827235E+00
  1.88128854E+00  5.44249258E-01  1.68714478E-01  8.00000000E-01  3.04752488E+03
  4.57369518E+02  1.03948685E+02  2.92101553E+01  9.28666296E+00  3.16392696E+00
  7.86827235E+00  1.88128854E+00  5.44249258E-01  1.68714478E-01  8.00000000E-01
  3.04752488E+03  4.57369518E+02  1.03948685E+02  2.92101553E+01  9.28666296E+00
  3.16392696E+00  7.86827235E+00  1.88128854E+00  5.44249258E-01  1.68714478E-01
  8.00000000E-01  1.87311370E+01  2.82539436E+00  6.40121692E-01  1.61277759E-01
  1.87311370E+01  2.82539436E+00  6.40121692E-01  1.61277759E-01  1.87311370E+01
  2.82539436E+00  6.40121692E-01  1.61277759E-01  1.87311370E+01  2.82539436E+00
  6.40121692E-01  1.61277759E-01  1.87311370E+01  2.82539436E+00  6.40121692E-01
  1.61277759E-01  1.87311370E+01  2.82539436E+00  6.40121692E-01  1.61277759E-01
  1.87311370E+01  2.82539436E+00  6.40121692E-01  1.61277759E-01  1.87311370E+01
  2.82539436E+00  6.40121692E-01  1.61277759E-01  1.87311370E+01  2.82539436E+00
  6.40121692E-01  1.61277759E-01  1.87311370E+01  2.82539436E+00  6.40121692E-01
  1.61277759E-01
Contraction coefficients                   R   N=         106
  1.83107443E-03  1.39501722E-02  6.84450781E-02  2.32714336E-01  4.70192898E-01
  3.58520853E-01 -1.10777550E-01 -1.48026263E-01  1.13076702E+00  1.00000000E+00
  1.00000000E+00  1.83473713E-03  1.40373228E-02  6.88426223E-02  2.32184443E-01
  4.67941348E-01  3.62311985E-01 -1.19332420E-01 -1.60854152E-01  1.14345644E+00
  1.00000000E+00  1.00000000E+00  1.83473713E-03  1.40373228E-02  6.88426223E-02
  2.32184443E-01  4.67941348E-01  3.62311985E-01 -1.19332420E-01 -1.60854152E-01
  1.14345644E+00  1.00000000E+00  1.00000000E+00  1.83473713E-03  1.40373228E-02
  6.88426223E-02  2.32184443E-01  4.67941348E-01  3.62311985E-01 -1.19332420E-01
 -1.60854152E-01  1.14345644E+00  1.00000000E+00  1.00000000E+00  1.83473713E-03
  1.40373228E-02  6.88426223E-02  2.32184443E-01  4.67941348E-01  3.62311985E-01
 -1.19332420E-01 -1.60854152E-01  1.14345644E+00  1.00000000E+00  1.00000000E+00
  1.83473713E-03  1.40373228E-02  6.88426223E-02  2.32184443E-01  4.67941348E-01
  3.62311985E-01 -1.19332420E-01 -1.60854152E-01  1.14345644E+00  1.00000000E+00
  1.00000000E+00  3.34946043E-02  2.34726953E-01  8.13757326E-01  1.00000000E+00
  3.34946043E-02  2.34726953E-01  8.13757326E-01  1.00000000E+00  3.34946043E-02
  2.34726953E-01  8.13757326E-01  1.00000000E+00  3.34946043E-02  2.34726953E-01
  8.13757326E-01  1.00000000E+00  3.34946043E-02  2.34726953E-01  8.13757326E-01
  1.00000000E+00  3.34946043E-02  2.34726953E-01  8.13757326E-01  1.00000000E+00
  3.34946043E-02  2.34726953E-01  8.13757326E-01  1.00000000E+00  3.34946043E-02
  2.34726953E-01  8.13757326E-01  1.00000000E+00  3.34946043E-02  2.34726953E-01
  8.13757326E-01  1.00000000E+00  3.34946043E-02  2.34726953E-01  8.13757326E-01
  1.00000000E+00
P(S=P) Contraction coefficients            R   N=         106
  0.00000000E+00  0.00000000E+00  0.00000000E+00  0.00000000E+00  0.00000000E+00
  0.00000000E+00  7.08742682E-02  3.39752839E-01  7.27158577E-01  1.00000000E+00
  0.00000000E+00  0.00000000E+00  0.00000000E+00  0.00000000E+00  0.00000000E+00
  0.00000000E+00  0.00000000E+00  6.89990666E-02  3.16423961E-01  7.44308291E-01
  1.00000000E+00  0.00000000E+00  0.00000000E+00  0.00000000E+00  0.00000000E+00
  0.00000000E+00  0.00000000E+00  0.00000000E+00  6.89990666E-02  3.16423961E-01
  7.44308291E-01  1.00000000E+00  0.00000000E+00  0.00000000E+00  0.00000000E+00
  0.00000000E+00  0.00000000E+00  0.00000000E+00  0.00000000E+00  6.89990666E-02
  3.16423961E-01  7.44308291E-01  1.00000000E+00  0.00000000E+00  0.00000000E+00
  0.00000000E+00  0.00000000E+00  0.00000000E+00  0.00000000E+00  0.00000000E+00
  6.89990666E-02  3.16423961E-01  7.44308291E-01  1.00000000E+00  0.00000000E+00
  0.00000000E+00  0.00000000E+00  0.00000000E+00  0.00000000E+00  0.00000000E+00
  0.00000000E+00  6.89990666E-02  3.16423961E-01  7.44308291E-01  1.00000000E+00
  0.00000000E+00  0.00000000E+00  0.00000000E+00  0.00000000E+00  0.00000000E+00
  0.00000000E+00  0.00000000E+00  0.00000000E+00  0.00000000E+00  0.00000000E+00
  0.00000000E+00  0.00000000E+00  0.00000000E+00  0.00000000E+00  0.00000000E+00
  0.00000000E+00  0.00000000E+00  0.00000000E+00  0.00000000E+00  0.00000000E+00
  0.00000000E+00  0.00000000E+00  0.00000000E+00  0.00000000E+00  0.00000000E+00
  0.00000000E+00  0.00000000E+00  0.00000000E+00  0.00000000E+00  0.00000000E+00
  0.00000000E+00  0.00000000E+00  0.00000000E+00  0.00000000E+00  0.00000000E+00
  0.00000000E+00  0.00000000E+00  0.00000000E+00  0.00000000E+00  0.00000000E+00
  0.00000000E+00
Coordinates of each shell                  R   N=         132
  1.47165196E-07  2.42755733E+00 -4.48010539E-06  1.47165196E-07  2.42755733E+00
 -4.48010539E-06  1.47165196E-07  2.42755733E+00 -4.48010539E-06  1.47165196E-07
  2.42755733E+00 -4.48010539E-06 -2.44398588E+00 -1.39817121E+00  1.70123848E-06
 -2.44398588E+00 -1.39817121E+00  1.70123848E-06 -2.44398588E+00 -1.39817121E+00
  1.70123848E-06 -2.44398588E+00 -1.39817121E+00  1.70123848E-06  2.44398572E+00
 -1.39817124E+00 -5.59054082E-06  2.44398572E+00 -1.39817124E+00 -5.59054082E-06
  2.44398572E+00 -1.39817124E+00 -5.59054082E-06  2.44398572E+00 -1.39817124E+00
 -5.59054082E-06  6.61026497E-19  1.05069643E-01 -2.36414073E-06  6.61026497E-19
  1.05069643E-01 -2.36414073E-06  6.61026497E-19  1.05069643E-01 -2.36414073E-06
  6.61026497E-19  1.05069643E-01 -2.36414073E-06 -4.78967812E+00  2.65948491E-01
  3.03594459E-06 -4.78967812E+00  2.65948491E-01  3.03594459E-06 -4.78967812E+00
  2.65948491E-01  3.03594459E-06 -4.78967812E+00  2.65948491E-01  3.03594459E-06
  4.78967814E+00  2.65948362E-01  6.35920813E-06  4.78967814E+00  2.65948362E-01
  6.35920813E-06  4.78967814E+00  2.65948362E-01  6.35920813E-06  4.78967814E+00
  2.65948362E-01  6.35920813E-06 -2.42026967E+00 -2.65676892E+00  1.65010681E+00
 -2.42026967E+00 -2.65676892E+00  1.65010681E+00 -2.42027344E+00 -2.65676916E+00
 -1.65010331E+00 -2.42027344E+00 -2.65676916E+00 -1.65010331E+00  2.42027343E+00
 -2.65676020E+00 -1.65011764E+00  2.42027343E+00 -2.65676020E+00 -1.65011764E+00
  2.42026903E+00 -2.65677797E+00  1.65009246E+00  2.42026903E+00 -2.65677797E+00
  1.65009246E+00 -6.50152633E+00 -8.90358709E-01  1.09506593E-05 -6.50152633E+00
 -8.90358709E-01  1.09506593E-05 -4.81805519E+00  1.48590229E+00  1.66341712E+00
 -4.81805519E+00  1.48590229E+00  1.66341712E+00 -4.81806474E+00  1.48589325E+00
 -1.66341761E+00 -4.81806474E+00  1.48589325E+00 -1.66341761E+00  4.81806117E+00
  1.48588541E+00  1.66343281E+00  4.81806117E+00  1.48588541E+00  1.66343281E+00
  4.81805908E+00  1.48590993E+00 -1.66340186E+00  4.81805908E+00  1.48590993E+00
 -1.66340186E+00  6.50152633E+00 -8.90358877E-01 -2.72961272E-06  6.50152633E+00
 -8.90358877E-01 -2.72961272E-06
Constraint Structure                       R   N=          48
  1.47165196E-07  2.42755733E+00 -4.48010539E-06 -2.44398588E+00 -1.39817121E+00
  1.70123848E-06  2.44398572E+00 -1.39817124E+00 -5.59054082E-06  6.61026497E-19
  1.05069643E-01 -2.36414073E-06 -4.78967812E+00  2.65948491E-01  3.03594459E-06
  4.78967814E+00  2.65948362E-01  6.35920813E-06 -2.42026967E+00 -2.65676892E+00
  1.65010681E+00 -2.42027344E+00 -2.65676916E+00 -1.65010331E+00  2.42027343E+00
 -2.65676020E+00 -1.65011764E+00  2.42026903E+00 -2.65677797E+00  1.65009246E+00
 -6.50152633E+00 -8.90358709E-01  1.09506593E-05 -4.81805519E+00  1.48590229E+00
  1.66341712E+00 -4.81806474E+00  1.48589325E+00 -1.66341761E+00  4.81806117E+00
  1.48588541E+00  1.66343281E+00  4.81805908E+00  1.48590993E+00 -1.66340186E+00
  6.50152633E+00 -8.90358877E-01 -2.72961272E-06
Num ILSW                                   I              100
ILSW                                       I   N=         100
           0           1           0           0           2           0
           0           0           0           0           0          -1
           0           0           0           0           0           0
           0           0           0           0           1           0
           1           0           0           0           0           0
           0           0      100000           0          -1           0
           0           0           0           0           0           0
           0           0           0           1           1           0
           0           0           1           0           0           0
           0           0           4          40           0           0
           0           0           0           0           0           0
           0           0           0           0           0           0
           0           0           0           0           0           0
           0           0           0           0           0           0
           0           0           0           0           0           0
           0           0           0           0           0           0
           0           0           0           0
Num RLSW                                   I               40
RLSW                                       R   N=          40
  1.00000000E+00  1.00000000E+00  1.00000000E+00  1.00000000E+00  1.00000000E+00
  0.00000000E+00  0.00000000E+00  1.00000000E+00  0.00000000E+00  0.00000000E+00
  0.00000000E+00  0.00000000E+00  1.00000000E+00  0.00000000E+00  0.00000000E+00
  0.00000000E+00  0.00000000E+00  1.00000000E+00  0.00000000E+00  0.00000000E+00
  0.00000000E+00  0.00000000E+00  1.00000000E+00  0.00000000E+00  0.00000000E+00
  0.00000000E+00  0.00000000E+00  1.00000000E+00  0.00000000E+00  0.00000000E+00
  0.00000000E+00  0.00000000E+00  0.00000000E+00  0.00000000E+00  0.00000000E+00
  0.00000000E+00  0.00000000E+00  0.00000000E+00  1.00000000E+00  1.00000000E+00
MxBond                                     I                4
NBond                                      I   N=          16
           1           4           4           3           4           4
           1           1           1           1           1           1
           1           1           1           1
IBond                                      I   N=          64
           4           0           0           0           4           5
           7           8           4           6           9          10
           1           2           3           0           2          11
          12          13           3          14          15          16
           2           0           0           0           2           0
           0           0           3           0           0           0
           3           0           0           0           5           0
           0           0           5           0           0           0
           5           0           0           0           6           0
           0           0           6           0           0           0
           6           0           0           0
RBond                                      R   N=          64
  2.00000000E+00  0.00000000E+00  0.00000000E+00  0.00000000E+00  1.00000000E+00
  1.00000000E+00  1.00000000E+00  1.00000000E+00  1.00000000E+00  1.00000000E+00
  1.00000000E+00  1.00000000E+00  2.00000000E+00  1.00000000E+00  1.00000000E+00
  0.00000000E+00  1.00000000E+00  1.00000000E+00  1.00000000E+00  1.00000000E+00
  1.00000000E+00  1.00000000E+00  1.00000000E+00  1.00000000E+00  1.00000000E+00
  0.00000000E+00  0.00000000E+00  0.00000000E+00  1.00000000E+00  0.00000000E+00
  0.00000000E+00  0.00000000E+00  1.00000000E+00  0.00000000E+00  0.00000000E+00
  0.00000000E+00  1.00000000E+00  0.00000000E+00  0.00000000E+00  0.00000000E+00
  1.00000000E+00  0.00000000E+00  0.00000000E+00  0.00000000E+00  1.00000000E+00
  0.00000000E+00  0.00000000E+00  0.00000000E+00  1.00000000E+00  0.00000000E+00
  0.00000000E+00  0.00000000E+00  1.00000000E+00  0.00000000E+00  0.00000000E+00
  0.00000000E+00  1.00000000E+00  0.00000000E+00  0.00000000E+00  0.00000000E+00
  1.00000000E+00  0.00000000E+00  0.00000000E+00  0.00000000E+00
Virial Ratio                               R      2.002036596113400E+00
SCF Energy                                 R     -2.700308332966528E+02
MP2 Energy                                 R     -2.708575138830106E+02
Total Energy                               R     -2.708575138830106E+02
Post-SCF wavefunction norm                 R      1.593555262569146E+00
RMS Force                                  R      2.070164682385860E-07
RMS Density                                R      2.310793648538015E-09
External E-field                           R   N=          35
  0.00000000E+00  0.00000000E+00  0.00000000E+00  0.00000000E+00  0.00000000E+00
  0.00000000E+00  0.00000000E+00  0.00000000E+00  0.00000000E+00  0.00000000E+00
  0.00000000E+00  0.00000000E+00  0.00000000E+00  0.00000000E+00  0.00000000E+00
  0.00000000E+00  0.00000000E+00  0.00000000E+00  0.00000000E+00  0.00000000E+00
  0.00000000E+00  0.00000000E+00  0.00000000E+00  0.00000000E+00  0.00000000E+00
  0.00000000E+00  0.00000000E+00  0.00000000E+00  0.00000000E+00  0.00000000E+00
  0.00000000E+00  0.00000000E+00  0.00000000E+00  0.00000000E+00  0.00000000E+00
IOpCl                                      I                0
IROHF                                      I                0
Alpha Orbital Energies                     R   N=         110
 -2.05515861E+01 -1.13299130E+01 -1.12395439E+01 -1.12395184E+01 -1.12168697E+01
 -1.12168687E+01 -1.37275329E+00 -1.06920735E+00 -1.03632385E+00 -9.14917840E-01
 -8.42888954E-01 -7.24391618E-01 -6.62605354E-01 -6.45173313E-01 -6.09655996E-01
 -6.06667058E-01 -5.60448074E-01 -5.19753210E-01 -5.19458829E-01 -5.08504451E-01
 -5.04510112E-01 -4.90347497E-01 -4.75236922E-01 -4.04780777E-01  1.59331977E-01
  2.17284581E-01  2.60964019E-01  2.74764105E-01  2.90402991E-01  3.13718640E-01
  3.21219081E-01  3.22764533E-01  3.36734363E-01  3.38094456E-01  3.57647319E-01
  3.65578159E-01  4.17217939E-01  4.44249347E-01  4.86248857E-01  5.13624510E-01
  6.82802718E-01  7.35862040E-01  7.44790452E-01  7.72401364E-01  7.75954598E-01
  8.03148913E-01  8.18044138E-01  8.89683832E-01  8.90693579E-01  9.33541618E-01
  9.43646444E-01  1.00223484E+00  1.04220315E+00  1.07918616E+00  1.08137421E+00
  1.10374924E+00  1.12426223E+00  1.13264918E+00  1.15818432E+00  1.17929629E+00
  1.18025467E+00  1.18637080E+00  1.20343956E+00  1.20370677E+00  1.23280669E+00
  1.25022800E+00  1.25509819E+00  1.28873199E+00  1.36665983E+00  1.39362792E+00
  1.63898229E+00  1.64592399E+00  1.67457212E+00  1.75688182E+00  1.76425616E+00
  1.91477479E+00  1.93617585E+00  2.03796096E+00  2.07034170E+00  2.09929679E+00
  2.10477830E+00  2.11921028E+00  2.19905466E+00  2.22183042E+00  2.26931775E+00
  2.28876105E+00  2.30551688E+00  2.33367714E+00  2.44085212E+00  2.44744885E+00
  2.60063223E+00  2.60415401E+00  2.63321462E+00  2.64456619E+00  2.67008740E+00
  2.70054705E+00  2.74954022E+00  2.79551870E+00  2.89599824E+00  2.94660153E+00
  2.98785195E+00  3.17732274E+00  3.34997292E+00  3.38750109E+00  4.37725331E+00
  4.52527902E+00  4.63966018E+00  4.75317293E+00  4.85204680E+00  4.94785752E+00
Alpha MO coefficients                      R   N=       12100
  9.94696985E-01  2.09234241E-02 -1.23251597E-10 -1.48519669E-03  1.31841487E-09
  4.52336515E-03  3.15117527E-11  3.88740729E-05  4.58952225E-11 -3.88217951E-03
 -3.63615018E-03 -4.18351069E-03  5.73100958E-12 -1.93568931E-11 -6.28634462E-10
 -5.29195515E-06 -1.01985402E-05 -1.04145571E-05 -2.49952809E-05  5.31861922E-11
  2.91679820E-05 -1.33698671E-04  4.34265840E-05 -1.66754222E-10  1.74239355E-05
 -5.06779600E-05 -2.78609317E-05 -3.08134808E-05 -1.01211966E-11  8.25133143E-11
 -5.29196068E-06 -1.01985537E-05  1.04145635E-05 -2.49952938E-05  4.72851401E-11
  2.91681364E-05  1.33698686E-04  4.34266298E-05  2.00092818E-10  1.74239185E-05
 -5.06779764E-05 -2.78609479E-05  3.08134926E-05 -1.66719168E-11  3.68977077E-11
 -5.04294401E-06  4.59987317E-04 -3.26073623E-12 -2.78822180E-05  5.16824783E-12
 -2.19625323E-04 -7.06399461E-11 -5.71273195E-04  4.53913710E-10 -5.87885998E-05
 -7.28135531E-04 -4.53102893E-05 -5.71197354E-11 -6.30085084E-11  7.23946301E-10
  2.80261153E-06  2.20468518E-05  1.03361522E-05  1.51728209E-05 -1.35387833E-10
 -6.95262366E-05 -1.12129836E-04  2.51502798E-08  7.94973197E-10 -2.34404707E-06
 -9.87390710E-06  4.70330432E-07  7.66343981E-06 -1.99459929E-11 -4.14684502E-12
  2.80261291E-06  2.20468699E-05 -1.03361488E-05  1.51728239E-05  2.78384839E-10
 -6.95262990E-05  1.12129890E-04  2.51490873E-08 -9.84614417E-10 -2.34405854E-06
 -9.87390790E-06  4.70329880E-07 -7.66343990E-06 -1.53288996E-10 -7.00122404E-11
  4.38857614E-06 -2.42087923E-05  4.38842811E-06 -2.42088216E-05  4.38854971E-06
 -2.42089865E-05  4.38844563E-06 -2.42086492E-05 -4.59239902E-06 -4.99258545E-05
  2.60799476E-05 -3.48040245E-05  2.60798691E-05 -3.48030333E-05  2.60797479E-05
 -3.48021999E-05  2.60800831E-05 -3.48048730E-05 -4.59239766E-06 -4.99258665E-05
 -2.40297833E-04  7.34955830E-04 -2.96731845E-12 -2.54300850E-04  2.76176077E-10
 -3.66516730E-03  4.95756004E-11  1.94053307E-03 -1.84217191E-09  2.61227255E-04
 -9.21603381E-05  5.28342714E-04 -8.83144519E-12  2.97999681E-10  6.97772492E-10
  3.34288207E-03  2.71366705E-04 -5.03622452E-05 -1.13757309E-04 -1.06831708E-10
  3.03276672E-03  2.14390402E-03  4.29825732E-04 -8.66245275E-10 -3.65250895E-04
 -3.49607590E-04 -4.70832591E-05 -2.19071783E-04  5.79551835E-10  3.03263088E-10
  3.34288281E-03  2.71366717E-04  5.03623138E-05 -1.13757362E-04 -1.41868484E-09
  3.03276628E-03 -2.14390412E-03  4.29825686E-04  1.22926179E-08 -3.65250831E-04
 -3.49607591E-04 -4.70832466E-05  2.19071762E-04 -1.86038731E-11 -9.66123541E-10
  9.95857209E-01  2.66231088E-02  5.09394447E-11  6.04220658E-04 -8.86112709E-10
 -9.32585298E-03  4.07385417E-10  4.64524150E-03 -4.84245469E-09 -1.64264967E-03
 -6.29229491E-04 -2.24574497E-03  3.26037445E-11 -1.16433689E-09 -1.52239456E-09
 -4.21028455E-05 -9.75861666E-05 -4.28898069E-05  2.62402801E-06  3.19630878E-10
  3.47458782E-04  1.33595749E-04 -3.37874699E-04 -1.78646404E-09  1.45830658E-05
  4.71689584E-05 -4.44818977E-05 -1.04697295E-05 -2.04383719E-10 -1.44577644E-10
 -4.21028562E-05 -9.75861973E-05  4.28897909E-05  2.62401739E-06 -8.89239576E-11
  3.47459131E-04 -1.33595830E-04 -3.37874760E-04 -4.87410770E-09  1.45830584E-05
  4.71689443E-05 -4.44819091E-05  1.04697444E-05  5.97794258E-10  8.58372700E-10
 -1.23389138E-04  1.80819166E-04 -1.23387988E-04  1.80819262E-04 -1.23388136E-04
  1.80826595E-04 -1.23388884E-04  1.80811966E-04 -3.17129891E-05  5.76875596E-05
 -3.08596975E-05  9.19771303E-05 -3.08596880E-05  9.19746171E-05 -3.08597007E-05
  9.19771105E-05 -3.08596860E-05  9.19745442E-05 -3.17130058E-05  5.76875037E-05
  6.26936565E-10 -7.95459152E-09  8.04114067E-06  3.13501204E-09 -1.95817218E-10
 -2.74737446E-08  6.79603263E-04 -5.47964421E-09 -1.97168659E-10  5.36823723E-09
  1.30500084E-08 -1.24747618E-08 -1.06146723E-04  4.16867000E-10  5.55690848E-12
  7.04207132E-01  2.05650563E-02  1.74751331E-04 -5.72463543E-05 -4.95345911E-10
 -1.39083673E-02 -9.04489758E-04 -7.78636882E-04  2.74826134E-09 -1.11094689E-03
 -1.18197156E-03 -1.05787929E-03 -5.55565969E-05  3.41337707E-10 -2.40552009E-11
 -7.04072743E-01 -2.05611944E-02  1.74739238E-04  5.72528059E-05  1.37592491E-09
  1.39060110E-02 -9.04469210E-04  7.78450720E-04 -3.96207633E-09  1.11071782E-03
  1.18174104E-03  1.05765311E-03 -5.55559991E-05 -3.34395912E-10  2.87776077E-10
 -4.90992418E-07 -4.25113210E-09  2.93815159E-05 -7.78805636E-09 -6.73482917E-11
  6.07171298E-07 -4.56085796E-03 -1.23894539E-07  6.23236851E-09 -5.15968801E-08
 -4.21638548E-08 -2.00510775E-08 -2.78335704E-04  2.45496337E-10  4.25159502E-10
  9.37409483E-03  3.92812692E-04  9.46083485E-05 -7.73535437E-06 -2.66664080E-10
  2.40426482E-03  7.66310941E-04 -8.14218474E-04  6.96185717E-10 -2.53004098E-04
 -1.75271694E-04 -3.72357453E-05  1.40743847E-04  1.15062772E-10 -7.35757921E-11
 -9.37230950E-03 -3.92771915E-04  9.45983813E-05  7.73275592E-06  1.03081356E-10
 -2.40364564E-03  7.66050977E-04  8.14071555E-04  7.36155223E-09  2.52956836E-04
  1.75225992E-04  3.72162393E-05  1.40719367E-04  9.89093074E-10  8.02676263E-10
  2.27411862E-04  2.14507166E-03  2.27412638E-04  2.14507018E-03 -2.27384519E-04
 -2.14474776E-03 -2.27384206E-04 -2.14474179E-03 -8.99712410E-05 -2.24097244E-04
 -8.51431630E-05  8.66793715E-05 -8.51433078E-05  8.66805042E-05  8.51168081E-05
 -8.66769566E-05  8.51167026E-05 -8.66751371E-05  8.99520839E-05  2.24095838E-04
  6.60121141E-06 -8.34239927E-05 -7.61650354E-10  3.28838832E-05  3.66196590E-10
 -2.89396847E-04 -6.47901745E-08 -5.68639134E-05 -1.34958404E-09  5.66386747E-05
  1.36756242E-04 -1.30741141E-04  1.00890141E-08 -5.65914111E-10 -5.38995382E-11
  7.04006781E-01  2.02313886E-02  6.37635605E-05  3.36239362E-05 -8.48450353E-10
 -1.23448883E-02 -1.09784134E-04 -9.75523525E-04  3.92559813E-09 -1.19989710E-03
 -1.20781890E-03 -1.18502932E-03 -2.74837834E-06 -7.40728717E-11 -1.97466482E-10
  7.04141182E-01  2.02353136E-02 -6.37969670E-05  3.36129944E-05 -5.06827631E-10
 -1.23475428E-02  1.09957040E-04 -9.75671974E-04 -4.35320855E-09 -1.20010914E-03
 -1.20804448E-03 -1.18523125E-03  2.75890227E-06 -1.84187459E-10 -7.52996408E-10
 -5.15046764E-03 -4.53188563E-05 -2.85367530E-09 -8.15877108E-05  1.49395060E-10
  6.36876883E-03  4.35256734E-07 -1.29948236E-03  1.57332066E-09 -5.40412292E-04
 -4.41830437E-04 -2.10070016E-04  2.65399664E-08  8.15500481E-10  6.94349904E-12