
    -----------------------------------------------------------------------
          Psi4: An Open-Source Ab Initio Electronic Structure Package
                               Psi4 1.3.2 release

                         Git: Rev {HEAD} ecbda83 


    R. M. Parrish, L. A. Burns, D. G. A. Smith, A. C. Simmonett,
    A. E. DePrince III, E. G. Hohenstein, U. Bozkaya, A. Yu. Sokolov,
    R. Di Remigio, R. M. Richard, J. F. Gonthier, A. M. James,
    H. R. McAlexander, A. Kumar, M. Saitow, X. Wang, B. P. Pritchard,
    P. Verma, H. F. Schaefer III, K. Patkowski, R. A. King, E. F. Valeev,
    F. A. Evangelista, J. M. Turney, T. D. Crawford, and C. D. Sherrill,
    J. Chem. Theory Comput. 13(7) pp 3185--3197 (2017).
    (doi: 10.1021/acs.jctc.7b00174)


                         Additional Contributions by
    P. Kraus, H. Kruse, M. H. Lechner, M. C. Schieber, R. A. Shaw,
    A. Alenaizan, R. Galvelis, Z. L. Glick, S. Lehtola, and J. P. Misiewicz

    -----------------------------------------------------------------------


    Psi4 started on: Tuesday, 03 November 2020 03:47PM

    Process ID: 74081
    Host:       node57.bme.utexas.edu
    PSIDATADIR: /home/xy3866/psi4conda/share/psi4
    Memory:     500.0 MiB
    Threads:    8
    
  ==> Input File <==

--------------------------------------------------------------------------
#psi4
#
memory 32 gb

molecule  {
0 1
  O       -2.8968130    -0.3474360    -0.2563530
  O       -0.5825960    -1.5131530     0.0834280
  N        0.6646380     0.3451110    -0.3514860
  C        1.9521820    -0.3066060    -0.1296730
  C       -1.7875910     0.5207530    -0.3412920
  C        2.3087340    -0.3110910     1.3526080
  C        3.0072020     0.3769410    -0.9846900
  C       -0.4973778    -0.1093235    -0.2238634
  C       -1.8991130     1.5929580     0.7362800
  H        1.8182130    -1.3395260    -0.4626630
  H        0.6508110     1.3528600    -0.4628320
  H       -1.7688680     0.9937940    -1.3356380
  H        2.4085440     0.7136460     1.7243230
  H        1.5276200    -0.8195050     1.9221530
  H        3.2560570    -0.8319740     1.5215790
  H        3.1304270     1.4235350    -0.6835410
  H        2.7315590     0.3479870    -2.0412990
  H        3.9738610    -0.1182480    -0.8633910
  H       -1.8420940     1.1254490     1.7220580
  H       -2.8670940     2.0889060     0.6442650
  H       -1.1140830     2.3514110     0.6543310
  H       -2.4990480    -1.2315890    -0.0938460
units angstrom
no_reorient  #important for SAPT in psi4, default
symmetry c1  #important for SAPT in psi4, default
}

set PROPERTIES_ORIGIN ["COM"]
properties('MP2/aug-cc-pvtz', properties = ['dipole'])
--------------------------------------------------------------------------

  Memory set to  29.802 GiB by Python driver.
    SCF Algorithm Type (re)set to DF.

*** tstart() called on node57.bme.utexas.edu
*** at Tue Nov  3 15:47:28 2020

   => Loading Basis Set <=

    Name: AUG-CC-PVTZ
    Role: ORBITAL
    Keyword: BASIS
    atoms 1-2   entry O          line   327 file /home/xy3866/psi4conda/share/psi4/basis/aug-cc-pvtz.gbs 
    atoms 3     entry N          line   281 file /home/xy3866/psi4conda/share/psi4/basis/aug-cc-pvtz.gbs 
    atoms 4-9   entry C          line   235 file /home/xy3866/psi4conda/share/psi4/basis/aug-cc-pvtz.gbs 
    atoms 10-22 entry H          line    36 file /home/xy3866/psi4conda/share/psi4/basis/aug-cc-pvtz.gbs 


         ---------------------------------------------------------
                                   SCF
               by Justin Turney, Rob Parrish, Andy Simmonett
                          and Daniel G. A. Smith
                              RHF Reference
                        8 Threads,  30517 MiB Core
         ---------------------------------------------------------

  ==> Geometry <==

    Molecular point group: c1
    Full point group: C1

    Geometry (in Angstrom), charge = 0, multiplicity = 1:

       Center              X                  Y                   Z               Mass       
    ------------   -----------------  -----------------  -----------------  -----------------
         O           -2.897896691451    -0.365288530894    -0.252445137540    15.994914619570
         O           -0.583679691451    -1.531005530894     0.087335862460    15.994914619570
         N            0.663554308549     0.327258469106    -0.347578137540    14.003074004430
         C            1.951098308549    -0.324458530894    -0.125765137540    12.000000000000
         C           -1.788674691451     0.502900469106    -0.337384137540    12.000000000000
         C            2.307650308549    -0.328943530894     1.356515862460    12.000000000000
         C            3.006118308549     0.359088469106    -0.980782137540    12.000000000000
         C           -0.498461491451    -0.127176030894    -0.219955537540    12.000000000000
         C           -1.900196691451     1.575105469106     0.740187862460    12.000000000000
         H            1.817129308549    -1.357378530894    -0.458755137540     1.007825032230
         H            0.649727308549     1.335007469106    -0.458924137540     1.007825032230
         H           -1.769951691451     0.975941469106    -1.331730137540     1.007825032230
         H            2.407460308549     0.695793469106     1.728230862460     1.007825032230
         H            1.526536308549    -0.837357530894     1.926060862460     1.007825032230
         H            3.254973308549    -0.849826530894     1.525486862460     1.007825032230
         H            3.129343308549     1.405682469106    -0.679633137540     1.007825032230
         H            2.730475308549     0.330134469106    -2.037391137540     1.007825032230
         H            3.972777308549    -0.136100530894    -0.859483137540     1.007825032230
         H           -1.843177691451     1.107596469106     1.725965862460     1.007825032230
         H           -2.868177691451     2.071053469106     0.648172862460     1.007825032230
         H           -1.115166691451     2.333558469106     0.658238862460     1.007825032230
         H           -2.500131691451    -1.249441530894    -0.089938137540     1.007825032230

  Running in c1 symmetry.

  Rotational constants: A =      0.10287  B =      0.02838  C =      0.02690 [cm^-1]
  Rotational constants: A =   3084.08910  B =    850.75523  C =    806.54366 [MHz]
  Nuclear repulsion =  485.122387414681668

  Charge       = 0
  Multiplicity = 1
  Electrons    = 72
  Nalpha       = 36
  Nbeta        = 36

  ==> Algorithm <==

  SCF Algorithm Type is DF.
  DIIS enabled.
  MOM disabled.
  Fractional occupation disabled.
  Guess Type is SAD.
  Energy threshold   = 1.00e-10
  Density threshold  = 1.00e-10
  Integral threshold = 0.00e+00

  ==> Primary Basis <==

  Basis Set: AUG-CC-PVTZ
    Blend: AUG-CC-PVTZ
    Number of shells: 243
    Number of basis function: 713
    Number of Cartesian functions: 820
    Spherical Harmonics?: true
    Max angular momentum: 3

   => Loading Basis Set <=

    Name: (AUG-CC-PVTZ AUX)
    Role: JKFIT
    Keyword: DF_BASIS_SCF
    atoms 1-2   entry O          line   286 file /home/xy3866/psi4conda/share/psi4/basis/aug-cc-pvtz-jkfit.gbs 
    atoms 3     entry N          line   224 file /home/xy3866/psi4conda/share/psi4/basis/aug-cc-pvtz-jkfit.gbs 
    atoms 4-9   entry C          line   162 file /home/xy3866/psi4conda/share/psi4/basis/aug-cc-pvtz-jkfit.gbs 
    atoms 10-22 entry H          line    70 file /home/xy3866/psi4conda/share/psi4/basis/aug-cc-pvtz-jkfit.gbs 

  ==> Pre-Iterations <==

   -------------------------------------------------------
    Irrep   Nso     Nmo     Nalpha   Nbeta   Ndocc  Nsocc
   -------------------------------------------------------
     A        713     713       0       0       0       0
   -------------------------------------------------------
    Total     713     713      36      36      36       0
   -------------------------------------------------------

  ==> Integral Setup <==

  DFHelper Memory: AOs need 5.579 GiB; user supplied 22.352 GiB. Using in-core AOs.

  ==> MemDFJK: Density-Fitted J/K Matrices <==

    J tasked:                   Yes
    K tasked:                   Yes
    wK tasked:                   No
    OpenMP threads:               8
    Memory [MiB]:             22888
    Algorithm:                 Disk
    Schwarz Cutoff:           1E-12
    Mask sparsity (%):       6.5681
    Fitting Condition:        1E-10

   => Auxiliary Basis Set <=

  Basis Set: (AUG-CC-PVTZ AUX)
    Blend: AUG-CC-PVTZ-JKFIT
    Number of shells: 452
    Number of basis function: 1534
    Number of Cartesian functions: 1894
    Spherical Harmonics?: true
    Max angular momentum: 4

  Minimum eigenvalue in the overlap matrix is 2.3748663657E-06.
  Using Symmetric Orthogonalization.

  SCF Guess: Superposition of Atomic Densities via on-the-fly atomic UHF.

  ==> Iterations <==

                           Total Energy        Delta E     RMS |[F,P]|

   @DF-RHF iter SAD:  -438.29296112964818   -4.38293e+02   0.00000e+00 
   @DF-RHF iter   1:  -438.69863622627616   -4.05675e-01   1.17486e-03 DIIS
   @DF-RHF iter   2:  -438.96742051968317   -2.68784e-01   7.23969e-04 DIIS
   @DF-RHF iter   3:  -439.06426476092599   -9.68442e-02   1.76520e-04 DIIS
   @DF-RHF iter   4:  -439.07181444674802   -7.54969e-03   6.52284e-05 DIIS
   @DF-RHF iter   5:  -439.07318472469569   -1.37028e-03   1.43621e-05 DIIS
   @DF-RHF iter   6:  -439.07326297029067   -7.82456e-05   5.73784e-06 DIIS
   @DF-RHF iter   7:  -439.07327898843511   -1.60181e-05   1.88981e-06 DIIS
   @DF-RHF iter   8:  -439.07328181307355   -2.82464e-06   7.37620e-07 DIIS
   @DF-RHF iter   9:  -439.07328230339482   -4.90321e-07   2.83851e-07 DIIS
   @DF-RHF iter  10:  -439.07328237569885   -7.23040e-08   1.13957e-07 DIIS
   @DF-RHF iter  11:  -439.07328238870673   -1.30079e-08   3.99505e-08 DIIS
   @DF-RHF iter  12:  -439.07328239023411   -1.52738e-09   1.57288e-08 DIIS
   @DF-RHF iter  13:  -439.07328239040959   -1.75476e-10   4.68294e-09 DIIS
   @DF-RHF iter  14:  -439.07328239042448   -1.48930e-11   1.58629e-09 DIIS
   @DF-RHF iter  15:  -439.07328239042704   -2.55795e-12   3.98559e-10 DIIS
   @DF-RHF iter  16:  -439.07328239042522    1.81899e-12   1.42970e-10 DIIS
   @DF-RHF iter  17:  -439.07328239042420    1.02318e-12   5.52594e-11 DIIS
  Energy and wave function converged.


  ==> Post-Iterations <==

    Orbital Energies [Eh]
    ---------------------

    Doubly Occupied:                                                      

       1A    -20.547844     2A    -20.492386     3A    -15.624956  
       4A    -11.357263     5A    -11.301950     6A    -11.290786  
       7A    -11.241339     8A    -11.236196     9A    -11.228944  
      10A     -1.369262    11A     -1.335373    12A     -1.208628  
      13A     -1.095307    14A     -1.043208    15A     -0.957489  
      16A     -0.914876    17A     -0.846707    18A     -0.809967  
      19A     -0.741497    20A     -0.685583    21A     -0.659832  
      22A     -0.639080    23A     -0.618959    24A     -0.589912  
      25A     -0.574252    26A     -0.563343    27A     -0.558330  
      28A     -0.553041    29A     -0.543227    30A     -0.531356  
      31A     -0.504042    32A     -0.488145    33A     -0.478749  
      34A     -0.442505    35A     -0.407409    36A     -0.386402  

    Virtual:                                                              

      37A      0.018156    38A      0.029267    39A      0.031608  
      40A      0.039281    41A      0.046013    42A      0.048519  
      43A      0.053045    44A      0.057460    45A      0.060012  
      46A      0.066587    47A      0.074363    48A      0.076482  
      49A      0.081922    50A      0.103722    51A      0.107572  
      52A      0.110111    53A      0.114436    54A      0.115326  
      55A      0.120121    56A      0.124413    57A      0.128950  
      58A      0.133407    59A      0.137726    60A      0.141136  
      61A      0.143891    62A      0.148928    63A      0.152774  
      64A      0.153363    65A      0.156525    66A      0.161303  
      67A      0.167911    68A      0.171449    69A      0.176747  
      70A      0.182878    71A      0.190912    72A      0.198360  
      73A      0.204778    74A      0.220315    75A      0.224741  
      76A      0.228205    77A      0.232769    78A      0.235884  
      79A      0.242881    80A      0.253194    81A      0.255450  
      82A      0.261621    83A      0.267799    84A      0.272603  
      85A      0.276030    86A      0.276794    87A      0.284716  
      88A      0.291317    89A      0.298688    90A      0.300746  
      91A      0.312817    92A      0.317441    93A      0.318646  
      94A      0.321481    95A      0.325731    96A      0.331188  
      97A      0.338285    98A      0.340934    99A      0.344231  
     100A      0.348850   101A      0.354154   102A      0.359542  
     103A      0.361945   104A      0.366718   105A      0.371147  
     106A      0.376196   107A      0.378917   108A      0.379846  
     109A      0.381492   110A      0.387252   111A      0.391925  
     112A      0.401301   113A      0.403384   114A      0.404030  
     115A      0.411803   116A      0.415665   117A      0.423687  
     118A      0.432002   119A      0.432641   120A      0.434630  
     121A      0.443458   122A      0.448102   123A      0.453394  
     124A      0.458109   125A      0.462160   126A      0.464609  
     127A      0.467173   128A      0.473643   129A      0.476912  
     130A      0.479394   131A      0.481877   132A      0.486330  
     133A      0.488380   134A      0.492795   135A      0.497732  
     136A      0.503041   137A      0.507463   138A      0.509594  
     139A      0.520826   140A      0.524651   141A      0.524929  
     142A      0.533694   143A      0.539603   144A      0.540693  
     145A      0.546975   146A      0.558694   147A      0.562806  
     148A      0.565502   149A      0.569308   150A      0.575095  
     151A      0.580012   152A      0.582470   153A      0.591049  
     154A      0.595423   155A      0.603621   156A      0.608188  
     157A      0.612738   158A      0.619619   159A      0.626572  
     160A      0.630254   161A      0.638358   162A      0.639694  
     163A      0.646775   164A      0.656871   165A      0.660737  
     166A      0.666947   167A      0.676258   168A      0.688127  
     169A      0.691121   170A      0.697228   171A      0.709057  
     172A      0.712612   173A      0.722698   174A      0.730137  
     175A      0.742832   176A      0.751263   177A      0.761571  
     178A      0.770825   179A      0.775335   180A      0.780479  
     181A      0.783454   182A      0.792200   183A      0.793785  
     184A      0.802925   185A      0.806099   186A      0.816418  
     187A      0.820060   188A      0.829205   189A      0.833744  
     190A      0.838218   191A      0.850596   192A      0.858142  
     193A      0.863669   194A      0.864500   195A      0.876489  
     196A      0.879812   197A      0.887290   198A      0.895843  
     199A      0.900148   200A      0.902530   201A      0.909435  
     202A      0.912614   203A      0.922772   204A      0.927747  
     205A      0.937624   206A      0.939432   207A      0.943198  
     208A      0.947498   209A      0.951876   210A      0.958146  
     211A      0.961460   212A      0.967809   213A      0.974193  
     214A      0.979971   215A      0.984055   216A      0.987894  
     217A      0.993986   218A      1.007620   219A      1.008564  
     220A      1.011891   221A      1.023238   222A      1.025217  
     223A      1.027505   224A      1.036693   225A      1.041497  
     226A      1.050528   227A      1.055654   228A      1.061898  
     229A      1.073308   230A      1.077088   231A      1.085710  
     232A      1.089749   233A      1.101727   234A      1.104076  
     235A      1.111754   236A      1.118466   237A      1.123397  
     238A      1.128582   239A      1.130801   240A      1.137023  
     241A      1.144352   242A      1.151154   243A      1.158239  
     244A      1.167868   245A      1.169571   246A      1.175925  
     247A      1.181816   248A      1.189570   249A      1.198753  
     250A      1.202246   251A      1.205013   252A      1.220551  
     253A      1.226585   254A      1.229396   255A      1.235673  
     256A      1.241859   257A      1.244327   258A      1.257196  
     259A      1.261222   260A      1.266345   261A      1.275672  
     262A      1.277705   263A      1.285771   264A      1.290767  
     265A      1.298590   266A      1.306609   267A      1.314992  
     268A      1.322773   269A      1.324630   270A      1.327286  
     271A      1.335065   272A      1.342069   273A      1.355581  
     274A      1.362298   275A      1.370953   276A      1.376427  
     277A      1.389103   278A      1.398893   279A      1.399427  
     280A      1.412451   281A      1.414325   282A      1.420959  
     283A      1.426889   284A      1.435394   285A      1.445985  
     286A      1.452874   287A      1.459012   288A      1.464250  
     289A      1.472203   290A      1.478967   291A      1.486756  
     292A      1.490089   293A      1.505541   294A      1.508389  
     295A      1.525445   296A      1.525955   297A      1.532545  
     298A      1.543786   299A      1.548491   300A      1.562635  
     301A      1.566897   302A      1.576170   303A      1.584240  
     304A      1.592383   305A      1.595556   306A      1.601970  
     307A      1.611089   308A      1.625397   309A      1.635413  
     310A      1.645484   311A      1.655532   312A      1.660197  
     313A      1.665043   314A      1.667682   315A      1.676144  
     316A      1.680461   317A      1.682835   318A      1.697387  
     319A      1.701186   320A      1.709148   321A      1.715591  
     322A      1.720929   323A      1.732956   324A      1.734599  
     325A      1.741572   326A      1.751183   327A      1.758342  
     328A      1.766037   329A      1.770723   330A      1.775740  
     331A      1.778596   332A      1.787035   333A      1.794858  
     334A      1.803177   335A      1.808899   336A      1.821045  
     337A      1.824708   338A      1.831403   339A      1.844510  
     340A      1.853949   341A      1.867248   342A      1.875413  
     343A      1.883077   344A      1.887043   345A      1.894851  
     346A      1.914088   347A      1.919209   348A      1.927140  
     349A      1.930120   350A      1.941092   351A      1.948187  
     352A      1.953003   353A      1.965916   354A      1.975863  
     355A      1.985466   356A      1.989574   357A      1.999475  
     358A      2.005882   359A      2.014630   360A      2.023444  
     361A      2.033003   362A      2.045233   363A      2.048701  
     364A      2.061215   365A      2.065128   366A      2.073478  
     367A      2.081178   368A      2.100890   369A      2.111052  
     370A      2.129933   371A      2.145500   372A      2.148595  
     373A      2.159674   374A      2.169246   375A      2.176767  
     376A      2.190005   377A      2.202517   378A      2.210559  
     379A      2.218289   380A      2.230697   381A      2.239264  
     382A      2.246113   383A      2.259430   384A      2.264743  
     385A      2.274876   386A      2.278837   387A      2.299401  
     388A      2.303906   389A      2.307488   390A      2.309992  
     391A      2.335008   392A      2.344071   393A      2.351666  
     394A      2.358686   395A      2.366395   396A      2.390417  
     397A      2.398389   398A      2.409503   399A      2.416974  
     400A      2.437821   401A      2.442854   402A      2.455163  
     403A      2.481822   404A      2.491187   405A      2.503728  
     406A      2.511155   407A      2.532209   408A      2.536338  
     409A      2.560573   410A      2.569013   411A      2.580522  
     412A      2.593713   413A      2.613389   414A      2.633195  
     415A      2.640573   416A      2.665287   417A      2.681620  
     418A      2.690540   419A      2.714469   420A      2.729914  
     421A      2.747021   422A      2.756218   423A      2.771460  
     424A      2.801355   425A      2.814141   426A      2.837998  
     427A      2.863230   428A      2.878017   429A      2.884025  
     430A      2.908497   431A      2.929283   432A      2.944759  
     433A      2.958014   434A      2.973640   435A      3.001609  
     436A      3.026532   437A      3.041686   438A      3.064814  
     439A      3.091193   440A      3.106260   441A      3.126165  
     442A      3.139136   443A      3.149701   444A      3.182726  
     445A      3.213755   446A      3.216457   447A      3.238322  
     448A      3.293096   449A      3.310389   450A      3.329401  
     451A      3.357419   452A      3.372306   453A      3.402766  
     454A      3.425263   455A      3.433026   456A      3.453365  
     457A      3.469413   458A      3.479938   459A      3.488226  
     460A      3.512675   461A      3.515459   462A      3.535391  
     463A      3.541718   464A      3.547135   465A      3.584983  
     466A      3.595767   467A      3.611828   468A      3.621795  
     469A      3.633010   470A      3.648797   471A      3.662602  
     472A      3.666449   473A      3.678687   474A      3.693528  
     475A      3.701485   476A      3.708787   477A      3.716907  
     478A      3.721495   479A      3.730145   480A      3.748011  
     481A      3.754008   482A      3.766877   483A      3.776044  
     484A      3.792208   485A      3.795274   486A      3.808417  
     487A      3.836776   488A      3.838857   489A      3.853123  
     490A      3.870653   491A      3.877370   492A      3.889612  
     493A      3.891928   494A      3.904739   495A      3.929656  
     496A      3.937020   497A      3.942800   498A      3.955225  
     499A      3.959705   500A      3.967021   501A      3.976497  
     502A      3.994626   503A      3.996110   504A      4.015153  
     505A      4.026414   506A      4.028632   507A      4.038143  
     508A      4.045621   509A      4.057031   510A      4.073560  
     511A      4.084385   512A      4.096559   513A      4.100327  
     514A      4.126157   515A      4.127842   516A      4.144564  
     517A      4.148922   518A      4.167484   519A      4.173482  
     520A      4.180558   521A      4.189069   522A      4.206395  
     523A      4.218497   524A      4.222127   525A      4.225796  
     526A      4.244580   527A      4.255912   528A      4.261498  
     529A      4.274004   530A      4.280969   531A      4.302759  
     532A      4.318795   533A      4.328074   534A      4.329922  
     535A      4.340597   536A      4.348475   537A      4.355699  
     538A      4.381376   539A      4.397184   540A      4.420361  
     541A      4.434695   542A      4.449777   543A      4.461368  
     544A      4.464336   545A      4.494561   546A      4.511111  
     547A      4.520845   548A      4.535096   549A      4.554589  
     550A      4.565659   551A      4.581523   552A      4.596330  
     553A      4.602570   554A      4.609338   555A      4.621343  
     556A      4.638967   557A      4.658939   558A      4.665909  
     559A      4.689677   560A      4.702514   561A      4.710702  
     562A      4.719724   563A      4.738623   564A      4.745613  
     565A      4.755402   566A      4.768284   567A      4.782364  
     568A      4.800038   569A      4.812275   570A      4.826698  
     571A      4.837575   572A      4.851605   573A      4.858436  
     574A      4.867979   575A      4.882216   576A      4.902885  
     577A      4.903571   578A      4.909559   579A      4.935642  
     580A      4.940769   581A      4.962290   582A      4.967043  
     583A      4.991146   584A      5.008671   585A      5.021027  
     586A      5.032070   587A      5.057962   588A      5.065988  
     589A      5.070373   590A      5.087122   591A      5.100998  
     592A      5.111556   593A      5.131413   594A      5.141016  
     595A      5.161988   596A      5.177247   597A      5.197918  
     598A      5.215835   599A      5.231917   600A      5.234815  
     601A      5.238123   602A      5.250935   603A      5.287657  
     604A      5.291930   605A      5.312086   606A      5.326513  
     607A      5.342901   608A      5.350602   609A      5.356226  
     610A      5.374636   611A      5.384067   612A      5.404523  
     613A      5.420404   614A      5.425690   615A      5.431601  
     616A      5.453900   617A      5.464609   618A      5.479287  
     619A      5.490667   620A      5.503746   621A      5.520190  
     622A      5.530489   623A      5.536361   624A      5.562540  
     625A      5.581566   626A      5.593703   627A      5.629016  
     628A      5.633599   629A      5.657066   630A      5.690583  
     631A      5.694185   632A      5.730159   633A      5.738366  
     634A      5.743105   635A      5.777634   636A      5.782512  
     637A      5.813613   638A      5.830240   639A      5.846723  
     640A      5.857842   641A      5.883552   642A      5.929307  
     643A      5.934251   644A      5.954817   645A      6.007674  
     646A      6.020065   647A      6.047256   648A      6.068003  
     649A      6.122832   650A      6.147673   651A      6.153615  
     652A      6.170564   653A      6.185058   654A      6.207393  
     655A      6.232321   656A      6.238578   657A      6.264466  
     658A      6.270695   659A      6.300248   660A      6.308497  
     661A      6.336526   662A      6.350567   663A      6.401485  
     664A      6.437154   665A      6.552576   666A      6.601770  
     667A      6.647509   668A      6.708989   669A      6.757050  
     670A      6.789378   671A      6.819000   672A      6.852873  
     673A      6.870233   674A      6.883933   675A      6.897728  
     676A      6.905645   677A      6.958979   678A      6.971170  
     679A      7.012314   680A      7.033189   681A      7.050670  
     682A      7.079271   683A      7.096487   684A      7.127509  
     685A      7.160261   686A      7.187813   687A      7.225482  
     688A      7.343304   689A      7.394779   690A      7.453826  
     691A      7.496438   692A      7.500001   693A      7.548606  
     694A      7.587822   695A      7.631329   696A      7.699633  
     697A      7.753603   698A      7.870787   699A      7.935175  
     700A      8.038917   701A      8.091683   702A      8.164045  
     703A      8.324410   704A      8.580982   705A     14.289981  
     706A     16.788735   707A     18.175648   708A     18.217911  
     709A     18.551689   710A     18.575302   711A     19.231110  
     712A     19.649239   713A     22.049394  

    Final Occupation by Irrep:
              A 
    DOCC [    36 ]

  @DF-RHF Final Energy:  -439.07328239042420

   => Energetics <=

    Nuclear Repulsion Energy =            485.1223874146816684
    One-Electron Energy =               -1560.6550484491795032
    Two-Electron Energy =                 636.4593786440735812
    Total Energy =                       -439.0732823904241968

Computation Completed

*** tstop() called on node57.bme.utexas.edu at Tue Nov  3 15:49:12 2020
Module time:
	user time   =     366.68 seconds =       6.11 minutes
	system time =      44.69 seconds =       0.74 minutes
	total time  =        104 seconds =       1.73 minutes
Total time:
	user time   =     366.68 seconds =       6.11 minutes
	system time =      44.69 seconds =       0.74 minutes
	total time  =        104 seconds =       1.73 minutes
   => Loading Basis Set <=

    Name: (AUG-CC-PVTZ AUX)
    Role: RIFIT
    Keyword: DF_BASIS_MP2
    atoms 1-2   entry O          line   264 file /home/xy3866/psi4conda/share/psi4/basis/aug-cc-pvtz-ri.gbs 
    atoms 3     entry N          line   206 file /home/xy3866/psi4conda/share/psi4/basis/aug-cc-pvtz-ri.gbs 
    atoms 4-9   entry C          line   148 file /home/xy3866/psi4conda/share/psi4/basis/aug-cc-pvtz-ri.gbs 
    atoms 10-22 entry H          line    30 file /home/xy3866/psi4conda/share/psi4/basis/aug-cc-pvtz-ri.gbs 


*** tstart() called on node57.bme.utexas.edu
*** at Tue Nov  3 15:49:12 2020


  //>>>>>>>>>>>>>>>>>>>>>>>>>>>>>>>>>>>//
  //               DFMP2               //
  //<<<<<<<<<<<<<<<<<<<<<<<<<<<<<<<<<<<//

	 --------------------------------------------------------
	                          DF-MP2                         
	      2nd-Order Density-Fitted Moller-Plesset Theory     
	              RMP2 Wavefunction,   8 Threads             
	                                                         
	        Rob Parrish, Justin Turney, Andy Simmonett,      
	           Ed Hohenstein, and C. David Sherrill          
	 --------------------------------------------------------

   => Auxiliary Basis Set <=

  Basis Set: (AUG-CC-PVTZ AUX)
    Blend: AUG-CC-PVTZ-RI
    Number of shells: 434
    Number of basis function: 1552
    Number of Cartesian functions: 1939
    Spherical Harmonics?: true
    Max angular momentum: 4

	 --------------------------------------------------------
	                 NBF =   713, NAUX =  1552
	 --------------------------------------------------------
	   CLASS    FOCC     OCC    AOCC    AVIR     VIR    FVIR
	   PAIRS       0      36      36     677     677       0
	 --------------------------------------------------------

  DFHelper Memory: AOs need 5.579 GiB; user supplied 22.352 GiB. Using in-core AOs.


         ------------------------------------------------------------
                                     CPHF                           
                                  Rob Parrish                       
         ------------------------------------------------------------

  ==> Geometry <==

    Molecular point group: c1
    Full point group: C1

    Geometry (in Angstrom), charge = 0, multiplicity = 1:

       Center              X                  Y                   Z               Mass       
    ------------   -----------------  -----------------  -----------------  -----------------
         O           -2.897896691451    -0.365288530894    -0.252445137540    15.994914619570
         O           -0.583679691451    -1.531005530894     0.087335862460    15.994914619570
         N            0.663554308549     0.327258469106    -0.347578137540    14.003074004430
         C            1.951098308549    -0.324458530894    -0.125765137540    12.000000000000
         C           -1.788674691451     0.502900469106    -0.337384137540    12.000000000000
         C            2.307650308549    -0.328943530894     1.356515862460    12.000000000000
         C            3.006118308549     0.359088469106    -0.980782137540    12.000000000000
         C           -0.498461491451    -0.127176030894    -0.219955537540    12.000000000000
         C           -1.900196691451     1.575105469106     0.740187862460    12.000000000000
         H            1.817129308549    -1.357378530894    -0.458755137540     1.007825032230
         H            0.649727308549     1.335007469106    -0.458924137540     1.007825032230
         H           -1.769951691451     0.975941469106    -1.331730137540     1.007825032230
         H            2.407460308549     0.695793469106     1.728230862460     1.007825032230
         H            1.526536308549    -0.837357530894     1.926060862460     1.007825032230
         H            3.254973308549    -0.849826530894     1.525486862460     1.007825032230
         H            3.129343308549     1.405682469106    -0.679633137540     1.007825032230
         H            2.730475308549     0.330134469106    -2.037391137540     1.007825032230
         H            3.972777308549    -0.136100530894    -0.859483137540     1.007825032230
         H           -1.843177691451     1.107596469106     1.725965862460     1.007825032230
         H           -2.868177691451     2.071053469106     0.648172862460     1.007825032230
         H           -1.115166691451     2.333558469106     0.658238862460     1.007825032230
         H           -2.500131691451    -1.249441530894    -0.089938137540     1.007825032230

  Nuclear repulsion =  485.122387414681668
  Reference energy  = -439.073282390424197

  ==> Basis Set <==

  Basis Set: AUG-CC-PVTZ
    Blend: AUG-CC-PVTZ
    Number of shells: 243
    Number of basis function: 713
    Number of Cartesian functions: 820
    Spherical Harmonics?: true
    Max angular momentum: 3

  ==> CGRSolver (by Rob Parrish) <==

   Number of roots    =         1
   Preconditioning    =    JACOBI
   Convergence cutoff =     1E-06
   Maximum iterations =       100

  ==> CPHFRHamiltonian (by Rob Parrish) <== 

  ==> MemDFJK: Density-Fitted J/K Matrices <==

    J tasked:                   Yes
    K tasked:                   Yes
    wK tasked:                   No
    OpenMP threads:               8
    Memory [MiB]:             22888
    Algorithm:                 Disk
    Schwarz Cutoff:           1E-12
    Mask sparsity (%):       6.5681
    Fitting Condition:        1E-10

   => Auxiliary Basis Set <=

  Basis Set: (AUG-CC-PVTZ AUX)
    Blend: AUG-CC-PVTZ-JKFIT
    Number of shells: 452
    Number of basis function: 1534
    Number of Cartesian functions: 1894
    Spherical Harmonics?: true
    Max angular momentum: 4

  ==> CPHF Iterations <==

  => Iterations <=

             Iter  Converged  Remaining    Residual
  CGR           1          0          1   1.449E-01
  CGR           2          0          1   5.627E-02
  CGR           3          0          1   2.768E-02
  CGR           4          0          1   9.281E-03
  CGR           5          0          1   3.999E-03
  CGR           6          0          1   1.396E-03
  CGR           7          0          1   4.224E-04
  CGR           8          0          1   1.355E-04
  CGR           9          0          1   3.673E-05
  CGR          10          0          1   1.155E-05
  CGR          11          0          1   3.260E-06
  CGR          12          0          1   1.039E-06
  CGR          13          1          0   3.977E-07

    CGRSolver converged.

	-----------------------------------------------------------
	 ==================> DF-MP2 Energies <==================== 
	-----------------------------------------------------------
	 Reference Energy          =    -439.0732823904241968 [Eh]
	 Singles Energy            =      -0.0000000000000000 [Eh]
	 Same-Spin Energy          =      -0.4501462988031801 [Eh]
	 Opposite-Spin Energy      =      -1.4716926226458140 [Eh]
	 Correlation Energy        =      -1.9218389214489942 [Eh]
	 Total Energy              =    -440.9951213118731630 [Eh]
	-----------------------------------------------------------
	 ================> DF-SCS-MP2 Energies <================== 
	-----------------------------------------------------------
	 SCS Same-Spin Scale       =       0.3333333333333333 [-]
	 SCS Opposite-Spin Scale   =       1.2000000000000000 [-]
	 SCS Same-Spin Energy      =      -0.1500487662677267 [Eh]
	 SCS Opposite-Spin Energy  =      -1.7660311471749768 [Eh]
	 SCS Correlation Energy    =      -1.9160799134427036 [Eh]
	 SCS Total Energy          =    -440.9893623038669261 [Eh]
	-----------------------------------------------------------



Properties will be evaluated at   0.000000,  -0.000000,  -0.000000 [a0]

Properties computed using the MP2 density matrix

  Nuclear Dipole Moment: [e a0]
     X:     8.7859      Y:     5.4504      Z:     2.1529

  Electronic Dipole Moment: [e a0]
     X:    -7.1183      Y:    -3.8898      Z:    -2.3044

  Dipole Moment: [e a0]
     X:     1.6676      Y:     1.5606      Z:    -0.1515     Total:     2.2889

  Dipole Moment: [D]
     X:     4.2385      Y:     3.9667      Z:    -0.3850     Total:     5.8179


*** tstop() called on node57.bme.utexas.edu at Tue Nov  3 15:52:35 2020
Module time:
	user time   =    1164.64 seconds =      19.41 minutes
	system time =      53.06 seconds =       0.88 minutes
	total time  =        203 seconds =       3.38 minutes
Total time:
	user time   =    1532.60 seconds =      25.54 minutes
	system time =      97.80 seconds =       1.63 minutes
	total time  =        307 seconds =       5.12 minutes

    Psi4 stopped on: Tuesday, 03 November 2020 03:52PM
    Psi4 wall time for execution: 0:05:07.36

*** Psi4 exiting successfully. Buy a developer a beer!
