
    -----------------------------------------------------------------------
          Psi4: An Open-Source Ab Initio Electronic Structure Package
                               Psi4 1.3.2 release

                         Git: Rev {HEAD} ecbda83 


    R. M. Parrish, L. A. Burns, D. G. A. Smith, A. C. Simmonett,
    A. E. DePrince III, E. G. Hohenstein, U. Bozkaya, A. Yu. Sokolov,
    R. Di Remigio, R. M. Richard, J. F. Gonthier, A. M. James,
    H. R. McAlexander, A. Kumar, M. Saitow, X. Wang, B. P. Pritchard,
    P. Verma, H. F. Schaefer III, K. Patkowski, R. A. King, E. F. Valeev,
    F. A. Evangelista, J. M. Turney, T. D. Crawford, and C. D. Sherrill,
    J. Chem. Theory Comput. 13(7) pp 3185--3197 (2017).
    (doi: 10.1021/acs.jctc.7b00174)


                         Additional Contributions by
    P. Kraus, H. Kruse, M. H. Lechner, M. C. Schieber, R. A. Shaw,
    A. Alenaizan, R. Galvelis, Z. L. Glick, S. Lehtola, and J. P. Misiewicz

    -----------------------------------------------------------------------


    Psi4 started on: Wednesday, 04 November 2020 01:28AM

    Process ID: 123676
    Host:       node57.bme.utexas.edu
    PSIDATADIR: /home/xy3866/psi4conda/share/psi4
    Memory:     500.0 MiB
    Threads:    8
    
  ==> Input File <==

--------------------------------------------------------------------------
#psi4
#
memory 32 gb

molecule  {
0 1
  O       -2.8968130    -0.3474360    -0.2563530
  O       -0.5825960    -1.5131530     0.0834280
  N        0.6646380     0.3451110    -0.3514860
  C        1.9521820    -0.3066060    -0.1296730
  C       -1.7875910     0.5207530    -0.3412920
  C        2.3087340    -0.3110910     1.3526080
  C        3.0072020     0.3769410    -0.9846900
  C       -0.5092170    -0.3043550    -0.1811720
  C       -1.8996115     1.6480003     0.6785056
  H        1.8182130    -1.3395260    -0.4626630
  H        0.6508110     1.3528600    -0.4628320
  H       -1.7730223     1.0450897    -1.3096417
  H        2.4085440     0.7136460     1.7243230
  H        1.5276200    -0.8195050     1.9221530
  H        3.2560570    -0.8319740     1.5215790
  H        3.1304270     1.4235350    -0.6835410
  H        2.7315590     0.3479870    -2.0412990
  H        3.9738610    -0.1182480    -0.8633910
  H       -1.8420940     1.1254490     1.7220580
  H       -2.8670940     2.0889060     0.6442650
  H       -1.1140830     2.3514110     0.6543310
  H       -2.4990480    -1.2315890    -0.0938460
units angstrom
no_reorient  #important for SAPT in psi4, default
symmetry c1  #important for SAPT in psi4, default
}

set PROPERTIES_ORIGIN ["COM"]
properties('MP2/aug-cc-pvtz', properties = ['dipole'])
--------------------------------------------------------------------------

  Memory set to  29.802 GiB by Python driver.
    SCF Algorithm Type (re)set to DF.

*** tstart() called on node57.bme.utexas.edu
*** at Wed Nov  4 01:28:46 2020

   => Loading Basis Set <=

    Name: AUG-CC-PVTZ
    Role: ORBITAL
    Keyword: BASIS
    atoms 1-2   entry O          line   327 file /home/xy3866/psi4conda/share/psi4/basis/aug-cc-pvtz.gbs 
    atoms 3     entry N          line   281 file /home/xy3866/psi4conda/share/psi4/basis/aug-cc-pvtz.gbs 
    atoms 4-9   entry C          line   235 file /home/xy3866/psi4conda/share/psi4/basis/aug-cc-pvtz.gbs 
    atoms 10-22 entry H          line    36 file /home/xy3866/psi4conda/share/psi4/basis/aug-cc-pvtz.gbs 


         ---------------------------------------------------------
                                   SCF
               by Justin Turney, Rob Parrish, Andy Simmonett
                          and Daniel G. A. Smith
                              RHF Reference
                        8 Threads,  30517 MiB Core
         ---------------------------------------------------------

  ==> Geometry <==

    Molecular point group: c1
    Full point group: C1

    Geometry (in Angstrom), charge = 0, multiplicity = 1:

       Center              X                  Y                   Z               Mass       
    ------------   -----------------  -----------------  -----------------  -----------------
         O           -2.896735398963    -0.352868698548    -0.251264339519    15.994914619570
         O           -0.582518398963    -1.518585698548     0.088516660481    15.994914619570
         N            0.664715601037     0.339678301452    -0.346397339519    14.003074004430
         C            1.952259601037    -0.312038698548    -0.124584339519    12.000000000000
         C           -1.787513398963     0.515320301452    -0.336203339519    12.000000000000
         C            2.308811601037    -0.316523698548     1.357696660481    12.000000000000
         C            3.007279601037     0.371508301452    -0.979601339519    12.000000000000
         C           -0.509139398963    -0.309787698548    -0.176083339519    12.000000000000
         C           -1.899533898963     1.642567601452     0.683594260481    12.000000000000
         H            1.818290601037    -1.344958698548    -0.457574339519     1.007825032230
         H            0.650888601037     1.347427301452    -0.457743339519     1.007825032230
         H           -1.772944698963     1.039657001452    -1.304553039519     1.007825032230
         H            2.408621601037     0.708213301452     1.729411660481     1.007825032230
         H            1.527697601037    -0.824937698548     1.927241660481     1.007825032230
         H            3.256134601037    -0.837406698548     1.526667660481     1.007825032230
         H            3.130504601037     1.418102301452    -0.678452339519     1.007825032230
         H            2.731636601037     0.342554301452    -2.036210339519     1.007825032230
         H            3.973938601037    -0.123680698548    -0.858302339519     1.007825032230
         H           -1.842016398963     1.120016301452     1.727146660481     1.007825032230
         H           -2.867016398963     2.083473301452     0.649353660481     1.007825032230
         H           -1.114005398963     2.345978301452     0.659419660481     1.007825032230
         H           -2.498970398963    -1.237021698548    -0.088757339519     1.007825032230

  Running in c1 symmetry.

  Rotational constants: A =      0.10164  B =      0.02843  C =      0.02676 [cm^-1]
  Rotational constants: A =   3047.14629  B =    852.23808  C =    802.19782 [MHz]
  Nuclear repulsion =  485.003079321115194

  Charge       = 0
  Multiplicity = 1
  Electrons    = 72
  Nalpha       = 36
  Nbeta        = 36

  ==> Algorithm <==

  SCF Algorithm Type is DF.
  DIIS enabled.
  MOM disabled.
  Fractional occupation disabled.
  Guess Type is SAD.
  Energy threshold   = 1.00e-10
  Density threshold  = 1.00e-10
  Integral threshold = 0.00e+00

  ==> Primary Basis <==

  Basis Set: AUG-CC-PVTZ
    Blend: AUG-CC-PVTZ
    Number of shells: 243
    Number of basis function: 713
    Number of Cartesian functions: 820
    Spherical Harmonics?: true
    Max angular momentum: 3

   => Loading Basis Set <=

    Name: (AUG-CC-PVTZ AUX)
    Role: JKFIT
    Keyword: DF_BASIS_SCF
    atoms 1-2   entry O          line   286 file /home/xy3866/psi4conda/share/psi4/basis/aug-cc-pvtz-jkfit.gbs 
    atoms 3     entry N          line   224 file /home/xy3866/psi4conda/share/psi4/basis/aug-cc-pvtz-jkfit.gbs 
    atoms 4-9   entry C          line   162 file /home/xy3866/psi4conda/share/psi4/basis/aug-cc-pvtz-jkfit.gbs 
    atoms 10-22 entry H          line    70 file /home/xy3866/psi4conda/share/psi4/basis/aug-cc-pvtz-jkfit.gbs 

  ==> Pre-Iterations <==

   -------------------------------------------------------
    Irrep   Nso     Nmo     Nalpha   Nbeta   Ndocc  Nsocc
   -------------------------------------------------------
     A        713     713       0       0       0       0
   -------------------------------------------------------
    Total     713     713      36      36      36       0
   -------------------------------------------------------

  ==> Integral Setup <==

  DFHelper Memory: AOs need 5.577 GiB; user supplied 22.352 GiB. Using in-core AOs.

  ==> MemDFJK: Density-Fitted J/K Matrices <==

    J tasked:                   Yes
    K tasked:                   Yes
    wK tasked:                   No
    OpenMP threads:               8
    Memory [MiB]:             22888
    Algorithm:                 Disk
    Schwarz Cutoff:           1E-12
    Mask sparsity (%):       6.5901
    Fitting Condition:        1E-10

   => Auxiliary Basis Set <=

  Basis Set: (AUG-CC-PVTZ AUX)
    Blend: AUG-CC-PVTZ-JKFIT
    Number of shells: 452
    Number of basis function: 1534
    Number of Cartesian functions: 1894
    Spherical Harmonics?: true
    Max angular momentum: 4

  Minimum eigenvalue in the overlap matrix is 2.6668763833E-06.
  Using Symmetric Orthogonalization.

  SCF Guess: Superposition of Atomic Densities via on-the-fly atomic UHF.

  ==> Iterations <==

                           Total Energy        Delta E     RMS |[F,P]|

   @DF-RHF iter SAD:  -438.32630293531940   -4.38326e+02   0.00000e+00 
   @DF-RHF iter   1:  -438.77510994610020   -4.48807e-01   1.14594e-03 DIIS
   @DF-RHF iter   2:  -439.05332710051630   -2.78217e-01   6.11392e-04 DIIS
   @DF-RHF iter   3:  -439.12445432679510   -7.11272e-02   1.27761e-04 DIIS
   @DF-RHF iter   4:  -439.12935409004359   -4.89976e-03   5.35642e-05 DIIS
   @DF-RHF iter   5:  -439.13018602503718   -8.31935e-04   1.10447e-05 DIIS
   @DF-RHF iter   6:  -439.13023894766172   -5.29226e-05   5.15108e-06 DIIS
   @DF-RHF iter   7:  -439.13024949926034   -1.05516e-05   1.53821e-06 DIIS
   @DF-RHF iter   8:  -439.13025146564905   -1.96639e-06   6.98055e-07 DIIS
   @DF-RHF iter   9:  -439.13025182429556   -3.58647e-07   2.37196e-07 DIIS
   @DF-RHF iter  10:  -439.13025186952905   -4.52335e-08   7.37409e-08 DIIS
   @DF-RHF iter  11:  -439.13025187294437   -3.41532e-09   2.39903e-08 DIIS
   @DF-RHF iter  12:  -439.13025187321648   -2.72109e-10   8.43980e-09 DIIS
   @DF-RHF iter  13:  -439.13025187324661   -3.01270e-11   2.19142e-09 DIIS
   @DF-RHF iter  14:  -439.13025187324882   -2.21689e-12   7.46257e-10 DIIS
   @DF-RHF iter  15:  -439.13025187324848    3.41061e-13   2.40226e-10 DIIS
   @DF-RHF iter  16:  -439.13025187324951   -1.02318e-12   1.03005e-10 DIIS
   @DF-RHF iter  17:  -439.13025187324854    9.66338e-13   4.57942e-11 DIIS
  Energy and wave function converged.


  ==> Post-Iterations <==

    Orbital Energies [Eh]
    ---------------------

    Doubly Occupied:                                                      

       1A    -20.549963     2A    -20.533369     3A    -15.596371  
       4A    -11.359922     5A    -11.298129     6A    -11.277514  
       7A    -11.232537     8A    -11.231264     9A    -11.222356  
      10A     -1.397876    11A     -1.346564    12A     -1.248560  
      13A     -1.072789    14A     -1.025576    15A     -0.950025  
      16A     -0.895012    17A     -0.822540    18A     -0.795303  
      19A     -0.737634    20A     -0.679408    21A     -0.649363  
      22A     -0.634075    23A     -0.628863    24A     -0.599394  
      25A     -0.583965    26A     -0.577659    27A     -0.555188  
      28A     -0.552131    29A     -0.535751    30A     -0.519670  
      31A     -0.510431    32A     -0.503077    33A     -0.492062  
      34A     -0.441463    35A     -0.435792    36A     -0.401553  

    Virtual:                                                              

      37A      0.021133    38A      0.031143    39A      0.033455  
      40A      0.039656    41A      0.047176    42A      0.049427  
      43A      0.053355    44A      0.056778    45A      0.059204  
      46A      0.067248    47A      0.074717    48A      0.075008  
      49A      0.084418    50A      0.103511    51A      0.109142  
      52A      0.112102    53A      0.116114    54A      0.117683  
      55A      0.121165    56A      0.127320    57A      0.129028  
      58A      0.134489    59A      0.137580    60A      0.141813  
      61A      0.147648    62A      0.149568    63A      0.152883  
      64A      0.154745    65A      0.154791    66A      0.163107  
      67A      0.169917    68A      0.172445    69A      0.178705  
      70A      0.186142    71A      0.189143    72A      0.200819  
      73A      0.203531    74A      0.222362    75A      0.223229  
      76A      0.226906    77A      0.232841    78A      0.238409  
      79A      0.244261    80A      0.248913    81A      0.256010  
      82A      0.263697    83A      0.270564    84A      0.274217  
      85A      0.277811    86A      0.281895    87A      0.285956  
      88A      0.291421    89A      0.299266    90A      0.303452  
      91A      0.311091    92A      0.316428    93A      0.318501  
      94A      0.326079    95A      0.329952    96A      0.334072  
      97A      0.341259    98A      0.342023    99A      0.346252  
     100A      0.351144   101A      0.353552   102A      0.361633  
     103A      0.363864   104A      0.369729   105A      0.371497  
     106A      0.375681   107A      0.378235   108A      0.380856  
     109A      0.386613   110A      0.390061   111A      0.392330  
     112A      0.403020   113A      0.404695   114A      0.406769  
     115A      0.414367   116A      0.417921   117A      0.426093  
     118A      0.430394   119A      0.435510   120A      0.442100  
     121A      0.442689   122A      0.447225   123A      0.453036  
     124A      0.456070   125A      0.459851   126A      0.463117  
     127A      0.469534   128A      0.471130   129A      0.478264  
     130A      0.482132   131A      0.483393   132A      0.488031  
     133A      0.488896   134A      0.496929   135A      0.500279  
     136A      0.500944   137A      0.508951   138A      0.511169  
     139A      0.523319   140A      0.524488   141A      0.531987  
     142A      0.534562   143A      0.537603   144A      0.541256  
     145A      0.547454   146A      0.559720   147A      0.565806  
     148A      0.569320   149A      0.571303   150A      0.575714  
     151A      0.580781   152A      0.585231   153A      0.594941  
     154A      0.599680   155A      0.602614   156A      0.607070  
     157A      0.612734   158A      0.620915   159A      0.624311  
     160A      0.632756   161A      0.636091   162A      0.638516  
     163A      0.643232   164A      0.651964   165A      0.662872  
     166A      0.666525   167A      0.678709   168A      0.691598  
     169A      0.694964   170A      0.697774   171A      0.714568  
     172A      0.721418   173A      0.724523   174A      0.729574  
     175A      0.731686   176A      0.745703   177A      0.757981  
     178A      0.764477   179A      0.777814   180A      0.778934  
     181A      0.789300   182A      0.793027   183A      0.797450  
     184A      0.804499   185A      0.806294   186A      0.819777  
     187A      0.821585   188A      0.827991   189A      0.835704  
     190A      0.839640   191A      0.848848   192A      0.856688  
     193A      0.865491   194A      0.871932   195A      0.877017  
     196A      0.880460   197A      0.883258   198A      0.890859  
     199A      0.897604   200A      0.903165   201A      0.906757  
     202A      0.918513   203A      0.924550   204A      0.930043  
     205A      0.931978   206A      0.938927   207A      0.944220  
     208A      0.946987   209A      0.950998   210A      0.955708  
     211A      0.962117   212A      0.969496   213A      0.971612  
     214A      0.975474   215A      0.982764   216A      0.991833  
     217A      0.995931   218A      1.010237   219A      1.011633  
     220A      1.015135   221A      1.021233   222A      1.025477  
     223A      1.029388   224A      1.036497   225A      1.039234  
     226A      1.050560   227A      1.057554   228A      1.064547  
     229A      1.073390   230A      1.080177   231A      1.082664  
     232A      1.089220   233A      1.100142   234A      1.106076  
     235A      1.107874   236A      1.112918   237A      1.119083  
     238A      1.127703   239A      1.130930   240A      1.141178  
     241A      1.144256   242A      1.153750   243A      1.158718  
     244A      1.170127   245A      1.174399   246A      1.180065  
     247A      1.188144   248A      1.191580   249A      1.196482  
     250A      1.201418   251A      1.205932   252A      1.216264  
     253A      1.223647   254A      1.231723   255A      1.236535  
     256A      1.243641   257A      1.244277   258A      1.255296  
     259A      1.266960   260A      1.270495   261A      1.273028  
     262A      1.278011   263A      1.282984   264A      1.294929  
     265A      1.301082   266A      1.308723   267A      1.316924  
     268A      1.321439   269A      1.327328   270A      1.330481  
     271A      1.335796   272A      1.349918   273A      1.359313  
     274A      1.361721   275A      1.371431   276A      1.373933  
     277A      1.385401   278A      1.394758   279A      1.405874  
     280A      1.411902   281A      1.416367   282A      1.424307  
     283A      1.424889   284A      1.434239   285A      1.441714  
     286A      1.453144   287A      1.459452   288A      1.465092  
     289A      1.472575   290A      1.482017   291A      1.490365  
     292A      1.498911   293A      1.505769   294A      1.511850  
     295A      1.520101   296A      1.527221   297A      1.534264  
     298A      1.538451   299A      1.546675   300A      1.553940  
     301A      1.566166   302A      1.574443   303A      1.581741  
     304A      1.594556   305A      1.600029   306A      1.607857  
     307A      1.613086   308A      1.617962   309A      1.631510  
     310A      1.647655   311A      1.653858   312A      1.659656  
     313A      1.665668   314A      1.669413   315A      1.679609  
     316A      1.683354   317A      1.684848   318A      1.698696  
     319A      1.702825   320A      1.708163   321A      1.717870  
     322A      1.728551   323A      1.735049   324A      1.738604  
     325A      1.745793   326A      1.752545   327A      1.761605  
     328A      1.763820   329A      1.774753   330A      1.775644  
     331A      1.782743   332A      1.785868   333A      1.797281  
     334A      1.803188   335A      1.808400   336A      1.820421  
     337A      1.823045   338A      1.829424   339A      1.849083  
     340A      1.854661   341A      1.866170   342A      1.876030  
     343A      1.879307   344A      1.885318   345A      1.896465  
     346A      1.910482   347A      1.915561   348A      1.923649  
     349A      1.936216   350A      1.938974   351A      1.946450  
     352A      1.951561   353A      1.964407   354A      1.968588  
     355A      1.983569   356A      1.992997   357A      1.995841  
     358A      2.002782   359A      2.010343   360A      2.014479  
     361A      2.026665   362A      2.032835   363A      2.050066  
     364A      2.056191   365A      2.067683   366A      2.073291  
     367A      2.076328   368A      2.098129   369A      2.106313  
     370A      2.128408   371A      2.132455   372A      2.147237  
     373A      2.153236   374A      2.165228   375A      2.173513  
     376A      2.179822   377A      2.194478   378A      2.195768  
     379A      2.204677   380A      2.217015   381A      2.238483  
     382A      2.244493   383A      2.253498   384A      2.266674  
     385A      2.284620   386A      2.290516   387A      2.293981  
     388A      2.299279   389A      2.311975   390A      2.318809  
     391A      2.323204   392A      2.340638   393A      2.343248  
     394A      2.362141   395A      2.365719   396A      2.375903  
     397A      2.390513   398A      2.404410   399A      2.415994  
     400A      2.429165   401A      2.450079   402A      2.456609  
     403A      2.489756   404A      2.492098   405A      2.501582  
     406A      2.523105   407A      2.526742   408A      2.549628  
     409A      2.556748   410A      2.573873   411A      2.586823  
     412A      2.595473   413A      2.600555   414A      2.618278  
     415A      2.642087   416A      2.655537   417A      2.677635  
     418A      2.694169   419A      2.719554   420A      2.731907  
     421A      2.746309   422A      2.768137   423A      2.785739  
     424A      2.806238   425A      2.814764   426A      2.819262  
     427A      2.851496   428A      2.869411   429A      2.882312  
     430A      2.886801   431A      2.898983   432A      2.945468  
     433A      2.968732   434A      2.978986   435A      3.016726  
     436A      3.024097   437A      3.045208   438A      3.049147  
     439A      3.081844   440A      3.088604   441A      3.117140  
     442A      3.125659   443A      3.141712   444A      3.152368  
     445A      3.207292   446A      3.216932   447A      3.252412  
     448A      3.271097   449A      3.306751   450A      3.337037  
     451A      3.356610   452A      3.384038   453A      3.398697  
     454A      3.417883   455A      3.426241   456A      3.452668  
     457A      3.473770   458A      3.481968   459A      3.497207  
     460A      3.506460   461A      3.526301   462A      3.537246  
     463A      3.550138   464A      3.562402   465A      3.573523  
     466A      3.589758   467A      3.617644   468A      3.632487  
     469A      3.644580   470A      3.650758   471A      3.655857  
     472A      3.668616   473A      3.687722   474A      3.695071  
     475A      3.703476   476A      3.710440   477A      3.725739  
     478A      3.730206   479A      3.735907   480A      3.750950  
     481A      3.759939   482A      3.773375   483A      3.779078  
     484A      3.791389   485A      3.804143   486A      3.810822  
     487A      3.842117   488A      3.850901   489A      3.862414  
     490A      3.876140   491A      3.881886   492A      3.894305  
     493A      3.895086   494A      3.910361   495A      3.923440  
     496A      3.935436   497A      3.941342   498A      3.956313  
     499A      3.958632   500A      3.968277   501A      3.985109  
     502A      3.995149   503A      4.006179   504A      4.018919  
     505A      4.027584   506A      4.032156   507A      4.044921  
     508A      4.060221   509A      4.064447   510A      4.072574  
     511A      4.086983   512A      4.105795   513A      4.115507  
     514A      4.119392   515A      4.130276   516A      4.149285  
     517A      4.155094   518A      4.164623   519A      4.175417  
     520A      4.192601   521A      4.202790   522A      4.205870  
     523A      4.217095   524A      4.223604   525A      4.230538  
     526A      4.242172   527A      4.246465   528A      4.264554  
     529A      4.287189   530A      4.292917   531A      4.302017  
     532A      4.315690   533A      4.323630   534A      4.330029  
     535A      4.333745   536A      4.360683   537A      4.366285  
     538A      4.379796   539A      4.394216   540A      4.402984  
     541A      4.428939   542A      4.453827   543A      4.464323  
     544A      4.475167   545A      4.486985   546A      4.506684  
     547A      4.513695   548A      4.534626   549A      4.545535  
     550A      4.555623   551A      4.577518   552A      4.583587  
     553A      4.587920   554A      4.607657   555A      4.616008  
     556A      4.629444   557A      4.643562   558A      4.659184  
     559A      4.669724   560A      4.697302   561A      4.706692  
     562A      4.720834   563A      4.729258   564A      4.731784  
     565A      4.749805   566A      4.758962   567A      4.786093  
     568A      4.799615   569A      4.819493   570A      4.826701  
     571A      4.841297   572A      4.849063   573A      4.862036  
     574A      4.866739   575A      4.880474   576A      4.893145  
     577A      4.903747   578A      4.918715   579A      4.932446  
     580A      4.942360   581A      4.953873   582A      4.975948  
     583A      4.991747   584A      5.002252   585A      5.012284  
     586A      5.040621   587A      5.046968   588A      5.059155  
     589A      5.074619   590A      5.099919   591A      5.115430  
     592A      5.127052   593A      5.130596   594A      5.136026  
     595A      5.159558   596A      5.173761   597A      5.189515  
     598A      5.202796   599A      5.217247   600A      5.232749  
     601A      5.247467   602A      5.260907   603A      5.268295  
     604A      5.273538   605A      5.309657   606A      5.317802  
     607A      5.335024   608A      5.348393   609A      5.358055  
     610A      5.367207   611A      5.380723   612A      5.387009  
     613A      5.413506   614A      5.431647   615A      5.439197  
     616A      5.452631   617A      5.457823   618A      5.479143  
     619A      5.489985   620A      5.506724   621A      5.513053  
     622A      5.525247   623A      5.534851   624A      5.559108  
     625A      5.571505   626A      5.611018   627A      5.620641  
     628A      5.626916   629A      5.652358   630A      5.672184  
     631A      5.682176   632A      5.711411   633A      5.742843  
     634A      5.766807   635A      5.771614   636A      5.784908  
     637A      5.812016   638A      5.835263   639A      5.842852  
     640A      5.865541   641A      5.871923   642A      5.895616  
     643A      5.926583   644A      5.937496   645A      5.945811  
     646A      6.003211   647A      6.006135   648A      6.042906  
     649A      6.064342   650A      6.100907   651A      6.151478  
     652A      6.164230   653A      6.198053   654A      6.207534  
     655A      6.241028   656A      6.242283   657A      6.250123  
     658A      6.286092   659A      6.301456   660A      6.315507  
     661A      6.332137   662A      6.346095   663A      6.405665  
     664A      6.433350   665A      6.561833   666A      6.576890  
     667A      6.629348   668A      6.678014   669A      6.768858  
     670A      6.773886   671A      6.803024   672A      6.837375  
     673A      6.848753   674A      6.868796   675A      6.878514  
     676A      6.885653   677A      6.929081   678A      6.945215  
     679A      7.016984   680A      7.023210   681A      7.044103  
     682A      7.052848   683A      7.101314   684A      7.140183  
     685A      7.146685   686A      7.253110   687A      7.268818  
     688A      7.338728   689A      7.405848   690A      7.468809  
     691A      7.503991   692A      7.567616   693A      7.589510  
     694A      7.658658   695A      7.716227   696A      7.768961  
     697A      7.792830   698A      7.854114   699A      7.904430  
     700A      8.012949   701A      8.061207   702A      8.170030  
     703A      8.332195   704A      8.567540   705A     15.975212  
     706A     16.577398   707A     17.675309   708A     17.888186  
     709A     18.245960   710A     18.559448   711A     18.790439  
     712A     19.491602   713A     21.206486  

    Final Occupation by Irrep:
              A 
    DOCC [    36 ]

  @DF-RHF Final Energy:  -439.13025187324854

   => Energetics <=

    Nuclear Repulsion Energy =            485.0030793211151945
    One-Electron Energy =               -1560.4803605848787811
    Two-Electron Energy =                 636.3470293905151038
    Total Energy =                       -439.1302518732485396

Computation Completed

*** tstop() called on node57.bme.utexas.edu at Wed Nov  4 01:30:54 2020
Module time:
	user time   =     372.49 seconds =       6.21 minutes
	system time =      46.31 seconds =       0.77 minutes
	total time  =        128 seconds =       2.13 minutes
Total time:
	user time   =     372.49 seconds =       6.21 minutes
	system time =      46.31 seconds =       0.77 minutes
	total time  =        128 seconds =       2.13 minutes
   => Loading Basis Set <=

    Name: (AUG-CC-PVTZ AUX)
    Role: RIFIT
    Keyword: DF_BASIS_MP2
    atoms 1-2   entry O          line   264 file /home/xy3866/psi4conda/share/psi4/basis/aug-cc-pvtz-ri.gbs 
    atoms 3     entry N          line   206 file /home/xy3866/psi4conda/share/psi4/basis/aug-cc-pvtz-ri.gbs 
    atoms 4-9   entry C          line   148 file /home/xy3866/psi4conda/share/psi4/basis/aug-cc-pvtz-ri.gbs 
    atoms 10-22 entry H          line    30 file /home/xy3866/psi4conda/share/psi4/basis/aug-cc-pvtz-ri.gbs 


*** tstart() called on node57.bme.utexas.edu
*** at Wed Nov  4 01:30:54 2020


  //>>>>>>>>>>>>>>>>>>>>>>>>>>>>>>>>>>>//
  //               DFMP2               //
  //<<<<<<<<<<<<<<<<<<<<<<<<<<<<<<<<<<<//

	 --------------------------------------------------------
	                          DF-MP2                         
	      2nd-Order Density-Fitted Moller-Plesset Theory     
	              RMP2 Wavefunction,   8 Threads             
	                                                         
	        Rob Parrish, Justin Turney, Andy Simmonett,      
	           Ed Hohenstein, and C. David Sherrill          
	 --------------------------------------------------------

   => Auxiliary Basis Set <=

  Basis Set: (AUG-CC-PVTZ AUX)
    Blend: AUG-CC-PVTZ-RI
    Number of shells: 434
    Number of basis function: 1552
    Number of Cartesian functions: 1939
    Spherical Harmonics?: true
    Max angular momentum: 4

	 --------------------------------------------------------
	                 NBF =   713, NAUX =  1552
	 --------------------------------------------------------
	   CLASS    FOCC     OCC    AOCC    AVIR     VIR    FVIR
	   PAIRS       0      36      36     677     677       0
	 --------------------------------------------------------

  DFHelper Memory: AOs need 5.577 GiB; user supplied 22.352 GiB. Using in-core AOs.


         ------------------------------------------------------------
                                     CPHF                           
                                  Rob Parrish                       
         ------------------------------------------------------------

  ==> Geometry <==

    Molecular point group: c1
    Full point group: C1

    Geometry (in Angstrom), charge = 0, multiplicity = 1:

       Center              X                  Y                   Z               Mass       
    ------------   -----------------  -----------------  -----------------  -----------------
         O           -2.896735398963    -0.352868698548    -0.251264339519    15.994914619570
         O           -0.582518398963    -1.518585698548     0.088516660481    15.994914619570
         N            0.664715601037     0.339678301452    -0.346397339519    14.003074004430
         C            1.952259601037    -0.312038698548    -0.124584339519    12.000000000000
         C           -1.787513398963     0.515320301452    -0.336203339519    12.000000000000
         C            2.308811601037    -0.316523698548     1.357696660481    12.000000000000
         C            3.007279601037     0.371508301452    -0.979601339519    12.000000000000
         C           -0.509139398963    -0.309787698548    -0.176083339519    12.000000000000
         C           -1.899533898963     1.642567601452     0.683594260481    12.000000000000
         H            1.818290601037    -1.344958698548    -0.457574339519     1.007825032230
         H            0.650888601037     1.347427301452    -0.457743339519     1.007825032230
         H           -1.772944698963     1.039657001452    -1.304553039519     1.007825032230
         H            2.408621601037     0.708213301452     1.729411660481     1.007825032230
         H            1.527697601037    -0.824937698548     1.927241660481     1.007825032230
         H            3.256134601037    -0.837406698548     1.526667660481     1.007825032230
         H            3.130504601037     1.418102301452    -0.678452339519     1.007825032230
         H            2.731636601037     0.342554301452    -2.036210339519     1.007825032230
         H            3.973938601037    -0.123680698548    -0.858302339519     1.007825032230
         H           -1.842016398963     1.120016301452     1.727146660481     1.007825032230
         H           -2.867016398963     2.083473301452     0.649353660481     1.007825032230
         H           -1.114005398963     2.345978301452     0.659419660481     1.007825032230
         H           -2.498970398963    -1.237021698548    -0.088757339519     1.007825032230

  Nuclear repulsion =  485.003079321115251
  Reference energy  = -439.130251873248540

  ==> Basis Set <==

  Basis Set: AUG-CC-PVTZ
    Blend: AUG-CC-PVTZ
    Number of shells: 243
    Number of basis function: 713
    Number of Cartesian functions: 820
    Spherical Harmonics?: true
    Max angular momentum: 3

  ==> CGRSolver (by Rob Parrish) <==

   Number of roots    =         1
   Preconditioning    =    JACOBI
   Convergence cutoff =     1E-06
   Maximum iterations =       100

  ==> CPHFRHamiltonian (by Rob Parrish) <== 

  ==> MemDFJK: Density-Fitted J/K Matrices <==

    J tasked:                   Yes
    K tasked:                   Yes
    wK tasked:                   No
    OpenMP threads:               8
    Memory [MiB]:             22888
    Algorithm:                 Disk
    Schwarz Cutoff:           1E-12
    Mask sparsity (%):       6.5901
    Fitting Condition:        1E-10

   => Auxiliary Basis Set <=

  Basis Set: (AUG-CC-PVTZ AUX)
    Blend: AUG-CC-PVTZ-JKFIT
    Number of shells: 452
    Number of basis function: 1534
    Number of Cartesian functions: 1894
    Spherical Harmonics?: true
    Max angular momentum: 4

  ==> CPHF Iterations <==

  => Iterations <=

             Iter  Converged  Remaining    Residual
  CGR           1          0          1   1.115E-01
  CGR           2          0          1   3.249E-02
  CGR           3          0          1   1.244E-02
  CGR           4          0          1   3.360E-03
  CGR           5          0          1   1.302E-03
  CGR           6          0          1   3.658E-04
  CGR           7          0          1   1.264E-04
  CGR           8          0          1   5.127E-05
  CGR           9          0          1   2.066E-05
  CGR          10          0          1   8.021E-06
  CGR          11          0          1   2.515E-06
  CGR          12          1          0   7.177E-07

    CGRSolver converged.

	-----------------------------------------------------------
	 ==================> DF-MP2 Energies <==================== 
	-----------------------------------------------------------
	 Reference Energy          =    -439.1302518732485396 [Eh]
	 Singles Energy            =      -0.0000000000000000 [Eh]
	 Same-Spin Energy          =      -0.4461787187585244 [Eh]
	 Opposite-Spin Energy      =      -1.4640391170791058 [Eh]
	 Correlation Energy        =      -1.9102178358376303 [Eh]
	 Total Energy              =    -441.0404697090861532 [Eh]
	-----------------------------------------------------------
	 ================> DF-SCS-MP2 Energies <================== 
	-----------------------------------------------------------
	 SCS Same-Spin Scale       =       0.3333333333333333 [-]
	 SCS Opposite-Spin Scale   =       1.2000000000000000 [-]
	 SCS Same-Spin Energy      =      -0.1487262395861748 [Eh]
	 SCS Opposite-Spin Energy  =      -1.7568469404949270 [Eh]
	 SCS Correlation Energy    =      -1.9055731800811018 [Eh]
	 SCS Total Energy          =    -441.0358250533296314 [Eh]
	-----------------------------------------------------------



Properties will be evaluated at   0.000000,   0.000000,  -0.000000 [a0]

Properties computed using the MP2 density matrix

  Nuclear Dipole Moment: [e a0]
     X:     8.7962      Y:     5.6499      Z:     2.1917

  Electronic Dipole Moment: [e a0]
     X:    -7.3847      Y:    -4.4980      Z:    -2.2923

  Dipole Moment: [e a0]
     X:     1.4114      Y:     1.1519      Z:    -0.1006     Total:     1.8246

  Dipole Moment: [D]
     X:     3.5875      Y:     2.9279      Z:    -0.2558     Total:     4.6377


*** tstop() called on node57.bme.utexas.edu at Wed Nov  4 01:34:13 2020
Module time:
	user time   =    1149.08 seconds =      19.15 minutes
	system time =      51.20 seconds =       0.85 minutes
	total time  =        199 seconds =       3.32 minutes
Total time:
	user time   =    1522.83 seconds =      25.38 minutes
	system time =      97.56 seconds =       1.63 minutes
	total time  =        327 seconds =       5.45 minutes

    Psi4 stopped on: Wednesday, 04 November 2020 01:34AM
    Psi4 wall time for execution: 0:05:27.69

*** Psi4 exiting successfully. Buy a developer a beer!
