
    -----------------------------------------------------------------------
          Psi4: An Open-Source Ab Initio Electronic Structure Package
                               Psi4 1.3.2 release

                         Git: Rev {HEAD} ecbda83 


    R. M. Parrish, L. A. Burns, D. G. A. Smith, A. C. Simmonett,
    A. E. DePrince III, E. G. Hohenstein, U. Bozkaya, A. Yu. Sokolov,
    R. Di Remigio, R. M. Richard, J. F. Gonthier, A. M. James,
    H. R. McAlexander, A. Kumar, M. Saitow, X. Wang, B. P. Pritchard,
    P. Verma, H. F. Schaefer III, K. Patkowski, R. A. King, E. F. Valeev,
    F. A. Evangelista, J. M. Turney, T. D. Crawford, and C. D. Sherrill,
    J. Chem. Theory Comput. 13(7) pp 3185--3197 (2017).
    (doi: 10.1021/acs.jctc.7b00174)


                         Additional Contributions by
    P. Kraus, H. Kruse, M. H. Lechner, M. C. Schieber, R. A. Shaw,
    A. Alenaizan, R. Galvelis, Z. L. Glick, S. Lehtola, and J. P. Misiewicz

    -----------------------------------------------------------------------


    Psi4 started on: Thursday, 05 November 2020 01:22PM

    Process ID: 19284
    Host:       node35.bme.utexas.edu
    PSIDATADIR: /home/xy3866/psi4conda/share/psi4
    Memory:     500.0 MiB
    Threads:    8
    
  ==> Input File <==

--------------------------------------------------------------------------
#psi4
#
memory 32 gb

molecule  {
0 1
  O        0.1763910     2.6970700    -0.0085580
  C        0.2089260     1.4725840     0.0042240
  N        1.4659430     0.7906670    -0.0052000
  C        1.6696020    -0.5667920     0.0018180
  N        0.7040600    -1.4531590     0.0111340
  C       -0.5247500    -0.8567100    -0.0036900
  C       -0.8535700     0.4975280     0.0150930
  N       -2.2178770     0.6874110     0.0132550
  C       -2.8037493    -0.6498243    -0.0015176
  N       -1.7302440    -1.5082620    -0.0074590
  N        2.9897270    -0.9822980    -0.0798890
  H        2.2638450     1.4140280    -0.1046570
  H       -3.7608750    -0.7937900    -0.0035550
  H       -1.8528420    -2.5141400    -0.0211820
  H        3.0628590    -1.9839740     0.0678780
  H        3.6422020    -0.4648880     0.5003130
units angstrom
no_reorient  #important for SAPT in psi4, default
symmetry c1  #important for SAPT in psi4, default
}

set PROPERTIES_ORIGIN ["COM"]
properties('MP2/aug-cc-pvtz', properties = ['dipole'])
--------------------------------------------------------------------------

  Memory set to  29.802 GiB by Python driver.
    SCF Algorithm Type (re)set to DF.

*** tstart() called on node35.bme.utexas.edu
*** at Thu Nov  5 13:22:53 2020

   => Loading Basis Set <=

    Name: AUG-CC-PVTZ
    Role: ORBITAL
    Keyword: BASIS
    atoms 1              entry O          line   327 file /home/xy3866/psi4conda/share/psi4/basis/aug-cc-pvtz.gbs 
    atoms 2, 4, 6-7, 9   entry C          line   235 file /home/xy3866/psi4conda/share/psi4/basis/aug-cc-pvtz.gbs 
    atoms 3, 5, 8, 10-11 entry N          line   281 file /home/xy3866/psi4conda/share/psi4/basis/aug-cc-pvtz.gbs 
    atoms 12-16          entry H          line    36 file /home/xy3866/psi4conda/share/psi4/basis/aug-cc-pvtz.gbs 


         ---------------------------------------------------------
                                   SCF
               by Justin Turney, Rob Parrish, Andy Simmonett
                          and Daniel G. A. Smith
                              RHF Reference
                        8 Threads,  30517 MiB Core
         ---------------------------------------------------------

  ==> Geometry <==

    Molecular point group: c1
    Full point group: C1

    Geometry (in Angstrom), charge = 0, multiplicity = 1:

       Center              X                  Y                   Z               Mass       
    ------------   -----------------  -----------------  -----------------  -----------------
         O            0.206006757305     2.677225280863    -0.005526140423    15.994914619570
         C            0.238541757305     1.452739280863     0.007255859577    12.000000000000
         N            1.495558757305     0.770822280863    -0.002168140423    14.003074004430
         C            1.699217757305    -0.586636719137     0.004849859577    12.000000000000
         N            0.733675757305    -1.473003719137     0.014165859577    14.003074004430
         C           -0.495134242695    -0.876554719137    -0.000658140423    12.000000000000
         C           -0.823954242695     0.477683280863     0.018124859577    12.000000000000
         N           -2.188261242695     0.667566280863     0.016286859577    14.003074004430
         C           -2.774133542695    -0.669669019137     0.001514259577    12.000000000000
         N           -1.700628242695    -1.528106719137    -0.004427140423    14.003074004430
         N            3.019342757305    -1.002142719137    -0.076857140423    14.003074004430
         H            2.293460757305     1.394183280863    -0.101625140423     1.007825032230
         H           -3.731259242695    -0.813634719137    -0.000523140423     1.007825032230
         H           -1.823226242695    -2.533984719137    -0.018150140423     1.007825032230
         H            3.092474757305    -2.003818719137     0.070909859577     1.007825032230
         H            3.671817757305    -0.484732719137     0.503344859577     1.007825032230

  Running in c1 symmetry.

  Rotational constants: A =      0.06317  B =      0.03666  C =      0.02322 [cm^-1]
  Rotational constants: A =   1893.68217  B =   1099.13060  C =    696.15400 [MHz]
  Nuclear repulsion =  590.795762614821570

  Charge       = 0
  Multiplicity = 1
  Electrons    = 78
  Nalpha       = 39
  Nbeta        = 39

  ==> Algorithm <==

  SCF Algorithm Type is DF.
  DIIS enabled.
  MOM disabled.
  Fractional occupation disabled.
  Guess Type is SAD.
  Energy threshold   = 1.00e-10
  Density threshold  = 1.00e-10
  Integral threshold = 0.00e+00

  ==> Primary Basis <==

  Basis Set: AUG-CC-PVTZ
    Blend: AUG-CC-PVTZ
    Number of shells: 199
    Number of basis function: 621
    Number of Cartesian functions: 730
    Spherical Harmonics?: true
    Max angular momentum: 3

   => Loading Basis Set <=

    Name: (AUG-CC-PVTZ AUX)
    Role: JKFIT
    Keyword: DF_BASIS_SCF
    atoms 1              entry O          line   286 file /home/xy3866/psi4conda/share/psi4/basis/aug-cc-pvtz-jkfit.gbs 
    atoms 2, 4, 6-7, 9   entry C          line   162 file /home/xy3866/psi4conda/share/psi4/basis/aug-cc-pvtz-jkfit.gbs 
    atoms 3, 5, 8, 10-11 entry N          line   224 file /home/xy3866/psi4conda/share/psi4/basis/aug-cc-pvtz-jkfit.gbs 
    atoms 12-16          entry H          line    70 file /home/xy3866/psi4conda/share/psi4/basis/aug-cc-pvtz-jkfit.gbs 

  ==> Pre-Iterations <==

   -------------------------------------------------------
    Irrep   Nso     Nmo     Nalpha   Nbeta   Ndocc  Nsocc
   -------------------------------------------------------
     A        621     621       0       0       0       0
   -------------------------------------------------------
    Total     621     621      39      39      39       0
   -------------------------------------------------------

  ==> Integral Setup <==

  DFHelper Memory: AOs need 3.830 GiB; user supplied 22.352 GiB. Using in-core AOs.

  ==> MemDFJK: Density-Fitted J/K Matrices <==

    J tasked:                   Yes
    K tasked:                   Yes
    wK tasked:                   No
    OpenMP threads:               8
    Memory [MiB]:             22888
    Algorithm:                 Disk
    Schwarz Cutoff:           1E-12
    Mask sparsity (%):       5.8899
    Fitting Condition:        1E-10

   => Auxiliary Basis Set <=

  Basis Set: (AUG-CC-PVTZ AUX)
    Blend: AUG-CC-PVTZ-JKFIT
    Number of shells: 400
    Number of basis function: 1374
    Number of Cartesian functions: 1716
    Spherical Harmonics?: true
    Max angular momentum: 4

  Minimum eigenvalue in the overlap matrix is 1.9021760656E-06.
  Using Symmetric Orthogonalization.

  SCF Guess: Superposition of Atomic Densities via on-the-fly atomic UHF.

  ==> Iterations <==

                           Total Energy        Delta E     RMS |[F,P]|

   @DF-RHF iter SAD:  -539.07836652171136   -5.39078e+02   0.00000e+00 
   @DF-RHF iter   1:  -539.23860442871319   -1.60238e-01   1.27084e-03 DIIS
   @DF-RHF iter   2:  -539.45317852349399   -2.14574e-01   7.86127e-04 DIIS
   @DF-RHF iter   3:  -539.53957738682948   -8.63989e-02   1.64183e-04 DIIS
   @DF-RHF iter   4:  -539.54515750765074   -5.58012e-03   6.72984e-05 DIIS
   @DF-RHF iter   5:  -539.54620544639135   -1.04794e-03   1.43394e-05 DIIS
   @DF-RHF iter   6:  -539.54631422815123   -1.08782e-04   8.50646e-06 DIIS
   @DF-RHF iter   7:  -539.54634727879034   -3.30506e-05   3.58465e-06 DIIS
   @DF-RHF iter   8:  -539.54635488445501   -7.60566e-06   1.56891e-06 DIIS
   @DF-RHF iter   9:  -539.54635627027290   -1.38582e-06   6.35840e-07 DIIS
   @DF-RHF iter  10:  -539.54635657522772   -3.04955e-07   3.37846e-07 DIIS
   @DF-RHF iter  11:  -539.54635664218949   -6.69618e-08   1.29906e-07 DIIS
   @DF-RHF iter  12:  -539.54635665559204   -1.34025e-08   5.36766e-08 DIIS
   @DF-RHF iter  13:  -539.54635665741580   -1.82376e-09   2.22834e-08 DIIS
   @DF-RHF iter  14:  -539.54635665774867   -3.32875e-10   9.20424e-09 DIIS
   @DF-RHF iter  15:  -539.54635665780586   -5.71845e-11   3.56958e-09 DIIS
   @DF-RHF iter  16:  -539.54635665781416   -8.29914e-12   1.70209e-09 DIIS
   @DF-RHF iter  17:  -539.54635665781700   -2.84217e-12   7.26225e-10 DIIS
   @DF-RHF iter  18:  -539.54635665781825   -1.25056e-12   3.01877e-10 DIIS
   @DF-RHF iter  19:  -539.54635665781552    2.72848e-12   1.28521e-10 DIIS
   @DF-RHF iter  20:  -539.54635665781780   -2.27374e-12   5.72860e-11 DIIS
  Energy and wave function converged.


  ==> Post-Iterations <==

    Orbital Energies [Eh]
    ---------------------

    Doubly Occupied:                                                      

       1A    -20.528877     2A    -15.646901     3A    -15.633562  
       4A    -15.612374     5A    -15.574445     6A    -15.573557  
       7A    -11.398385     8A    -11.371964     9A    -11.326663  
      10A    -11.317834    11A    -11.255576    12A     -1.394746  
      13A     -1.355521    14A     -1.330384    15A     -1.221810  
      16A     -1.213157    17A     -1.157785    18A     -1.029086  
      19A     -0.917551    20A     -0.883908    21A     -0.850423  
      22A     -0.803172    23A     -0.744024    24A     -0.732502  
      25A     -0.705620    26A     -0.673873    27A     -0.659307  
      28A     -0.644549    29A     -0.616701    30A     -0.595079  
      31A     -0.592987    32A     -0.549529    33A     -0.493875  
      34A     -0.459655    35A     -0.444203    36A     -0.430738  
      37A     -0.427265    38A     -0.405101    39A     -0.293346  

    Virtual:                                                              

      40A      0.015656    41A      0.022185    42A      0.035879  
      43A      0.044298    44A      0.051584    45A      0.064573  
      46A      0.076400    47A      0.084688    48A      0.089375  
      49A      0.093857    50A      0.097374    51A      0.105694  
      52A      0.108663    53A      0.111120    54A      0.117112  
      55A      0.119384    56A      0.123179    57A      0.128355  
      58A      0.133295    59A      0.137525    60A      0.141872  
      61A      0.143270    62A      0.150149    63A      0.153713  
      64A      0.162283    65A      0.174100    66A      0.175711  
      67A      0.180074    68A      0.185442    69A      0.187226  
      70A      0.194589    71A      0.207113    72A      0.210947  
      73A      0.211048    74A      0.215000    75A      0.219180  
      76A      0.229412    77A      0.230102    78A      0.234783  
      79A      0.251890    80A      0.257677    81A      0.263370  
      82A      0.271241    83A      0.273941    84A      0.278359  
      85A      0.283249    86A      0.295952    87A      0.299045  
      88A      0.306630    89A      0.309644    90A      0.313901  
      91A      0.316663    92A      0.320403    93A      0.329540  
      94A      0.334759    95A      0.338373    96A      0.340022  
      97A      0.355640    98A      0.357358    99A      0.362036  
     100A      0.366515   101A      0.369555   102A      0.379250  
     103A      0.384291   104A      0.387007   105A      0.393304  
     106A      0.400414   107A      0.404225   108A      0.407950  
     109A      0.418944   110A      0.424413   111A      0.428439  
     112A      0.435353   113A      0.448063   114A      0.450213  
     115A      0.453790   116A      0.458864   117A      0.464751  
     118A      0.467566   119A      0.469305   120A      0.477601  
     121A      0.481552   122A      0.487901   123A      0.495360  
     124A      0.498240   125A      0.499942   126A      0.511787  
     127A      0.521177   128A      0.527629   129A      0.537937  
     130A      0.540811   131A      0.545347   132A      0.552270  
     133A      0.553630   134A      0.560860   135A      0.569666  
     136A      0.584742   137A      0.594679   138A      0.597133  
     139A      0.606958   140A      0.609204   141A      0.622152  
     142A      0.627590   143A      0.640282   144A      0.643687  
     145A      0.647066   146A      0.651863   147A      0.658729  
     148A      0.659014   149A      0.665331   150A      0.669905  
     151A      0.680205   152A      0.700075   153A      0.703553  
     154A      0.710442   155A      0.719665   156A      0.725842  
     157A      0.729204   158A      0.741257   159A      0.748189  
     160A      0.756193   161A      0.757804   162A      0.770823  
     163A      0.771039   164A      0.779933   165A      0.791872  
     166A      0.792463   167A      0.797717   168A      0.806321  
     169A      0.816020   170A      0.829701   171A      0.837360  
     172A      0.840548   173A      0.850607   174A      0.852845  
     175A      0.860340   176A      0.870618   177A      0.879270  
     178A      0.880874   179A      0.890601   180A      0.895849  
     181A      0.901596   182A      0.907185   183A      0.914953  
     184A      0.926577   185A      0.938260   186A      0.944418  
     187A      0.944675   188A      0.952063   189A      0.959500  
     190A      0.966600   191A      0.976085   192A      0.976995  
     193A      0.987297   194A      0.991361   195A      1.005227  
     196A      1.010631   197A      1.016636   198A      1.025903  
     199A      1.033767   200A      1.037218   201A      1.041191  
     202A      1.044386   203A      1.052380   204A      1.060697  
     205A      1.072564   206A      1.080016   207A      1.082391  
     208A      1.087906   209A      1.095143   210A      1.100681  
     211A      1.102961   212A      1.110073   213A      1.118131  
     214A      1.125821   215A      1.136019   216A      1.142572  
     217A      1.152847   218A      1.166336   219A      1.173594  
     220A      1.175533   221A      1.181713   222A      1.188325  
     223A      1.200395   224A      1.205053   225A      1.231203  
     226A      1.233927   227A      1.245095   228A      1.248271  
     229A      1.250271   230A      1.252090   231A      1.260601  
     232A      1.280565   233A      1.280947   234A      1.290323  
     235A      1.299076   236A      1.308354   237A      1.316831  
     238A      1.326144   239A      1.331189   240A      1.337630  
     241A      1.349145   242A      1.351325   243A      1.363213  
     244A      1.368779   245A      1.377582   246A      1.380920  
     247A      1.389855   248A      1.400730   249A      1.420656  
     250A      1.421856   251A      1.425603   252A      1.441610  
     253A      1.448804   254A      1.459848   255A      1.463267  
     256A      1.470132   257A      1.475843   258A      1.494192  
     259A      1.505637   260A      1.513644   261A      1.516487  
     262A      1.529242   263A      1.535053   264A      1.539848  
     265A      1.548755   266A      1.554785   267A      1.571078  
     268A      1.572395   269A      1.587151   270A      1.596027  
     271A      1.603995   272A      1.623930   273A      1.625705  
     274A      1.642189   275A      1.650999   276A      1.663623  
     277A      1.672048   278A      1.678943   279A      1.691972  
     280A      1.697698   281A      1.711782   282A      1.718617  
     283A      1.726497   284A      1.733161   285A      1.744697  
     286A      1.763196   287A      1.773360   288A      1.779858  
     289A      1.807618   290A      1.814757   291A      1.831813  
     292A      1.833827   293A      1.847335   294A      1.862417  
     295A      1.865640   296A      1.879001   297A      1.905553  
     298A      1.912745   299A      1.926292   300A      1.942812  
     301A      1.953149   302A      1.966718   303A      1.983892  
     304A      1.993624   305A      1.997353   306A      2.010954  
     307A      2.041092   308A      2.053387   309A      2.058167  
     310A      2.065719   311A      2.070617   312A      2.079526  
     313A      2.093782   314A      2.104391   315A      2.111995  
     316A      2.117652   317A      2.132057   318A      2.143239  
     319A      2.159742   320A      2.168746   321A      2.191716  
     322A      2.195414   323A      2.209073   324A      2.224526  
     325A      2.226362   326A      2.234482   327A      2.258657  
     328A      2.283687   329A      2.288827   330A      2.291125  
     331A      2.307728   332A      2.314308   333A      2.324245  
     334A      2.330317   335A      2.332359   336A      2.355172  
     337A      2.356668   338A      2.370413   339A      2.380173  
     340A      2.395224   341A      2.399445   342A      2.418555  
     343A      2.423774   344A      2.428332   345A      2.436575  
     346A      2.451089   347A      2.464122   348A      2.468131  
     349A      2.481143   350A      2.493190   351A      2.503779  
     352A      2.514734   353A      2.526008   354A      2.548645  
     355A      2.558436   356A      2.579414   357A      2.581072  
     358A      2.592325   359A      2.622310   360A      2.639797  
     361A      2.651398   362A      2.657305   363A      2.665379  
     364A      2.683343   365A      2.694938   366A      2.699778  
     367A      2.706141   368A      2.718344   369A      2.727551  
     370A      2.743511   371A      2.761496   372A      2.793069  
     373A      2.800074   374A      2.805686   375A      2.813175  
     376A      2.825325   377A      2.856832   378A      2.868200  
     379A      2.898594   380A      2.918677   381A      2.941609  
     382A      2.995250   383A      3.003976   384A      3.041061  
     385A      3.066912   386A      3.076460   387A      3.092385  
     388A      3.099347   389A      3.106096   390A      3.131599  
     391A      3.160990   392A      3.202858   393A      3.232156  
     394A      3.241772   395A      3.263125   396A      3.290510  
     397A      3.314988   398A      3.319393   399A      3.346820  
     400A      3.358527   401A      3.398840   402A      3.406840  
     403A      3.439253   404A      3.452244   405A      3.488929  
     406A      3.497446   407A      3.515113   408A      3.533470  
     409A      3.559285   410A      3.583587   411A      3.589881  
     412A      3.590661   413A      3.621493   414A      3.650758  
     415A      3.657889   416A      3.670668   417A      3.677306  
     418A      3.688358   419A      3.708359   420A      3.714667  
     421A      3.732743   422A      3.740758   423A      3.763396  
     424A      3.770569   425A      3.790158   426A      3.812729  
     427A      3.819767   428A      3.826574   429A      3.847689  
     430A      3.850574   431A      3.874811   432A      3.900571  
     433A      3.902780   434A      3.909830   435A      3.948276  
     436A      3.964115   437A      3.974380   438A      3.979308  
     439A      3.997963   440A      4.013283   441A      4.016166  
     442A      4.033329   443A      4.047430   444A      4.067211  
     445A      4.071915   446A      4.084732   447A      4.100932  
     448A      4.124584   449A      4.136631   450A      4.152528  
     451A      4.161956   452A      4.172577   453A      4.190301  
     454A      4.201147   455A      4.214030   456A      4.219894  
     457A      4.231831   458A      4.243062   459A      4.253047  
     460A      4.263787   461A      4.279329   462A      4.292810  
     463A      4.306903   464A      4.313064   465A      4.324551  
     466A      4.332699   467A      4.359231   468A      4.370541  
     469A      4.394420   470A      4.396155   471A      4.433828  
     472A      4.450650   473A      4.465023   474A      4.479693  
     475A      4.487007   476A      4.493275   477A      4.499588  
     478A      4.523172   479A      4.553133   480A      4.565508  
     481A      4.575867   482A      4.588269   483A      4.602670  
     484A      4.614974   485A      4.630036   486A      4.649178  
     487A      4.677032   488A      4.694260   489A      4.711339  
     490A      4.741474   491A      4.749823   492A      4.772258  
     493A      4.789710   494A      4.814293   495A      4.828034  
     496A      4.835106   497A      4.879571   498A      4.891918  
     499A      4.916303   500A      4.943911   501A      4.957185  
     502A      4.964063   503A      5.000457   504A      5.014921  
     505A      5.021936   506A      5.036934   507A      5.057026  
     508A      5.101856   509A      5.116387   510A      5.126728  
     511A      5.152385   512A      5.178333   513A      5.189962  
     514A      5.217544   515A      5.241797   516A      5.256040  
     517A      5.264572   518A      5.286156   519A      5.309728  
     520A      5.321969   521A      5.348672   522A      5.358873  
     523A      5.372616   524A      5.397848   525A      5.437611  
     526A      5.446761   527A      5.470041   528A      5.487135  
     529A      5.495957   530A      5.519519   531A      5.523766  
     532A      5.544737   533A      5.570364   534A      5.599104  
     535A      5.619281   536A      5.625583   537A      5.642464  
     538A      5.645882   539A      5.670630   540A      5.682564  
     541A      5.727008   542A      5.735506   543A      5.756267  
     544A      5.770747   545A      5.794038   546A      5.807331  
     547A      5.824371   548A      5.832928   549A      5.856397  
     550A      5.872014   551A      5.891048   552A      5.914784  
     553A      5.931186   554A      5.953839   555A      5.971024  
     556A      5.994613   557A      6.013369   558A      6.020345  
     559A      6.048260   560A      6.089710   561A      6.099864  
     562A      6.108490   563A      6.132052   564A      6.153316  
     565A      6.178207   566A      6.195106   567A      6.229562  
     568A      6.260685   569A      6.270791   570A      6.315844  
     571A      6.358115   572A      6.410613   573A      6.456047  
     574A      6.502319   575A      6.527698   576A      6.562979  
     577A      6.635029   578A      6.651992   579A      6.660323  
     580A      6.691484   581A      6.694405   582A      6.721189  
     583A      6.756027   584A      6.765081   585A      6.805455  
     586A      6.867077   587A      6.915130   588A      6.952132  
     589A      6.992039   590A      7.001614   591A      7.028715  
     592A      7.087236   593A      7.110013   594A      7.136601  
     595A      7.214321   596A      7.229640   597A      7.287301  
     598A      7.359808   599A      7.408870   600A      7.411870  
     601A      7.450105   602A      7.497683   603A      7.648474  
     604A      7.720792   605A      7.755394   606A      7.797545  
     607A      7.837201   608A      7.908087   609A      7.981057  
     610A      8.033025   611A     15.734834   612A     16.123648  
     613A     16.462668   614A     16.905600   615A     17.655450  
     616A     18.072446   617A     18.762872   618A     19.388334  
     619A     19.822884   620A     20.511625   621A     20.988640  

    Final Occupation by Irrep:
              A 
    DOCC [    39 ]

  @DF-RHF Final Energy:  -539.54635665781780

   => Energetics <=

    Nuclear Repulsion Energy =            590.7957626148215695
    One-Electron Energy =               -1906.9521688073355108
    Two-Electron Energy =                 776.6100495346961452
    Total Energy =                       -539.5463566578177961

Computation Completed

*** tstop() called on node35.bme.utexas.edu at Thu Nov  5 13:25:15 2020
Module time:
	user time   =     516.90 seconds =       8.62 minutes
	system time =     104.43 seconds =       1.74 minutes
	total time  =        142 seconds =       2.37 minutes
Total time:
	user time   =     516.90 seconds =       8.62 minutes
	system time =     104.43 seconds =       1.74 minutes
	total time  =        142 seconds =       2.37 minutes
   => Loading Basis Set <=

    Name: (AUG-CC-PVTZ AUX)
    Role: RIFIT
    Keyword: DF_BASIS_MP2
    atoms 1              entry O          line   264 file /home/xy3866/psi4conda/share/psi4/basis/aug-cc-pvtz-ri.gbs 
    atoms 2, 4, 6-7, 9   entry C          line   148 file /home/xy3866/psi4conda/share/psi4/basis/aug-cc-pvtz-ri.gbs 
    atoms 3, 5, 8, 10-11 entry N          line   206 file /home/xy3866/psi4conda/share/psi4/basis/aug-cc-pvtz-ri.gbs 
    atoms 12-16          entry H          line    30 file /home/xy3866/psi4conda/share/psi4/basis/aug-cc-pvtz-ri.gbs 


*** tstart() called on node35.bme.utexas.edu
*** at Thu Nov  5 13:25:15 2020


  //>>>>>>>>>>>>>>>>>>>>>>>>>>>>>>>>>>>//
  //               DFMP2               //
  //<<<<<<<<<<<<<<<<<<<<<<<<<<<<<<<<<<<//

	 --------------------------------------------------------
	                          DF-MP2                         
	      2nd-Order Density-Fitted Moller-Plesset Theory     
	              RMP2 Wavefunction,   8 Threads             
	                                                         
	        Rob Parrish, Justin Turney, Andy Simmonett,      
	           Ed Hohenstein, and C. David Sherrill          
	 --------------------------------------------------------

   => Auxiliary Basis Set <=

  Basis Set: (AUG-CC-PVTZ AUX)
    Blend: AUG-CC-PVTZ-RI
    Number of shells: 378
    Number of basis function: 1396
    Number of Cartesian functions: 1771
    Spherical Harmonics?: true
    Max angular momentum: 4

	 --------------------------------------------------------
	                 NBF =   621, NAUX =  1396
	 --------------------------------------------------------
	   CLASS    FOCC     OCC    AOCC    AVIR     VIR    FVIR
	   PAIRS       0      39      39     582     582       0
	 --------------------------------------------------------

  DFHelper Memory: AOs need 3.830 GiB; user supplied 22.352 GiB. Using in-core AOs.


         ------------------------------------------------------------
                                     CPHF                           
                                  Rob Parrish                       
         ------------------------------------------------------------

  ==> Geometry <==

    Molecular point group: c1
    Full point group: C1

    Geometry (in Angstrom), charge = 0, multiplicity = 1:

       Center              X                  Y                   Z               Mass       
    ------------   -----------------  -----------------  -----------------  -----------------
         O            0.206006757305     2.677225280863    -0.005526140423    15.994914619570
         C            0.238541757305     1.452739280863     0.007255859577    12.000000000000
         N            1.495558757305     0.770822280863    -0.002168140423    14.003074004430
         C            1.699217757305    -0.586636719137     0.004849859577    12.000000000000
         N            0.733675757305    -1.473003719137     0.014165859577    14.003074004430
         C           -0.495134242695    -0.876554719137    -0.000658140423    12.000000000000
         C           -0.823954242695     0.477683280863     0.018124859577    12.000000000000
         N           -2.188261242695     0.667566280863     0.016286859577    14.003074004430
         C           -2.774133542695    -0.669669019137     0.001514259577    12.000000000000
         N           -1.700628242695    -1.528106719137    -0.004427140423    14.003074004430
         N            3.019342757305    -1.002142719137    -0.076857140423    14.003074004430
         H            2.293460757305     1.394183280863    -0.101625140423     1.007825032230
         H           -3.731259242695    -0.813634719137    -0.000523140423     1.007825032230
         H           -1.823226242695    -2.533984719137    -0.018150140423     1.007825032230
         H            3.092474757305    -2.003818719137     0.070909859577     1.007825032230
         H            3.671817757305    -0.484732719137     0.503344859577     1.007825032230

  Nuclear repulsion =  590.795762614821570
  Reference energy  = -539.546356657817796

  ==> Basis Set <==

  Basis Set: AUG-CC-PVTZ
    Blend: AUG-CC-PVTZ
    Number of shells: 199
    Number of basis function: 621
    Number of Cartesian functions: 730
    Spherical Harmonics?: true
    Max angular momentum: 3

  ==> CGRSolver (by Rob Parrish) <==

   Number of roots    =         1
   Preconditioning    =    JACOBI
   Convergence cutoff =     1E-06
   Maximum iterations =       100

  ==> CPHFRHamiltonian (by Rob Parrish) <== 

  ==> MemDFJK: Density-Fitted J/K Matrices <==

    J tasked:                   Yes
    K tasked:                   Yes
    wK tasked:                   No
    OpenMP threads:               8
    Memory [MiB]:             22888
    Algorithm:                 Disk
    Schwarz Cutoff:           1E-12
    Mask sparsity (%):       5.8899
    Fitting Condition:        1E-10

   => Auxiliary Basis Set <=

  Basis Set: (AUG-CC-PVTZ AUX)
    Blend: AUG-CC-PVTZ-JKFIT
    Number of shells: 400
    Number of basis function: 1374
    Number of Cartesian functions: 1716
    Spherical Harmonics?: true
    Max angular momentum: 4

  ==> CPHF Iterations <==

  => Iterations <=

             Iter  Converged  Remaining    Residual
  CGR           1          0          1   1.347E-01
  CGR           2          0          1   4.707E-02
  CGR           3          0          1   2.321E-02
  CGR           4          0          1   7.986E-03
  CGR           5          0          1   3.968E-03
  CGR           6          0          1   1.836E-03
  CGR           7          0          1   6.608E-04
  CGR           8          0          1   2.960E-04
  CGR           9          0          1   1.149E-04
  CGR          10          0          1   5.544E-05
  CGR          11          0          1   2.373E-05
  CGR          12          0          1   8.594E-06
  CGR          13          0          1   3.457E-06
  CGR          14          0          1   1.066E-06
  CGR          15          1          0   3.924E-07

    CGRSolver converged.

	-----------------------------------------------------------
	 ==================> DF-MP2 Energies <==================== 
	-----------------------------------------------------------
	 Reference Energy          =    -539.5463566578177961 [Eh]
	 Singles Energy            =      -0.0000000000000000 [Eh]
	 Same-Spin Energy          =      -0.5769791656335264 [Eh]
	 Opposite-Spin Energy      =      -1.6716794307172060 [Eh]
	 Correlation Energy        =      -2.2486585963507322 [Eh]
	 Total Energy              =    -541.7950152541685611 [Eh]
	-----------------------------------------------------------
	 ================> DF-SCS-MP2 Energies <================== 
	-----------------------------------------------------------
	 SCS Same-Spin Scale       =       0.3333333333333333 [-]
	 SCS Opposite-Spin Scale   =       1.2000000000000000 [-]
	 SCS Same-Spin Energy      =      -0.1923263885445088 [Eh]
	 SCS Opposite-Spin Energy  =      -2.0060153168606472 [Eh]
	 SCS Correlation Energy    =      -2.1983417054051557 [Eh]
	 SCS Total Energy          =    -541.7446983632229376 [Eh]
	-----------------------------------------------------------



Properties will be evaluated at   0.000000,   0.000000,  -0.000000 [a0]

Properties computed using the MP2 density matrix

  Nuclear Dipole Moment: [e a0]
     X:     3.2812      Y:    -4.1439      Z:     0.4257

  Electronic Dipole Moment: [e a0]
     X:    -2.1760      Y:     1.9011      Z:    -0.0940

  Dipole Moment: [e a0]
     X:     1.1052      Y:    -2.2428      Z:     0.3317     Total:     2.5222

  Dipole Moment: [D]
     X:     2.8092      Y:    -5.7006      Z:     0.8430     Total:     6.4109


*** tstop() called on node35.bme.utexas.edu at Thu Nov  5 13:30:53 2020
Module time:
	user time   =    1683.17 seconds =      28.05 minutes
	system time =     200.99 seconds =       3.35 minutes
	total time  =        338 seconds =       5.63 minutes
Total time:
	user time   =    2201.17 seconds =      36.69 minutes
	system time =     305.48 seconds =       5.09 minutes
	total time  =        480 seconds =       8.00 minutes

    Psi4 stopped on: Thursday, 05 November 2020 01:30PM
    Psi4 wall time for execution: 0:08:00.35

*** Psi4 exiting successfully. Buy a developer a beer!
