
    -----------------------------------------------------------------------
          Psi4: An Open-Source Ab Initio Electronic Structure Package
                               Psi4 1.4a3.dev225 

                         Git: Rev {master} 7105e37 


    D. G. A. Smith, L. A. Burns, A. C. Simmonett, R. M. Parrish,
    M. C. Schieber, R. Galvelis, P. Kraus, H. Kruse, R. Di Remigio,
    A. Alenaizan, A. M. James, S. Lehtola, J. P. Misiewicz, M. Scheurer,
    R. A. Shaw, J. B. Schriber, Y. Xie, Z. L. Glick, D. A. Sirianni,
    J. S. O'Brien, J. M. Waldrop, A. Kumar, E. G. Hohenstein,
    B. P. Pritchard, B. R. Brooks, H. F. Schaefer III, A. Yu. Sokolov,
    K. Patkowski, A. E. DePrince III, U. Bozkaya, R. A. King,
    F. A. Evangelista, J. M. Turney, T. D. Crawford, C. D. Sherrill,
    J. Chem. Phys. 152(18) 184108 (2020). https://doi.org/10.1063/5.0006002

                            Additional Code Authors
    E. T. Seidl, C. L. Janssen, E. F. Valeev, M. L. Leininger,
    J. F. Gonthier, R. M. Richard, H. R. McAlexander, M. Saitow, X. Wang,
    P. Verma, and M. H. Lechner

             Previous Authors, Complete List of Code Contributors,
                       and Citations for Specific Modules
    https://github.com/psi4/psi4/blob/master/codemeta.json
    https://github.com/psi4/psi4/graphs/contributors
    http://psicode.org/psi4manual/master/introduction.html#citing-psifour

    -----------------------------------------------------------------------


    Psi4 started on: Friday, 19 March 2021 05:50AM

    Process ID: 214723
    Host:       c444-063.stampede2.tacc.utexas.edu
    PSIDATADIR: /home1/07844/xy3866/miniconda3/envs/p4env/share/psi4
    Memory:     500.0 MiB
    Threads:    32
    
  ==> Input File <==

--------------------------------------------------------------------------
#psi4
#
memory 32 gb

molecule  {
0 1
  O        0.1763800     2.6970850    -0.0086780
  C        0.2088860     1.4725900     0.0042210
  N        1.4659360     0.7906750    -0.0050880
  C        1.6696170    -0.5667500     0.0018210
  N        0.7040680    -1.4531450     0.0111020
  C       -0.5247290    -0.8567090    -0.0037110
  C       -0.8535850     0.4975420     0.0152200
  N       -2.2178950     0.6873840     0.0133320
  C       -2.7007143    -0.5237787     0.0005540
  N       -1.7302140    -1.5082770    -0.0075250
  N        2.9897250    -0.9823190    -0.0798750
  H        2.2637990     1.4140370    -0.1048620
  H       -3.7608500    -0.7938460    -0.0035590
  H       -1.8527810    -2.5141570    -0.0214260
  H        3.0628080    -1.9839860     0.0679760
  H        3.6422460    -0.4648460     0.5002060
units angstrom
no_reorient  #important for SAPT in psi4, default
symmetry c1  #important for SAPT in psi4, default
}

set PROPERTIES_ORIGIN ["COM"]
properties('MP2/aug-cc-pvtz', properties = ['dipole'])
--------------------------------------------------------------------------

  Memory set to  29.802 GiB by Python driver.
    SCF Algorithm Type (re)set to DF.

*** tstart() called on c444-063.stampede2.tacc.utexas.edu
*** at Fri Mar 19 05:50:14 2021
    => Loading Basis Set <=

    Name: AUG-CC-PVTZ
    Role: ORBITAL
    Keyword: BASIS
    atoms 1              entry O          line   331 file /home1/07844/xy3866/miniconda3/envs/p4env/share/psi4/basis/aug-cc-pvtz.gbs 
    atoms 2, 4, 6-7, 9   entry C          line   239 file /home1/07844/xy3866/miniconda3/envs/p4env/share/psi4/basis/aug-cc-pvtz.gbs 
    atoms 3, 5, 8, 10-11 entry N          line   285 file /home1/07844/xy3866/miniconda3/envs/p4env/share/psi4/basis/aug-cc-pvtz.gbs 
    atoms 12-16          entry H          line    40 file /home1/07844/xy3866/miniconda3/envs/p4env/share/psi4/basis/aug-cc-pvtz.gbs 


         ---------------------------------------------------------
                                   SCF
               by Justin Turney, Rob Parrish, Andy Simmonett
                          and Daniel G. A. Smith
                              RHF Reference
                       32 Threads,  30517 MiB Core
         ---------------------------------------------------------

  ==> Geometry <==

    Molecular point group: c1
    Full point group: C1

    Geometry (in Angstrom), charge = 0, multiplicity = 1:

       Center              X                  Y                   Z               Mass       
    ------------   -----------------  -----------------  -----------------  -----------------
         O            0.197811658145     2.667224123013    -0.005813082604    15.994914619570
         C            0.230317658145     1.442729123013     0.007085917396    12.000000000000
         N            1.487367658145     0.760814123013    -0.002223082604    14.003074004430
         C            1.691048658145    -0.596610876987     0.004685917396    12.000000000000
         N            0.725499658145    -1.483005876987     0.013966917396    14.003074004430
         C           -0.503297341855    -0.886569876987    -0.000846082604    12.000000000000
         C           -0.832153341855     0.467681123013     0.018084917396    12.000000000000
         N           -2.196463341855     0.657523123013     0.016196917396    14.003074004430
         C           -2.679282641855    -0.553639576987     0.003418917396    12.000000000000
         N           -1.708782341855    -1.538137876987    -0.004660082604    14.003074004430
         N            3.011156658145    -1.012179876987    -0.077010082604    14.003074004430
         H            2.285230658145     1.384176123013    -0.101997082604     1.007825032230
         H           -3.739418341855    -0.823706876987    -0.000694082604     1.007825032230
         H           -1.831349341855    -2.544017876987    -0.018561082604     1.007825032230
         H            3.084239658145    -2.013846876987     0.070840917396     1.007825032230
         H            3.663677658145    -0.494706876987     0.503070917396     1.007825032230

  Running in c1 symmetry.

  Rotational constants: A =      0.06362  B =      0.03720  C =      0.02350 [cm^-1]
  Rotational constants: A =   1907.33515  B =   1115.33972  C =    704.49175 [MHz]
  Nuclear repulsion =  593.945997216596083

  Charge       = 0
  Multiplicity = 1
  Electrons    = 78
  Nalpha       = 39
  Nbeta        = 39

  ==> Algorithm <==

  SCF Algorithm Type is DF.
  DIIS enabled.
  MOM disabled.
  Fractional occupation disabled.
  Guess Type is SAD.
  Energy threshold   = 1.00e-10
  Density threshold  = 1.00e-10
  Integral threshold = 1.00e-12

  ==> Primary Basis <==

  Basis Set: AUG-CC-PVTZ
    Blend: AUG-CC-PVTZ
    Number of shells: 199
    Number of basis functions: 621
    Number of Cartesian functions: 730
    Spherical Harmonics?: true
    Max angular momentum: 3

   => Loading Basis Set <=

    Name: (AUG-CC-PVTZ AUX)
    Role: JKFIT
    Keyword: DF_BASIS_SCF
    atoms 1              entry O          line   286 file /home1/07844/xy3866/miniconda3/envs/p4env/share/psi4/basis/aug-cc-pvtz-jkfit.gbs 
    atoms 2, 4, 6-7, 9   entry C          line   162 file /home1/07844/xy3866/miniconda3/envs/p4env/share/psi4/basis/aug-cc-pvtz-jkfit.gbs 
    atoms 3, 5, 8, 10-11 entry N          line   224 file /home1/07844/xy3866/miniconda3/envs/p4env/share/psi4/basis/aug-cc-pvtz-jkfit.gbs 
    atoms 12-16          entry H          line    70 file /home1/07844/xy3866/miniconda3/envs/p4env/share/psi4/basis/aug-cc-pvtz-jkfit.gbs 
   ==> Integral Setup <==

  DFHelper Memory: AOs need 3.755 GiB; user supplied 22.352 GiB. Using in-core AOs.
   ==> MemDFJK: Density-Fitted J/K Matrices <==

    J tasked:                   Yes
    K tasked:                   Yes
    wK tasked:                   No
    OpenMP threads:              32
    Memory [MiB]:             22888
    Algorithm:                 Core
    Schwarz Cutoff:           1E-12
    Mask sparsity (%):       9.5415
    Fitting Condition:        1E-10

   => Auxiliary Basis Set <=

  Basis Set: (AUG-CC-PVTZ AUX)
    Blend: AUG-CC-PVTZ-JKFIT
    Number of shells: 400
    Number of basis functions: 1374
    Number of Cartesian functions: 1716
    Spherical Harmonics?: true
    Max angular momentum: 4

  Minimum eigenvalue in the overlap matrix is 1.8908149825E-06.
  Reciprocal condition number of the overlap matrix is 1.0972298220E-07.
    Using symmetric orthogonalization.

  ==> Pre-Iterations <==

  SCF Guess: Superposition of Atomic Densities via on-the-fly atomic UHF (no occupation information).

   -------------------------
    Irrep   Nso     Nmo    
   -------------------------
     A        621     621 
   -------------------------
    Total     621     621
   -------------------------

  ==> Iterations <==

                           Total Energy        Delta E     RMS |[F,P]|

   @DF-RHF iter SAD:  -539.32715093283809   -5.39327e+02   0.00000e+00 
   @DF-RHF iter   1:  -539.28129874538081    4.58522e-02   1.27828e-03 DIIS
   @DF-RHF iter   2:  -539.50506789041276   -2.23769e-01   7.52008e-04 DIIS
   @DF-RHF iter   3:  -539.58251707697934   -7.74492e-02   1.56524e-04 DIIS
   @DF-RHF iter   4:  -539.58753504290314   -5.01797e-03   6.48969e-05 DIIS
   @DF-RHF iter   5:  -539.58850346806094   -9.68425e-04   1.36809e-05 DIIS
   @DF-RHF iter   6:  -539.58860476258724   -1.01295e-04   7.03933e-06 DIIS
   @DF-RHF iter   7:  -539.58863062814953   -2.58656e-05   2.92479e-06 DIIS
   @DF-RHF iter   8:  -539.58863539481865   -4.76667e-06   1.02017e-06 DIIS
   @DF-RHF iter   9:  -539.58863593367789   -5.38859e-07   4.04607e-07 DIIS
   @DF-RHF iter  10:  -539.58863602783117   -9.41533e-08   1.62309e-07 DIIS
   @DF-RHF iter  11:  -539.58863604124372   -1.34125e-08   6.64164e-08 DIIS
   @DF-RHF iter  12:  -539.58863604327553   -2.03181e-09   2.32576e-08 DIIS
   @DF-RHF iter  13:  -539.58863604354406   -2.68528e-10   9.37372e-09 DIIS
   @DF-RHF iter  14:  -539.58863604358191   -3.78577e-11   3.01163e-09 DIIS
   @DF-RHF iter  15:  -539.58863604358851   -6.59384e-12   1.32112e-09 DIIS
   @DF-RHF iter  16:  -539.58863604358862   -1.13687e-13   6.13817e-10 DIIS
   @DF-RHF iter  17:  -539.58863604358839    2.27374e-13   2.20027e-10 DIIS
   @DF-RHF iter  18:  -539.58863604358874   -3.41061e-13   1.17188e-10 DIIS
   @DF-RHF iter  19:  -539.58863604358919   -4.54747e-13   4.15712e-11 DIIS
  Energy and wave function converged.


  ==> Post-Iterations <==

    Orbital Energies [Eh]
    ---------------------

    Doubly Occupied:                                                      

       1A    -20.523849     2A    -15.634240     3A    -15.631883  
       4A    -15.612587     5A    -15.573585     6A    -15.564545  
       7A    -11.398929     8A    -11.367612     9A    -11.328155  
      10A    -11.313888    11A    -11.251039    12A     -1.393502  
      13A     -1.361241    14A     -1.336298    15A     -1.220905  
      16A     -1.219969    17A     -1.180517    18A     -1.031932  
      19A     -0.905090    20A     -0.885905    21A     -0.843895  
      22A     -0.798755    23A     -0.740943    24A     -0.729842  
      25A     -0.699954    26A     -0.673096    27A     -0.656250  
      28A     -0.632590    29A     -0.614577    30A     -0.601696  
      31A     -0.596588    32A     -0.547822    33A     -0.500230  
      34A     -0.463490    35A     -0.443286    36A     -0.433651  
      37A     -0.433210    38A     -0.412690    39A     -0.304570  

    Virtual:                                                              

      40A      0.015779    41A      0.022631    42A      0.036014  
      43A      0.044603    44A      0.051732    45A      0.064791  
      46A      0.077513    47A      0.085375    48A      0.088612  
      49A      0.094181    50A      0.097138    51A      0.106210  
      52A      0.110588    53A      0.111438    54A      0.117618  
      55A      0.121247    56A      0.126924    57A      0.130969  
      58A      0.136800    59A      0.140185    60A      0.142327  
      61A      0.143796    62A      0.151395    63A      0.155544  
      64A      0.163160    65A      0.174658    66A      0.176089  
      67A      0.180271    68A      0.186027    69A      0.191519  
      70A      0.193970    71A      0.207430    72A      0.210763  
      73A      0.212194    74A      0.214693    75A      0.220071  
      76A      0.225813    77A      0.230652    78A      0.233884  
      79A      0.250413    80A      0.257016    81A      0.263578  
      82A      0.272382    83A      0.274543    84A      0.278619  
      85A      0.284238    86A      0.296633    87A      0.299059  
      88A      0.307290    89A      0.310746    90A      0.312498  
      91A      0.316683    92A      0.322636    93A      0.330922  
      94A      0.336511    95A      0.341414    96A      0.342636  
      97A      0.356483    98A      0.361408    99A      0.362837  
     100A      0.369483   101A      0.375587   102A      0.378037  
     103A      0.382135   104A      0.387219   105A      0.393287  
     106A      0.401786   107A      0.404765   108A      0.410395  
     109A      0.421399   110A      0.425209   111A      0.434234  
     112A      0.438415   113A      0.448772   114A      0.450604  
     115A      0.455646   116A      0.459186   117A      0.464439  
     118A      0.465898   119A      0.473845   120A      0.476801  
     121A      0.480021   122A      0.494331   123A      0.494683  
     124A      0.500651   125A      0.504238   126A      0.513483  
     127A      0.523111   128A      0.526858   129A      0.530428  
     130A      0.537106   131A      0.543482   132A      0.550014  
     133A      0.554100   134A      0.557645   135A      0.568229  
     136A      0.585802   137A      0.593313   138A      0.596978  
     139A      0.605281   140A      0.610945   141A      0.621860  
     142A      0.628172   143A      0.638452   144A      0.646016  
     145A      0.654052   146A      0.655832   147A      0.659218  
     148A      0.663219   149A      0.669102   150A      0.677065  
     151A      0.691831   152A      0.698798   153A      0.708993  
     154A      0.710852   155A      0.722604   156A      0.727984  
     157A      0.732003   158A      0.740990   159A      0.748582  
     160A      0.755857   161A      0.761682   162A      0.768724  
     163A      0.775997   164A      0.781754   165A      0.792248  
     166A      0.799348   167A      0.804501   168A      0.815596  
     169A      0.820575   170A      0.825667   171A      0.836461  
     172A      0.843155   173A      0.857433   174A      0.858981  
     175A      0.863535   176A      0.874303   177A      0.883127  
     178A      0.885379   179A      0.894509   180A      0.900117  
     181A      0.906370   182A      0.908130   183A      0.916963  
     184A      0.932588   185A      0.939066   186A      0.944994  
     187A      0.947067   188A      0.957076   189A      0.960847  
     190A      0.966622   191A      0.975021   192A      0.977280  
     193A      0.987473   194A      1.004883   195A      1.006539  
     196A      1.012536   197A      1.019432   198A      1.024259  
     199A      1.030573   200A      1.032383   201A      1.041216  
     202A      1.048282   203A      1.051989   204A      1.063696  
     205A      1.070663   206A      1.075610   207A      1.083102  
     208A      1.087577   209A      1.092302   210A      1.100855  
     211A      1.102630   212A      1.110112   213A      1.116467  
     214A      1.129736   215A      1.139984   216A      1.142934  
     217A      1.148706   218A      1.163173   219A      1.171927  
     220A      1.176806   221A      1.180172   222A      1.189025  
     223A      1.203113   224A      1.206295   225A      1.226394  
     226A      1.228932   227A      1.234054   228A      1.245718  
     229A      1.248608   230A      1.251045   231A      1.254623  
     232A      1.273269   233A      1.280071   234A      1.287915  
     235A      1.295496   236A      1.306512   237A      1.318531  
     238A      1.330655   239A      1.337425   240A      1.338604  
     241A      1.350908   242A      1.352625   243A      1.360535  
     244A      1.370550   245A      1.378222   246A      1.379670  
     247A      1.390488   248A      1.402598   249A      1.421886  
     250A      1.424622   251A      1.428736   252A      1.443165  
     253A      1.448055   254A      1.453778   255A      1.466196  
     256A      1.466640   257A      1.473562   258A      1.489445  
     259A      1.503470   260A      1.516172   261A      1.526087  
     262A      1.529759   263A      1.542983   264A      1.544099  
     265A      1.554557   266A      1.563081   267A      1.574129  
     268A      1.575166   269A      1.589071   270A      1.600664  
     271A      1.604277   272A      1.629305   273A      1.629863  
     274A      1.643127   275A      1.652994   276A      1.665917  
     277A      1.670961   278A      1.687264   279A      1.691646  
     280A      1.697229   281A      1.716634   282A      1.720544  
     283A      1.725608   284A      1.738870   285A      1.746228  
     286A      1.760724   287A      1.773458   288A      1.788219  
     289A      1.817613   290A      1.822113   291A      1.833531  
     292A      1.845064   293A      1.852208   294A      1.855994  
     295A      1.871205   296A      1.880284   297A      1.909991  
     298A      1.918152   299A      1.929931   300A      1.953817  
     301A      1.958965   302A      1.972735   303A      1.986785  
     304A      1.999627   305A      2.007618   306A      2.024901  
     307A      2.050360   308A      2.054600   309A      2.062522  
     310A      2.066861   311A      2.076355   312A      2.084697  
     313A      2.095431   314A      2.101937   315A      2.110731  
     316A      2.118603   317A      2.133409   318A      2.144648  
     319A      2.161668   320A      2.182480   321A      2.192487  
     322A      2.193715   323A      2.213441   324A      2.228912  
     325A      2.237950   326A      2.252554   327A      2.262621  
     328A      2.282649   329A      2.298083   330A      2.305981  
     331A      2.310012   332A      2.317919   333A      2.326833  
     334A      2.337080   335A      2.341838   336A      2.354603  
     337A      2.356562   338A      2.359964   339A      2.379765  
     340A      2.399219   341A      2.406732   342A      2.415453  
     343A      2.425296   344A      2.428778   345A      2.447147  
     346A      2.460320   347A      2.468310   348A      2.470326  
     349A      2.484198   350A      2.494760   351A      2.508269  
     352A      2.521977   353A      2.527236   354A      2.552491  
     355A      2.571384   356A      2.581856   357A      2.588333  
     358A      2.609169   359A      2.620291   360A      2.644685  
     361A      2.654198   362A      2.665521   363A      2.672812  
     364A      2.684916   365A      2.688238   366A      2.712989  
     367A      2.715267   368A      2.726211   369A      2.747595  
     370A      2.760536   371A      2.776511   372A      2.797450  
     373A      2.804746   374A      2.816111   375A      2.827584  
     376A      2.837177   377A      2.867621   378A      2.889170  
     379A      2.906702   380A      2.944498   381A      2.977235  
     382A      2.997604   383A      3.009100   384A      3.044585  
     385A      3.049889   386A      3.078950   387A      3.102864  
     388A      3.112654   389A      3.126539   390A      3.142351  
     391A      3.171768   392A      3.207917   393A      3.238823  
     394A      3.244338   395A      3.278166   396A      3.303007  
     397A      3.327304   398A      3.350383   399A      3.366007  
     400A      3.372815   401A      3.404751   402A      3.414636  
     403A      3.442080   404A      3.469162   405A      3.497267  
     406A      3.507246   407A      3.523689   408A      3.536518  
     409A      3.563750   410A      3.585672   411A      3.606404  
     412A      3.607489   413A      3.628183   414A      3.655509  
     415A      3.663389   416A      3.675657   417A      3.685912  
     418A      3.706246   419A      3.719109   420A      3.723221  
     421A      3.738369   422A      3.749109   423A      3.765437  
     424A      3.776635   425A      3.794457   426A      3.812020  
     427A      3.833186   428A      3.856136   429A      3.861455  
     430A      3.873288   431A      3.881176   432A      3.892454  
     433A      3.902452   434A      3.912210   435A      3.953711  
     436A      3.962460   437A      3.973334   438A      3.990654  
     439A      4.004630   440A      4.015938   441A      4.026015  
     442A      4.044817   443A      4.056449   444A      4.077418  
     445A      4.079646   446A      4.089131   447A      4.127714  
     448A      4.140337   449A      4.148342   450A      4.158593  
     451A      4.160837   452A      4.179466   453A      4.189080  
     454A      4.209886   455A      4.217544   456A      4.240010  
     457A      4.246942   458A      4.253645   459A      4.261395  
     460A      4.269097   461A      4.283327   462A      4.292102  
     463A      4.316150   464A      4.324854   465A      4.337796  
     466A      4.344388   467A      4.360964   468A      4.378973  
     469A      4.387735   470A      4.403318   471A      4.406435  
     472A      4.437592   473A      4.458356   474A      4.472122  
     475A      4.484185   476A      4.498022   477A      4.504597  
     478A      4.516593   479A      4.552807   480A      4.557303  
     481A      4.571390   482A      4.579870   483A      4.596380  
     484A      4.603331   485A      4.608672   486A      4.640705  
     487A      4.653658   488A      4.681726   489A      4.709278  
     490A      4.733701   491A      4.745434   492A      4.777196  
     493A      4.786483   494A      4.805499   495A      4.829387  
     496A      4.857266   497A      4.873187   498A      4.878426  
     499A      4.902094   500A      4.910199   501A      4.926978  
     502A      4.945111   503A      5.003272   504A      5.012288  
     505A      5.022203   506A      5.032531   507A      5.049271  
     508A      5.100345   509A      5.124710   510A      5.146621  
     511A      5.172505   512A      5.187034   513A      5.194197  
     514A      5.197573   515A      5.226279   516A      5.243425  
     517A      5.259072   518A      5.273917   519A      5.291000  
     520A      5.309542   521A      5.335016   522A      5.357540  
     523A      5.375419   524A      5.410356   525A      5.442729  
     526A      5.468242   527A      5.482551   528A      5.508713  
     529A      5.509637   530A      5.522803   531A      5.528806  
     532A      5.542759   533A      5.577147   534A      5.605894  
     535A      5.616091   536A      5.638164   537A      5.643633  
     538A      5.655658   539A      5.662976   540A      5.676353  
     541A      5.689807   542A      5.725548   543A      5.739964  
     544A      5.765099   545A      5.773800   546A      5.808151  
     547A      5.813414   548A      5.843275   549A      5.859432  
     550A      5.881583   551A      5.910523   552A      5.913950  
     553A      5.925858   554A      5.953978   555A      5.971442  
     556A      5.976124   557A      6.003173   558A      6.021078  
     559A      6.048516   560A      6.052827   561A      6.106289  
     562A      6.114292   563A      6.135241   564A      6.150682  
     565A      6.154161   566A      6.187088   567A      6.224951  
     568A      6.228592   569A      6.269054   570A      6.305856  
     571A      6.336733   572A      6.424752   573A      6.464059  
     574A      6.522105   575A      6.551623   576A      6.571981  
     577A      6.599760   578A      6.661723   579A      6.676405  
     580A      6.696759   581A      6.710509   582A      6.740685  
     583A      6.768092   584A      6.788255   585A      6.820542  
     586A      6.836559   587A      6.925445   588A      6.975775  
     589A      7.003513   590A      7.011196   591A      7.018263  
     592A      7.062310   593A      7.100570   594A      7.176366  
     595A      7.218125   596A      7.236079   597A      7.285305  
     598A      7.369281   599A      7.407066   600A      7.414740  
     601A      7.451423   602A      7.465308   603A      7.650984  
     604A      7.726108   605A      7.755444   606A      7.807303  
     607A      7.840367   608A      7.911278   609A      7.995004  
     610A      8.041865   611A     16.028417   612A     16.278152  
     613A     16.458087   614A     16.926760   615A     17.679466  
     616A     18.242855   617A     19.062204   618A     19.192104  
     619A     19.860154   620A     20.503928   621A     20.979101  

    Final Occupation by Irrep:
              A 
    DOCC [    39 ]

  @DF-RHF Final Energy:  -539.58863604358919

   => Energetics <=

    Nuclear Repulsion Energy =            593.9459972165960835
    One-Electron Energy =               -1913.3436566802101879
    Two-Electron Energy =                 779.8090234200250279
    Total Energy =                       -539.5886360435891902

Computation Completed

*** tstop() called on c444-063.stampede2.tacc.utexas.edu at Fri Mar 19 05:50:48 2021
Module time:
	user time   =     616.50 seconds =      10.28 minutes
	system time =      45.64 seconds =       0.76 minutes
	total time  =         34 seconds =       0.57 minutes
Total time:
	user time   =     616.50 seconds =      10.28 minutes
	system time =      45.64 seconds =       0.76 minutes
	total time  =         34 seconds =       0.57 minutes
   => Loading Basis Set <=

    Name: (AUG-CC-PVTZ AUX)
    Role: RIFIT
    Keyword: DF_BASIS_MP2
    atoms 1              entry O          line   264 file /home1/07844/xy3866/miniconda3/envs/p4env/share/psi4/basis/aug-cc-pvtz-ri.gbs 
    atoms 2, 4, 6-7, 9   entry C          line   148 file /home1/07844/xy3866/miniconda3/envs/p4env/share/psi4/basis/aug-cc-pvtz-ri.gbs 
    atoms 3, 5, 8, 10-11 entry N          line   206 file /home1/07844/xy3866/miniconda3/envs/p4env/share/psi4/basis/aug-cc-pvtz-ri.gbs 
    atoms 12-16          entry H          line    30 file /home1/07844/xy3866/miniconda3/envs/p4env/share/psi4/basis/aug-cc-pvtz-ri.gbs 


*** tstart() called on c444-063.stampede2.tacc.utexas.edu
*** at Fri Mar 19 05:50:49 2021


  //>>>>>>>>>>>>>>>>>>>>>>>>>>>>>>>>>>>//
  //               DFMP2               //
  //<<<<<<<<<<<<<<<<<<<<<<<<<<<<<<<<<<<//

	 --------------------------------------------------------
	                          DF-MP2                         
	      2nd-Order Density-Fitted Moller-Plesset Theory     
	              RMP2 Wavefunction,  32 Threads             
	                                                         
	        Rob Parrish, Justin Turney, Andy Simmonett,      
	           Ed Hohenstein, and C. David Sherrill          
	 --------------------------------------------------------

   => Auxiliary Basis Set <=

  Basis Set: (AUG-CC-PVTZ AUX)
    Blend: AUG-CC-PVTZ-RI
    Number of shells: 378
    Number of basis functions: 1396
    Number of Cartesian functions: 1771
    Spherical Harmonics?: true
    Max angular momentum: 4

	 --------------------------------------------------------
	                 NBF =   621, NAUX =  1396
	 --------------------------------------------------------
	   CLASS    FOCC     OCC    AOCC    AVIR     VIR    FVIR
	   PAIRS       0      39      39     582     582       0
	 --------------------------------------------------------
   DFHelper Memory: AOs need 3.903 GiB; user supplied 22.352 GiB. Using in-core AOs.


         ------------------------------------------------------------
                                     CPHF                           
                                  Rob Parrish                       
         ------------------------------------------------------------

  ==> Geometry <==

    Molecular point group: c1
    Full point group: C1

    Geometry (in Angstrom), charge = 0, multiplicity = 1:

       Center              X                  Y                   Z               Mass       
    ------------   -----------------  -----------------  -----------------  -----------------
         O            0.197811658145     2.667224123013    -0.005813082604    15.994914619570
         C            0.230317658145     1.442729123013     0.007085917396    12.000000000000
         N            1.487367658145     0.760814123013    -0.002223082604    14.003074004430
         C            1.691048658145    -0.596610876987     0.004685917396    12.000000000000
         N            0.725499658145    -1.483005876987     0.013966917396    14.003074004430
         C           -0.503297341855    -0.886569876987    -0.000846082604    12.000000000000
         C           -0.832153341855     0.467681123013     0.018084917396    12.000000000000
         N           -2.196463341855     0.657523123013     0.016196917396    14.003074004430
         C           -2.679282641855    -0.553639576987     0.003418917396    12.000000000000
         N           -1.708782341855    -1.538137876987    -0.004660082604    14.003074004430
         N            3.011156658145    -1.012179876987    -0.077010082604    14.003074004430
         H            2.285230658145     1.384176123013    -0.101997082604     1.007825032230
         H           -3.739418341855    -0.823706876987    -0.000694082604     1.007825032230
         H           -1.831349341855    -2.544017876987    -0.018561082604     1.007825032230
         H            3.084239658145    -2.013846876987     0.070840917396     1.007825032230
         H            3.663677658145    -0.494706876987     0.503070917396     1.007825032230

  Nuclear repulsion =  593.945997216596083
  Reference energy  = -539.588636043589190

  ==> Basis Set <==

  Basis Set: AUG-CC-PVTZ
    Blend: AUG-CC-PVTZ
    Number of shells: 199
    Number of basis functions: 621
    Number of Cartesian functions: 730
    Spherical Harmonics?: true
    Max angular momentum: 3

  ==> CGRSolver (by Rob Parrish) <==

   Number of roots    =         1
   Preconditioning    =    JACOBI
   Convergence cutoff =     1E-06
   Maximum iterations =       100

  ==> CPHFRHamiltonian (by Rob Parrish) <== 

  ==> MemDFJK: Density-Fitted J/K Matrices <==

    J tasked:                   Yes
    K tasked:                   Yes
    wK tasked:                   No
    OpenMP threads:              32
    Memory [MiB]:             22888
    Algorithm:                 Core
    Schwarz Cutoff:           1E-12
    Mask sparsity (%):       5.7758
    Fitting Condition:        1E-10

   => Auxiliary Basis Set <=

  Basis Set: (AUG-CC-PVTZ AUX)
    Blend: AUG-CC-PVTZ-JKFIT
    Number of shells: 400
    Number of basis functions: 1374
    Number of Cartesian functions: 1716
    Spherical Harmonics?: true
    Max angular momentum: 4

  ==> CPHF Iterations <==

  => Iterations <=

             Iter  Converged  Remaining    Residual
  CGR           1          0          1   1.405E-01
  CGR           2          0          1   4.954E-02
  CGR           3          0          1   2.444E-02
  CGR           4          0          1   7.836E-03
  CGR           5          0          1   3.883E-03
  CGR           6          0          1   1.664E-03
  CGR           7          0          1   5.760E-04
  CGR           8          0          1   2.340E-04
  CGR           9          0          1   7.634E-05
  CGR          10          0          1   2.973E-05
  CGR          11          0          1   1.155E-05
  CGR          12          0          1   3.744E-06
  CGR          13          0          1   1.490E-06
  CGR          14          1          0   4.480E-07

    CGRSolver converged.

	-----------------------------------------------------------
	 ==================> DF-MP2 Energies <==================== 
	-----------------------------------------------------------
	 Reference Energy          =    -539.5886360435891902 [Eh]
	 Singles Energy            =      -0.0000000000000000 [Eh]
	 Same-Spin Energy          =      -0.5725077900316438 [Eh]
	 Opposite-Spin Energy      =      -1.6622552438266318 [Eh]
	 Correlation Energy        =      -2.2347630338582753 [Eh]
	 Total Energy              =    -541.8233990774474478 [Eh]
	-----------------------------------------------------------
	 ================> DF-SCS-MP2 Energies <================== 
	-----------------------------------------------------------
	 SCS Same-Spin Scale       =       0.3333333333333333 [-]
	 SCS Opposite-Spin Scale   =       1.2000000000000000 [-]
	 SCS Same-Spin Energy      =      -0.1908359300105479 [Eh]
	 SCS Opposite-Spin Energy  =      -1.9947062925919581 [Eh]
	 SCS Correlation Energy    =      -2.1855422226025061 [Eh]
	 SCS Total Energy          =    -541.7741782661917114 [Eh]
	-----------------------------------------------------------



Properties will be evaluated at   0.000000,  -0.000000,   0.000000 [a0]

Properties computed using the MP2 density matrix

  Nuclear Dipole Moment: [e a0]
     X:     3.2430      Y:    -4.1908      Z:     0.4245

  Electronic Dipole Moment: [e a0]
     X:    -2.1965      Y:     1.9875      Z:    -0.0926

  Dipole Moment: [e a0]
     X:     1.0465      Y:    -2.2033      Z:     0.3319     Total:     2.4616

  Dipole Moment: [D]
     X:     2.6599      Y:    -5.6001      Z:     0.8436     Total:     6.2569


*** tstop() called on c444-063.stampede2.tacc.utexas.edu at Fri Mar 19 05:54:21 2021
Module time:
	user time   =    1712.75 seconds =      28.55 minutes
	system time =      62.15 seconds =       1.04 minutes
	total time  =        212 seconds =       3.53 minutes
Total time:
	user time   =    2330.06 seconds =      38.83 minutes
	system time =     107.81 seconds =       1.80 minutes
	total time  =        247 seconds =       4.12 minutes

    Psi4 stopped on: Friday, 19 March 2021 05:54AM
    Psi4 wall time for execution: 0:04:07.83

*** Psi4 exiting successfully. Buy a developer a beer!
