
    -----------------------------------------------------------------------
          Psi4: An Open-Source Ab Initio Electronic Structure Package
                               Psi4 1.3.2 release

                         Git: Rev {HEAD} ecbda83 


    R. M. Parrish, L. A. Burns, D. G. A. Smith, A. C. Simmonett,
    A. E. DePrince III, E. G. Hohenstein, U. Bozkaya, A. Yu. Sokolov,
    R. Di Remigio, R. M. Richard, J. F. Gonthier, A. M. James,
    H. R. McAlexander, A. Kumar, M. Saitow, X. Wang, B. P. Pritchard,
    P. Verma, H. F. Schaefer III, K. Patkowski, R. A. King, E. F. Valeev,
    F. A. Evangelista, J. M. Turney, T. D. Crawford, and C. D. Sherrill,
    J. Chem. Theory Comput. 13(7) pp 3185--3197 (2017).
    (doi: 10.1021/acs.jctc.7b00174)


                         Additional Contributions by
    P. Kraus, H. Kruse, M. H. Lechner, M. C. Schieber, R. A. Shaw,
    A. Alenaizan, R. Galvelis, Z. L. Glick, S. Lehtola, and J. P. Misiewicz

    -----------------------------------------------------------------------


    Psi4 started on: Thursday, 05 November 2020 06:56AM

    Process ID: 9947
    Host:       node35.bme.utexas.edu
    PSIDATADIR: /home/xy3866/psi4conda/share/psi4
    Memory:     500.0 MiB
    Threads:    8
    
  ==> Input File <==

--------------------------------------------------------------------------
#psi4
#
memory 32 gb

molecule  {
0 1
  O        0.1763910     2.6970700    -0.0085580
  C        0.2089260     1.4725840     0.0042240
  N        1.4659430     0.7906670    -0.0052000
  C        1.6696020    -0.5667920     0.0018180
  N        0.7040600    -1.4531590     0.0111340
  C       -0.4632501    -0.9862719    -0.0058090
  C       -0.8535700     0.4975280     0.0150930
  N       -2.2178770     0.6874110     0.0132550
  C       -2.7081380    -0.5423290     0.0003530
  N       -1.7302440    -1.5082620    -0.0074590
  N        2.9897270    -0.9822980    -0.0798890
  H        2.2638450     1.4140280    -0.1046570
  H       -3.7608750    -0.7937900    -0.0035550
  H       -1.8528420    -2.5141400    -0.0211820
  H        3.0628590    -1.9839740     0.0678780
  H        3.6422020    -0.4648880     0.5003130
units angstrom
no_reorient  #important for SAPT in psi4, default
symmetry c1  #important for SAPT in psi4, default
}

set PROPERTIES_ORIGIN ["COM"]
properties('MP2/aug-cc-pvtz', properties = ['dipole'])
--------------------------------------------------------------------------

  Memory set to  29.802 GiB by Python driver.
    SCF Algorithm Type (re)set to DF.

*** tstart() called on node35.bme.utexas.edu
*** at Thu Nov  5 06:56:30 2020

   => Loading Basis Set <=

    Name: AUG-CC-PVTZ
    Role: ORBITAL
    Keyword: BASIS
    atoms 1              entry O          line   327 file /home/xy3866/psi4conda/share/psi4/basis/aug-cc-pvtz.gbs 
    atoms 2, 4, 6-7, 9   entry C          line   235 file /home/xy3866/psi4conda/share/psi4/basis/aug-cc-pvtz.gbs 
    atoms 3, 5, 8, 10-11 entry N          line   281 file /home/xy3866/psi4conda/share/psi4/basis/aug-cc-pvtz.gbs 
    atoms 12-16          entry H          line    36 file /home/xy3866/psi4conda/share/psi4/basis/aug-cc-pvtz.gbs 


         ---------------------------------------------------------
                                   SCF
               by Justin Turney, Rob Parrish, Andy Simmonett
                          and Daniel G. A. Smith
                              RHF Reference
                        8 Threads,  30517 MiB Core
         ---------------------------------------------------------

  ==> Geometry <==

    Molecular point group: c1
    Full point group: C1

    Geometry (in Angstrom), charge = 0, multiplicity = 1:

       Center              X                  Y                   Z               Mass       
    ------------   -----------------  -----------------  -----------------  -----------------
         O            0.193525183213     2.678978344316    -0.005506406483    15.994914619570
         C            0.226060183213     1.454492344316     0.007275593517    12.000000000000
         N            1.483077183213     0.772575344316    -0.002148406483    14.003074004430
         C            1.686736183213    -0.584883655684     0.004869593517    12.000000000000
         N            0.721194183213    -1.471250655684     0.014185593517    14.003074004430
         C           -0.446115916787    -1.004363555684    -0.002757406483    12.000000000000
         C           -0.836435816787     0.479436344316     0.018144593517    12.000000000000
         N           -2.200742816787     0.669319344316     0.016306593517    14.003074004430
         C           -2.691003816787    -0.560420655684     0.003404593517    12.000000000000
         N           -1.713109816787    -1.526353655684    -0.004407406483    14.003074004430
         N            3.006861183213    -1.000389655684    -0.076837406483    14.003074004430
         H            2.280979183213     1.395936344316    -0.101605406483     1.007825032230
         H           -3.743740816787    -0.811881655684    -0.000503406483     1.007825032230
         H           -1.835707816787    -2.532231655684    -0.018130406483     1.007825032230
         H            3.079993183213    -2.002065655684     0.070929593517     1.007825032230
         H            3.659336183213    -0.482979655684     0.503364593517     1.007825032230

  Running in c1 symmetry.

  Rotational constants: A =      0.06286  B =      0.03722  C =      0.02340 [cm^-1]
  Rotational constants: A =   1884.50754  B =   1115.94197  C =    701.59204 [MHz]
  Nuclear repulsion =  592.608047675044077

  Charge       = 0
  Multiplicity = 1
  Electrons    = 78
  Nalpha       = 39
  Nbeta        = 39

  ==> Algorithm <==

  SCF Algorithm Type is DF.
  DIIS enabled.
  MOM disabled.
  Fractional occupation disabled.
  Guess Type is SAD.
  Energy threshold   = 1.00e-10
  Density threshold  = 1.00e-10
  Integral threshold = 0.00e+00

  ==> Primary Basis <==

  Basis Set: AUG-CC-PVTZ
    Blend: AUG-CC-PVTZ
    Number of shells: 199
    Number of basis function: 621
    Number of Cartesian functions: 730
    Spherical Harmonics?: true
    Max angular momentum: 3

   => Loading Basis Set <=

    Name: (AUG-CC-PVTZ AUX)
    Role: JKFIT
    Keyword: DF_BASIS_SCF
    atoms 1              entry O          line   286 file /home/xy3866/psi4conda/share/psi4/basis/aug-cc-pvtz-jkfit.gbs 
    atoms 2, 4, 6-7, 9   entry C          line   162 file /home/xy3866/psi4conda/share/psi4/basis/aug-cc-pvtz-jkfit.gbs 
    atoms 3, 5, 8, 10-11 entry N          line   224 file /home/xy3866/psi4conda/share/psi4/basis/aug-cc-pvtz-jkfit.gbs 
    atoms 12-16          entry H          line    70 file /home/xy3866/psi4conda/share/psi4/basis/aug-cc-pvtz-jkfit.gbs 

  ==> Pre-Iterations <==

   -------------------------------------------------------
    Irrep   Nso     Nmo     Nalpha   Nbeta   Ndocc  Nsocc
   -------------------------------------------------------
     A        621     621       0       0       0       0
   -------------------------------------------------------
    Total     621     621      39      39      39       0
   -------------------------------------------------------

  ==> Integral Setup <==

  DFHelper Memory: AOs need 3.834 GiB; user supplied 22.352 GiB. Using in-core AOs.

  ==> MemDFJK: Density-Fitted J/K Matrices <==

    J tasked:                   Yes
    K tasked:                   Yes
    wK tasked:                   No
    OpenMP threads:               8
    Memory [MiB]:             22888
    Algorithm:                 Disk
    Schwarz Cutoff:           1E-12
    Mask sparsity (%):       5.7774
    Fitting Condition:        1E-10

   => Auxiliary Basis Set <=

  Basis Set: (AUG-CC-PVTZ AUX)
    Blend: AUG-CC-PVTZ-JKFIT
    Number of shells: 400
    Number of basis function: 1374
    Number of Cartesian functions: 1716
    Spherical Harmonics?: true
    Max angular momentum: 4

  Minimum eigenvalue in the overlap matrix is 2.2204013742E-06.
  Using Symmetric Orthogonalization.

  SCF Guess: Superposition of Atomic Densities via on-the-fly atomic UHF.

  ==> Iterations <==

                           Total Energy        Delta E     RMS |[F,P]|

   @DF-RHF iter SAD:  -539.27663778968224   -5.39277e+02   0.00000e+00 
   @DF-RHF iter   1:  -539.24210946776043    3.45283e-02   1.28777e-03 DIIS
   @DF-RHF iter   2:  -539.46626602485094   -2.24157e-01   7.72946e-04 DIIS
   @DF-RHF iter   3:  -539.54903796931842   -8.27719e-02   1.60551e-04 DIIS
   @DF-RHF iter   4:  -539.55429852113321   -5.26055e-03   6.53791e-05 DIIS
   @DF-RHF iter   5:  -539.55531327950462   -1.01476e-03   1.38729e-05 DIIS
   @DF-RHF iter   6:  -539.55542172880700   -1.08449e-04   7.32911e-06 DIIS
   @DF-RHF iter   7:  -539.55545168016806   -2.99514e-05   3.18566e-06 DIIS
   @DF-RHF iter   8:  -539.55545846176733   -6.78160e-06   1.19032e-06 DIIS
   @DF-RHF iter   9:  -539.55545948204997   -1.02028e-06   4.93108e-07 DIIS
   @DF-RHF iter  10:  -539.55545966246586   -1.80416e-07   2.11860e-07 DIIS
   @DF-RHF iter  11:  -539.55545969008028   -2.76144e-08   8.58886e-08 DIIS
   @DF-RHF iter  12:  -539.55545969418915   -4.10887e-09   3.29564e-08 DIIS
   @DF-RHF iter  13:  -539.55545969481136   -6.22208e-10   1.30626e-08 DIIS
   @DF-RHF iter  14:  -539.55545969492607   -1.14710e-10   6.08497e-09 DIIS
   @DF-RHF iter  15:  -539.55545969495643   -3.03544e-11   2.30603e-09 DIIS
   @DF-RHF iter  16:  -539.55545969496302   -6.59384e-12   1.37275e-09 DIIS
   @DF-RHF iter  17:  -539.55545969496234    6.82121e-13   5.18818e-10 DIIS
   @DF-RHF iter  18:  -539.55545969496268   -3.41061e-13   2.41480e-10 DIIS
   @DF-RHF iter  19:  -539.55545969496347   -7.95808e-13   1.02062e-10 DIIS
   @DF-RHF iter  20:  -539.55545969496336    1.13687e-13   3.45368e-11 DIIS
  Energy and wave function converged.


  ==> Post-Iterations <==

    Orbital Energies [Eh]
    ---------------------

    Doubly Occupied:                                                      

       1A    -20.511947     2A    -15.638464     3A    -15.636890  
       4A    -15.619712     5A    -15.576301     6A    -15.567792  
       7A    -11.410568     8A    -11.358202     9A    -11.339642  
      10A    -11.310306    11A    -11.252169    12A     -1.393863  
      13A     -1.357774    14A     -1.336691    15A     -1.247530  
      16A     -1.223487    17A     -1.180286    18A     -1.013335  
      19A     -0.915467    20A     -0.896213    21A     -0.834855  
      22A     -0.807996    23A     -0.745777    24A     -0.738113  
      25A     -0.699338    26A     -0.666017    27A     -0.657955  
      28A     -0.644929    29A     -0.606049    30A     -0.596636  
      31A     -0.593912    32A     -0.549707    33A     -0.500805  
      34A     -0.478182    35A     -0.437578    36A     -0.436212  
      37A     -0.417090    38A     -0.409733    39A     -0.279552  

    Virtual:                                                              

      40A      0.014052    41A      0.022334    42A      0.034959  
      43A      0.044433    44A      0.050910    45A      0.063667  
      46A      0.077089    47A      0.085222    48A      0.088568  
      49A      0.093111    50A      0.096429    51A      0.101450  
      52A      0.106118    53A      0.109737    54A      0.112405  
      55A      0.119952    56A      0.124252    57A      0.130065  
      58A      0.136339    59A      0.140211    60A      0.142231  
      61A      0.143697    62A      0.151154    63A      0.156293  
      64A      0.161754    65A      0.174770    66A      0.176028  
      67A      0.182892    68A      0.185027    69A      0.192818  
      70A      0.199323    71A      0.206827    72A      0.211737  
      73A      0.212672    74A      0.215679    75A      0.218684  
      76A      0.226197    77A      0.230396    78A      0.232567  
      79A      0.247797    80A      0.253730    81A      0.262608  
      82A      0.271485    83A      0.274716    84A      0.279202  
      85A      0.282582    86A      0.297251    87A      0.298886  
      88A      0.307249    89A      0.310910    90A      0.312660  
      91A      0.318348    92A      0.324176    93A      0.332363  
      94A      0.333631    95A      0.340797    96A      0.343754  
      97A      0.354801    98A      0.360166    99A      0.362027  
     100A      0.368418   101A      0.370038   102A      0.380911  
     103A      0.381470   104A      0.387881   105A      0.391006  
     106A      0.401710   107A      0.407200   108A      0.411339  
     109A      0.419430   110A      0.422778   111A      0.428075  
     112A      0.435239   113A      0.445033   114A      0.451281  
     115A      0.455291   116A      0.460886   117A      0.463594  
     118A      0.465347   119A      0.471998   120A      0.475687  
     121A      0.482486   122A      0.491262   123A      0.495109  
     124A      0.500136   125A      0.504368   126A      0.510697  
     127A      0.522343   128A      0.525338   129A      0.533738  
     130A      0.540507   131A      0.545013   132A      0.550681  
     133A      0.552877   134A      0.562321   135A      0.566645  
     136A      0.570842   137A      0.583946   138A      0.600511  
     139A      0.605965   140A      0.611057   141A      0.621931  
     142A      0.629513   143A      0.641327   144A      0.642463  
     145A      0.653585   146A      0.654793   147A      0.658885  
     148A      0.663993   149A      0.666474   150A      0.672331  
     151A      0.690501   152A      0.696998   153A      0.704842  
     154A      0.711171   155A      0.722035   156A      0.727686  
     157A      0.732288   158A      0.739362   159A      0.746586  
     160A      0.750216   161A      0.761477   162A      0.768562  
     163A      0.774365   164A      0.785799   165A      0.795584  
     166A      0.800796   167A      0.804718   168A      0.810321  
     169A      0.815401   170A      0.825768   171A      0.833197  
     172A      0.839692   173A      0.851789   174A      0.861199  
     175A      0.865498   176A      0.873177   177A      0.882805  
     178A      0.889556   179A      0.894469   180A      0.900255  
     181A      0.908086   182A      0.912000   183A      0.917697  
     184A      0.927023   185A      0.943336   186A      0.944654  
     187A      0.948479   188A      0.953916   189A      0.961740  
     190A      0.971118   191A      0.973656   192A      0.978543  
     193A      0.986745   194A      0.995368   195A      1.005868  
     196A      1.010346   197A      1.018740   198A      1.027884  
     199A      1.032311   200A      1.034727   201A      1.040778  
     202A      1.051503   203A      1.053597   204A      1.065515  
     205A      1.073681   206A      1.075855   207A      1.080694  
     208A      1.087072   209A      1.094717   210A      1.100036  
     211A      1.103763   212A      1.113322   213A      1.117091  
     214A      1.126947   215A      1.136063   216A      1.141074  
     217A      1.145557   218A      1.164966   219A      1.169752  
     220A      1.177958   221A      1.180054   222A      1.188612  
     223A      1.205493   224A      1.208201   225A      1.224658  
     226A      1.228115   227A      1.233877   228A      1.239112  
     229A      1.246129   230A      1.247068   231A      1.254497  
     232A      1.274854   233A      1.277330   234A      1.288254  
     235A      1.294192   236A      1.300926   237A      1.315227  
     238A      1.328932   239A      1.331983   240A      1.335795  
     241A      1.348182   242A      1.349654   243A      1.361948  
     244A      1.369373   245A      1.377358   246A      1.379770  
     247A      1.387787   248A      1.402810   249A      1.415720  
     250A      1.419178   251A      1.426823   252A      1.441283  
     253A      1.448520   254A      1.452083   255A      1.461299  
     256A      1.464605   257A      1.478758   258A      1.488112  
     259A      1.503426   260A      1.515665   261A      1.520044  
     262A      1.528703   263A      1.539907   264A      1.543392  
     265A      1.553230   266A      1.554524   267A      1.571505  
     268A      1.577199   269A      1.588736   270A      1.604793  
     271A      1.609327   272A      1.623294   273A      1.630139  
     274A      1.646287   275A      1.655138   276A      1.662990  
     277A      1.667966   278A      1.679787   279A      1.686192  
     280A      1.699996   281A      1.713220   282A      1.720773  
     283A      1.730603   284A      1.739112   285A      1.743967  
     286A      1.760302   287A      1.773361   288A      1.783611  
     289A      1.801396   290A      1.828365   291A      1.835672  
     292A      1.844603   293A      1.852104   294A      1.862454  
     295A      1.867431   296A      1.874711   297A      1.907071  
     298A      1.920331   299A      1.947274   300A      1.949868  
     301A      1.957818   302A      1.963279   303A      1.985555  
     304A      1.997711   305A      2.007302   306A      2.030832  
     307A      2.047463   308A      2.051288   309A      2.059036  
     310A      2.065574   311A      2.070900   312A      2.084300  
     313A      2.086785   314A      2.100351   315A      2.111894  
     316A      2.123620   317A      2.130325   318A      2.148153  
     319A      2.167186   320A      2.172252   321A      2.189203  
     322A      2.194768   323A      2.206739   324A      2.225276  
     325A      2.234086   326A      2.250493   327A      2.264292  
     328A      2.277324   329A      2.301661   330A      2.304348  
     331A      2.305168   332A      2.316109   333A      2.325438  
     334A      2.331438   335A      2.332774   336A      2.348526  
     337A      2.355093   338A      2.358585   339A      2.380813  
     340A      2.394516   341A      2.414588   342A      2.421186  
     343A      2.432971   344A      2.440723   345A      2.446785  
     346A      2.460771   347A      2.465587   348A      2.474634  
     349A      2.490320   350A      2.494226   351A      2.512235  
     352A      2.522290   353A      2.537886   354A      2.553999  
     355A      2.564096   356A      2.584456   357A      2.590991  
     358A      2.610207   359A      2.631135   360A      2.637165  
     361A      2.656731   362A      2.659007   363A      2.673511  
     364A      2.682250   365A      2.702225   366A      2.707929  
     367A      2.710459   368A      2.726569   369A      2.749963  
     370A      2.760179   371A      2.774624   372A      2.796567  
     373A      2.805319   374A      2.809661   375A      2.816942  
     376A      2.836157   377A      2.860063   378A      2.896036  
     379A      2.914786   380A      2.936344   381A      2.970594  
     382A      3.003334   383A      3.015562   384A      3.041378  
     385A      3.064614   386A      3.086695   387A      3.098337  
     388A      3.118962   389A      3.132859   390A      3.138054  
     391A      3.163098   392A      3.202356   393A      3.235243  
     394A      3.251250   395A      3.260880   396A      3.287932  
     397A      3.321147   398A      3.335427   399A      3.363897  
     400A      3.386212   401A      3.401584   402A      3.435203  
     403A      3.446760   404A      3.456395   405A      3.465620  
     406A      3.493199   407A      3.512328   408A      3.534019  
     409A      3.561387   410A      3.579043   411A      3.597560  
     412A      3.624762   413A      3.631323   414A      3.654399  
     415A      3.661216   416A      3.675507   417A      3.677913  
     418A      3.701076   419A      3.712287   420A      3.719870  
     421A      3.741045   422A      3.749855   423A      3.760219  
     424A      3.764908   425A      3.795500   426A      3.799423  
     427A      3.822570   428A      3.833364   429A      3.863614  
     430A      3.868801   431A      3.876328   432A      3.912412  
     433A      3.917999   434A      3.919177   435A      3.951847  
     436A      3.957149   437A      3.967892   438A      3.982369  
     439A      4.007165   440A      4.023832   441A      4.030689  
     442A      4.045026   443A      4.051876   444A      4.065457  
     445A      4.080534   446A      4.103080   447A      4.131699  
     448A      4.142326   449A      4.154508   450A      4.160331  
     451A      4.169253   452A      4.175417   453A      4.185765  
     454A      4.206968   455A      4.210862   456A      4.221557  
     457A      4.242543   458A      4.249987   459A      4.252677  
     460A      4.266390   461A      4.278050   462A      4.285797  
     463A      4.309110   464A      4.318310   465A      4.327333  
     466A      4.336417   467A      4.358645   468A      4.365542  
     469A      4.388023   470A      4.411675   471A      4.423789  
     472A      4.431665   473A      4.459781   474A      4.466546  
     475A      4.484322   476A      4.498434   477A      4.501959  
     478A      4.524697   479A      4.552328   480A      4.558042  
     481A      4.560542   482A      4.581204   483A      4.594179  
     484A      4.612456   485A      4.627051   486A      4.639371  
     487A      4.649823   488A      4.674533   489A      4.701724  
     490A      4.713474   491A      4.737641   492A      4.747993  
     493A      4.769865   494A      4.788848   495A      4.793982  
     496A      4.837737   497A      4.855465   498A      4.872853  
     499A      4.907362   500A      4.918540   501A      4.928752  
     502A      4.944919   503A      4.995236   504A      4.998167  
     505A      5.012585   506A      5.031522   507A      5.052232  
     508A      5.089979   509A      5.107861   510A      5.141672  
     511A      5.152024   512A      5.176884   513A      5.186356  
     514A      5.195783   515A      5.219335   516A      5.237722  
     517A      5.250783   518A      5.262246   519A      5.278827  
     520A      5.281401   521A      5.328757   522A      5.351564  
     523A      5.367111   524A      5.392793   525A      5.422545  
     526A      5.479839   527A      5.492799   528A      5.508514  
     529A      5.515495   530A      5.519462   531A      5.529678  
     532A      5.538928   533A      5.575507   534A      5.597003  
     535A      5.618613   536A      5.632955   537A      5.645747  
     538A      5.656466   539A      5.672957   540A      5.683143  
     541A      5.694557   542A      5.742699   543A      5.753947  
     544A      5.772038   545A      5.793536   546A      5.808872  
     547A      5.814687   548A      5.848233   549A      5.853983  
     550A      5.903342   551A      5.906072   552A      5.924553  
     553A      5.956323   554A      5.960630   555A      5.979911  
     556A      5.992381   557A      6.008130   558A      6.046310  
     559A      6.052083   560A      6.079795   561A      6.105261  
     562A      6.120464   563A      6.124366   564A      6.149161  
     565A      6.167504   566A      6.196839   567A      6.232595  
     568A      6.257583   569A      6.279250   570A      6.310237  
     571A      6.330071   572A      6.430423   573A      6.446871  
     574A      6.504501   575A      6.550345   576A      6.562771  
     577A      6.597527   578A      6.639928   579A      6.663202  
     580A      6.701528   581A      6.707689   582A      6.739736  
     583A      6.776180   584A      6.809050   585A      6.840150  
     586A      6.863030   587A      6.896954   588A      6.947026  
     589A      6.990552   590A      7.013719   591A      7.034827  
     592A      7.076156   593A      7.109528   594A      7.221687  
     595A      7.240197   596A      7.250382   597A      7.274402  
     598A      7.361655   599A      7.420348   600A      7.447303  
     601A      7.483403   602A      7.552503   603A      7.673665  
     604A      7.728947   605A      7.752105   606A      7.822841  
     607A      7.830414   608A      7.915093   609A      7.994382  
     610A      8.045319   611A     15.668152   612A     16.073869  
     613A     16.507017   614A     16.916585   615A     17.688324  
     616A     17.930381   617A     18.912929   618A     19.410935  
     619A     20.048662   620A     20.793267   621A     21.052947  

    Final Occupation by Irrep:
              A 
    DOCC [    39 ]

  @DF-RHF Final Energy:  -539.55545969496336

   => Energetics <=

    Nuclear Repulsion Energy =            592.6080476750440766
    One-Electron Energy =               -1910.5528615345147045
    Two-Electron Energy =                 778.3893541645073810
    Total Energy =                       -539.5554596949633606

Computation Completed

*** tstop() called on node35.bme.utexas.edu at Thu Nov  5 06:58:50 2020
Module time:
	user time   =     525.91 seconds =       8.77 minutes
	system time =     101.15 seconds =       1.69 minutes
	total time  =        140 seconds =       2.33 minutes
Total time:
	user time   =     525.91 seconds =       8.77 minutes
	system time =     101.15 seconds =       1.69 minutes
	total time  =        140 seconds =       2.33 minutes
   => Loading Basis Set <=

    Name: (AUG-CC-PVTZ AUX)
    Role: RIFIT
    Keyword: DF_BASIS_MP2
    atoms 1              entry O          line   264 file /home/xy3866/psi4conda/share/psi4/basis/aug-cc-pvtz-ri.gbs 
    atoms 2, 4, 6-7, 9   entry C          line   148 file /home/xy3866/psi4conda/share/psi4/basis/aug-cc-pvtz-ri.gbs 
    atoms 3, 5, 8, 10-11 entry N          line   206 file /home/xy3866/psi4conda/share/psi4/basis/aug-cc-pvtz-ri.gbs 
    atoms 12-16          entry H          line    30 file /home/xy3866/psi4conda/share/psi4/basis/aug-cc-pvtz-ri.gbs 


*** tstart() called on node35.bme.utexas.edu
*** at Thu Nov  5 06:58:50 2020


  //>>>>>>>>>>>>>>>>>>>>>>>>>>>>>>>>>>>//
  //               DFMP2               //
  //<<<<<<<<<<<<<<<<<<<<<<<<<<<<<<<<<<<//

	 --------------------------------------------------------
	                          DF-MP2                         
	      2nd-Order Density-Fitted Moller-Plesset Theory     
	              RMP2 Wavefunction,   8 Threads             
	                                                         
	        Rob Parrish, Justin Turney, Andy Simmonett,      
	           Ed Hohenstein, and C. David Sherrill          
	 --------------------------------------------------------

   => Auxiliary Basis Set <=

  Basis Set: (AUG-CC-PVTZ AUX)
    Blend: AUG-CC-PVTZ-RI
    Number of shells: 378
    Number of basis function: 1396
    Number of Cartesian functions: 1771
    Spherical Harmonics?: true
    Max angular momentum: 4

	 --------------------------------------------------------
	                 NBF =   621, NAUX =  1396
	 --------------------------------------------------------
	   CLASS    FOCC     OCC    AOCC    AVIR     VIR    FVIR
	   PAIRS       0      39      39     582     582       0
	 --------------------------------------------------------

  DFHelper Memory: AOs need 3.834 GiB; user supplied 22.352 GiB. Using in-core AOs.


         ------------------------------------------------------------
                                     CPHF                           
                                  Rob Parrish                       
         ------------------------------------------------------------

  ==> Geometry <==

    Molecular point group: c1
    Full point group: C1

    Geometry (in Angstrom), charge = 0, multiplicity = 1:

       Center              X                  Y                   Z               Mass       
    ------------   -----------------  -----------------  -----------------  -----------------
         O            0.193525183213     2.678978344316    -0.005506406483    15.994914619570
         C            0.226060183213     1.454492344316     0.007275593517    12.000000000000
         N            1.483077183213     0.772575344316    -0.002148406483    14.003074004430
         C            1.686736183213    -0.584883655684     0.004869593517    12.000000000000
         N            0.721194183213    -1.471250655684     0.014185593517    14.003074004430
         C           -0.446115916787    -1.004363555684    -0.002757406483    12.000000000000
         C           -0.836435816787     0.479436344316     0.018144593517    12.000000000000
         N           -2.200742816787     0.669319344316     0.016306593517    14.003074004430
         C           -2.691003816787    -0.560420655684     0.003404593517    12.000000000000
         N           -1.713109816787    -1.526353655684    -0.004407406483    14.003074004430
         N            3.006861183213    -1.000389655684    -0.076837406483    14.003074004430
         H            2.280979183213     1.395936344316    -0.101605406483     1.007825032230
         H           -3.743740816787    -0.811881655684    -0.000503406483     1.007825032230
         H           -1.835707816787    -2.532231655684    -0.018130406483     1.007825032230
         H            3.079993183213    -2.002065655684     0.070929593517     1.007825032230
         H            3.659336183213    -0.482979655684     0.503364593517     1.007825032230

  Nuclear repulsion =  592.608047675044077
  Reference energy  = -539.555459694963361

  ==> Basis Set <==

  Basis Set: AUG-CC-PVTZ
    Blend: AUG-CC-PVTZ
    Number of shells: 199
    Number of basis function: 621
    Number of Cartesian functions: 730
    Spherical Harmonics?: true
    Max angular momentum: 3

  ==> CGRSolver (by Rob Parrish) <==

   Number of roots    =         1
   Preconditioning    =    JACOBI
   Convergence cutoff =     1E-06
   Maximum iterations =       100

  ==> CPHFRHamiltonian (by Rob Parrish) <== 

  ==> MemDFJK: Density-Fitted J/K Matrices <==

    J tasked:                   Yes
    K tasked:                   Yes
    wK tasked:                   No
    OpenMP threads:               8
    Memory [MiB]:             22888
    Algorithm:                 Disk
    Schwarz Cutoff:           1E-12
    Mask sparsity (%):       5.7774
    Fitting Condition:        1E-10

   => Auxiliary Basis Set <=

  Basis Set: (AUG-CC-PVTZ AUX)
    Blend: AUG-CC-PVTZ-JKFIT
    Number of shells: 400
    Number of basis function: 1374
    Number of Cartesian functions: 1716
    Spherical Harmonics?: true
    Max angular momentum: 4

  ==> CPHF Iterations <==

  => Iterations <=

             Iter  Converged  Remaining    Residual
  CGR           1          0          1   1.517E-01
  CGR           2          0          1   5.965E-02
  CGR           3          0          1   3.318E-02
  CGR           4          0          1   1.109E-02
  CGR           5          0          1   5.283E-03
  CGR           6          0          1   2.098E-03
  CGR           7          0          1   6.878E-04
  CGR           8          0          1   3.127E-04
  CGR           9          0          1   1.014E-04
  CGR          10          0          1   3.790E-05
  CGR          11          0          1   1.523E-05
  CGR          12          0          1   5.404E-06
  CGR          13          0          1   2.287E-06
  CGR          14          1          0   7.922E-07

    CGRSolver converged.

	-----------------------------------------------------------
	 ==================> DF-MP2 Energies <==================== 
	-----------------------------------------------------------
	 Reference Energy          =    -539.5554596949633606 [Eh]
	 Singles Energy            =      -0.0000000000000000 [Eh]
	 Same-Spin Energy          =      -0.5765267407839072 [Eh]
	 Opposite-Spin Energy      =      -1.6659367482339351 [Eh]
	 Correlation Energy        =      -2.2424634890178421 [Eh]
	 Total Energy              =    -541.7979231839811973 [Eh]
	-----------------------------------------------------------
	 ================> DF-SCS-MP2 Energies <================== 
	-----------------------------------------------------------
	 SCS Same-Spin Scale       =       0.3333333333333333 [-]
	 SCS Opposite-Spin Scale   =       1.2000000000000000 [-]
	 SCS Same-Spin Energy      =      -0.1921755802613024 [Eh]
	 SCS Opposite-Spin Energy  =      -1.9991240978807221 [Eh]
	 SCS Correlation Energy    =      -2.1912996781420246 [Eh]
	 SCS Total Energy          =    -541.7467593731054194 [Eh]
	-----------------------------------------------------------



Properties will be evaluated at  -0.000000,  -0.000000,  -0.000000 [a0]

Properties computed using the MP2 density matrix

  Nuclear Dipole Moment: [e a0]
     X:     3.2229      Y:    -4.1357      Z:     0.4258

  Electronic Dipole Moment: [e a0]
     X:    -2.0954      Y:     1.7745      Z:    -0.0939

  Dipole Moment: [e a0]
     X:     1.1275      Y:    -2.3612      Z:     0.3319     Total:     2.6376

  Dipole Moment: [D]
     X:     2.8658      Y:    -6.0017      Z:     0.8437     Total:     6.7041


*** tstop() called on node35.bme.utexas.edu at Thu Nov  5 07:03:24 2020
Module time:
	user time   =    1476.65 seconds =      24.61 minutes
	system time =     137.67 seconds =       2.29 minutes
	total time  =        274 seconds =       4.57 minutes
Total time:
	user time   =    2003.69 seconds =      33.39 minutes
	system time =     238.89 seconds =       3.98 minutes
	total time  =        414 seconds =       6.90 minutes

    Psi4 stopped on: Thursday, 05 November 2020 07:03AM
    Psi4 wall time for execution: 0:06:55.15

*** Psi4 exiting successfully. Buy a developer a beer!
