
    -----------------------------------------------------------------------
          Psi4: An Open-Source Ab Initio Electronic Structure Package
                               Psi4 1.4a3.dev225 

                         Git: Rev {master} 7105e37 


    D. G. A. Smith, L. A. Burns, A. C. Simmonett, R. M. Parrish,
    M. C. Schieber, R. Galvelis, P. Kraus, H. Kruse, R. Di Remigio,
    A. Alenaizan, A. M. James, S. Lehtola, J. P. Misiewicz, M. Scheurer,
    R. A. Shaw, J. B. Schriber, Y. Xie, Z. L. Glick, D. A. Sirianni,
    J. S. O'Brien, J. M. Waldrop, A. Kumar, E. G. Hohenstein,
    B. P. Pritchard, B. R. Brooks, H. F. Schaefer III, A. Yu. Sokolov,
    K. Patkowski, A. E. DePrince III, U. Bozkaya, R. A. King,
    F. A. Evangelista, J. M. Turney, T. D. Crawford, C. D. Sherrill,
    J. Chem. Phys. 152(18) 184108 (2020). https://doi.org/10.1063/5.0006002

                            Additional Code Authors
    E. T. Seidl, C. L. Janssen, E. F. Valeev, M. L. Leininger,
    J. F. Gonthier, R. M. Richard, H. R. McAlexander, M. Saitow, X. Wang,
    P. Verma, and M. H. Lechner

             Previous Authors, Complete List of Code Contributors,
                       and Citations for Specific Modules
    https://github.com/psi4/psi4/blob/master/codemeta.json
    https://github.com/psi4/psi4/graphs/contributors
    http://psicode.org/psi4manual/master/introduction.html#citing-psifour

    -----------------------------------------------------------------------


    Psi4 started on: Saturday, 06 March 2021 03:23PM

    Process ID: 129260
    Host:       c420-011.stampede2.tacc.utexas.edu
    PSIDATADIR: /home1/07844/xy3866/miniconda3/envs/p4env/share/psi4
    Memory:     500.0 MiB
    Threads:    32
    
  ==> Input File <==

--------------------------------------------------------------------------
#psi4
#
memory 32 gb

molecule  {
0 1
  O        1.6269320     1.1045440    -0.3563700
  O        1.6269410    -1.1045380    -0.3563700
  N        1.2303420     0.0000010     0.0570950
  C       -1.2290370    -0.0000020     0.4263420
  C        0.1538230    -0.0000020     1.0857690
  C       -1.5860170    -1.3007868    -0.2912851
  C       -1.4714800     1.2642120    -0.3967320
  H       -1.9318800    -0.0000060     1.2712410
  H        0.3118450     0.8984460     1.6853920
  H        0.3118480    -0.8984510     1.6853890
  H       -0.8055150    -1.3049070    -1.2625520
  H       -2.5029200    -1.2793330    -0.7603930
  H       -1.3046420    -2.1677380     0.1971180
  H       -1.3046550     2.1677340     0.1971270
  H       -0.8055150     1.3049140    -1.2625460
  H       -2.5029220     1.2793270    -0.7603950
units angstrom
no_reorient  #important for SAPT in psi4, default
symmetry c1  #important for SAPT in psi4, default
}

set PROPERTIES_ORIGIN ["COM"]
properties('MP2/aug-cc-pvtz', properties = ['dipole'])
--------------------------------------------------------------------------

  Memory set to  29.802 GiB by Python driver.
    SCF Algorithm Type (re)set to DF.

*** tstart() called on c420-011.stampede2.tacc.utexas.edu
*** at Sat Mar  6 15:23:44 2021

   => Loading Basis Set <=

    Name: AUG-CC-PVTZ
    Role: ORBITAL
    Keyword: BASIS
    atoms 1-2  entry O          line   331 file /home1/07844/xy3866/miniconda3/envs/p4env/share/psi4/basis/aug-cc-pvtz.gbs 
    atoms 3    entry N          line   285 file /home1/07844/xy3866/miniconda3/envs/p4env/share/psi4/basis/aug-cc-pvtz.gbs 
    atoms 4-7  entry C          line   239 file /home1/07844/xy3866/miniconda3/envs/p4env/share/psi4/basis/aug-cc-pvtz.gbs 
    atoms 8-16 entry H          line    40 file /home1/07844/xy3866/miniconda3/envs/p4env/share/psi4/basis/aug-cc-pvtz.gbs 


         ---------------------------------------------------------
                                   SCF
               by Justin Turney, Rob Parrish, Andy Simmonett
                          and Daniel G. A. Smith
                              RHF Reference
                       32 Threads,  30517 MiB Core
         ---------------------------------------------------------

  ==> Geometry <==

    Molecular point group: c1
    Full point group: C1

    Geometry (in Angstrom), charge = 0, multiplicity = 1:

       Center              X                  Y                   Z               Mass       
    ------------   -----------------  -----------------  -----------------  -----------------
         O            1.538979559996     1.108802059033    -0.359150306358    15.994914619570
         O            1.538988559996    -1.100279940967    -0.359150306358    15.994914619570
         N            1.142389559996     0.004259059033     0.054314693642    14.003074004430
         C           -1.316989440004     0.004256059033     0.423561693642    12.000000000000
         C            0.065870559996     0.004256059033     1.082988693642    12.000000000000
         C           -1.673969440004    -1.296528740967    -0.294065406358    12.000000000000
         C           -1.559432440004     1.268470059033    -0.399512306358    12.000000000000
         H           -2.019832440004     0.004252059033     1.268460693642     1.007825032230
         H            0.223892559996     0.902704059033     1.682611693642     1.007825032230
         H            0.223895559996    -0.894192940967     1.682608693642     1.007825032230
         H           -0.893467440004    -1.300648940967    -1.265332306358     1.007825032230
         H           -2.590872440004    -1.275074940967    -0.763173306358     1.007825032230
         H           -1.392594440004    -2.163479940967     0.194337693642     1.007825032230
         H           -1.392607440004     2.171992059033     0.194346693642     1.007825032230
         H           -0.893467440004     1.309172059033    -1.265326306358     1.007825032230
         H           -2.590874440004     1.283585059033    -0.763175306358     1.007825032230

  Running in c1 symmetry.

  Rotational constants: A =      0.12843  B =      0.07138  C =      0.05666 [cm^-1]
  Rotational constants: A =   3850.25762  B =   2139.99541  C =   1698.63206 [MHz]
  Nuclear repulsion =  327.526498597862314

  Charge       = 0
  Multiplicity = 1
  Electrons    = 56
  Nalpha       = 28
  Nbeta        = 28

  ==> Algorithm <==

  SCF Algorithm Type is DF.
  DIIS enabled.
  MOM disabled.
  Fractional occupation disabled.
  Guess Type is SAD.
  Energy threshold   = 1.00e-10
  Density threshold  = 1.00e-10
  Integral threshold = 1.00e-12

  ==> Primary Basis <==

  Basis Set: AUG-CC-PVTZ
    Blend: AUG-CC-PVTZ
    Number of shells: 179
    Number of basis functions: 529
    Number of Cartesian functions: 610
    Spherical Harmonics?: true
    Max angular momentum: 3

   => Loading Basis Set <=

    Name: (AUG-CC-PVTZ AUX)
    Role: JKFIT
    Keyword: DF_BASIS_SCF
    atoms 1-2  entry O          line   286 file /home1/07844/xy3866/miniconda3/envs/p4env/share/psi4/basis/aug-cc-pvtz-jkfit.gbs 
    atoms 3    entry N          line   224 file /home1/07844/xy3866/miniconda3/envs/p4env/share/psi4/basis/aug-cc-pvtz-jkfit.gbs 
    atoms 4-7  entry C          line   162 file /home1/07844/xy3866/miniconda3/envs/p4env/share/psi4/basis/aug-cc-pvtz-jkfit.gbs 
    atoms 8-16 entry H          line    70 file /home1/07844/xy3866/miniconda3/envs/p4env/share/psi4/basis/aug-cc-pvtz-jkfit.gbs 

  ==> Integral Setup <==

  DFHelper Memory: AOs need 2.430 GiB; user supplied 22.352 GiB. Using in-core AOs.

  ==> MemDFJK: Density-Fitted J/K Matrices <==

    J tasked:                   Yes
    K tasked:                   Yes
    wK tasked:                   No
    OpenMP threads:              32
    Memory [MiB]:             22888
    Algorithm:                 Core
    Schwarz Cutoff:           1E-12
    Mask sparsity (%):       3.5120
    Fitting Condition:        1E-10

   => Auxiliary Basis Set <=

  Basis Set: (AUG-CC-PVTZ AUX)
    Blend: AUG-CC-PVTZ-JKFIT
    Number of shells: 336
    Number of basis functions: 1142
    Number of Cartesian functions: 1412
    Spherical Harmonics?: true
    Max angular momentum: 4

  Minimum eigenvalue in the overlap matrix is 4.0411583030E-06.
  Reciprocal condition number of the overlap matrix is 1.9969247493E-07.
    Using symmetric orthogonalization.

  ==> Pre-Iterations <==

  SCF Guess: Superposition of Atomic Densities via on-the-fly atomic UHF (no occupation information).

   -------------------------
    Irrep   Nso     Nmo    
   -------------------------
     A        529     529 
   -------------------------
    Total     529     529
   -------------------------

  ==> Iterations <==

                           Total Energy        Delta E     RMS |[F,P]|

   @DF-RHF iter SAD:  -360.19171833038052   -3.60192e+02   0.00000e+00 
   @DF-RHF iter   1:  -360.55450943756227   -3.62791e-01   1.52806e-03 DIIS
   @DF-RHF iter   2:  -360.76159791585462   -2.07088e-01   1.06483e-03 DIIS
   @DF-RHF iter   3:  -360.87014792204332   -1.08550e-01   1.76652e-04 DIIS
   @DF-RHF iter   4:  -360.87515123442364   -5.00331e-03   6.95856e-05 DIIS
   @DF-RHF iter   5:  -360.87606449799387   -9.13264e-04   1.47667e-05 DIIS
   @DF-RHF iter   6:  -360.87611569235406   -5.11944e-05   4.81044e-06 DIIS
   @DF-RHF iter   7:  -360.87612232618676   -6.63383e-06   1.48452e-06 DIIS
   @DF-RHF iter   8:  -360.87612305095166   -7.24765e-07   6.91449e-07 DIIS
   @DF-RHF iter   9:  -360.87612317363426   -1.22683e-07   4.16547e-07 DIIS
   @DF-RHF iter  10:  -360.87612321065222   -3.70180e-08   1.09218e-07 DIIS
   @DF-RHF iter  11:  -360.87612321534885   -4.69663e-09   3.55027e-08 DIIS
   @DF-RHF iter  12:  -360.87612321582588   -4.77030e-10   1.40245e-08 DIIS
   @DF-RHF iter  13:  -360.87612321592036   -9.44738e-11   7.24683e-09 DIIS
   @DF-RHF iter  14:  -360.87612321594952   -2.91607e-11   3.49908e-09 DIIS
   @DF-RHF iter  15:  -360.87612321595691   -7.38964e-12   9.60726e-10 DIIS
   @DF-RHF iter  16:  -360.87612321595770   -7.95808e-13   3.14184e-10 DIIS
   @DF-RHF iter  17:  -360.87612321595725    4.54747e-13   1.27628e-10 DIIS
   @DF-RHF iter  18:  -360.87612321595810   -8.52651e-13   5.17510e-11 DIIS
  Energy and wave function converged.


  ==> Post-Iterations <==

    Orbital Energies [Eh]
    ---------------------

    Doubly Occupied:                                                      

       1A    -20.605901     2A    -20.605630     3A    -15.845375  
       4A    -11.307899     5A    -11.265914     6A    -11.232278  
       7A    -11.229872     8A     -1.583825     9A     -1.384527  
      10A     -1.143678    11A     -1.042999    12A     -0.951907  
      13A     -0.881380    14A     -0.804396    15A     -0.738982  
      16A     -0.728511    17A     -0.705555    18A     -0.643466  
      19A     -0.624834    20A     -0.623233    21A     -0.562888  
      22A     -0.540897    23A     -0.513257    24A     -0.509273  
      25A     -0.494202    26A     -0.486623    27A     -0.455735  
      28A     -0.444313  

    Virtual:                                                              

      29A      0.021224    30A      0.032528    31A      0.035743  
      32A      0.043393    33A      0.052059    34A      0.053809  
      35A      0.063712    36A      0.069970    37A      0.075163  
      38A      0.077993    39A      0.092759    40A      0.105464  
      41A      0.113065    42A      0.113424    43A      0.122549  
      44A      0.126875    45A      0.130987    46A      0.137082  
      47A      0.138072    48A      0.141383    49A      0.143981  
      50A      0.147334    51A      0.157547    52A      0.170452  
      53A      0.182738    54A      0.186975    55A      0.205168  
      56A      0.210658    57A      0.212974    58A      0.225327  
      59A      0.231732    60A      0.237735    61A      0.244261  
      62A      0.247506    63A      0.256208    64A      0.257431  
      65A      0.270549    66A      0.274769    67A      0.275681  
      68A      0.295514    69A      0.303312    70A      0.308771  
      71A      0.313224    72A      0.315734    73A      0.323350  
      74A      0.334618    75A      0.337891    76A      0.347983  
      77A      0.355414    78A      0.359759    79A      0.363624  
      80A      0.371805    81A      0.374819    82A      0.378204  
      83A      0.381731    84A      0.383037    85A      0.389072  
      86A      0.392932    87A      0.398921    88A      0.401557  
      89A      0.413297    90A      0.421954    91A      0.429036  
      92A      0.436545    93A      0.439217    94A      0.440734  
      95A      0.448231    96A      0.454990    97A      0.465118  
      98A      0.472028    99A      0.475410   100A      0.484088  
     101A      0.493460   102A      0.496830   103A      0.504837  
     104A      0.513382   105A      0.517528   106A      0.521486  
     107A      0.524584   108A      0.529633   109A      0.539566  
     110A      0.545010   111A      0.552273   112A      0.559554  
     113A      0.573267   114A      0.579601   115A      0.581990  
     116A      0.597182   117A      0.603461   118A      0.619131  
     119A      0.620521   120A      0.621233   121A      0.629762  
     122A      0.630936   123A      0.642954   124A      0.646774  
     125A      0.656256   126A      0.659792   127A      0.674938  
     128A      0.678145   129A      0.701803   130A      0.721245  
     131A      0.736629   132A      0.741064   133A      0.758749  
     134A      0.773758   135A      0.778717   136A      0.786572  
     137A      0.805504   138A      0.811278   139A      0.813375  
     140A      0.816965   141A      0.826009   142A      0.837960  
     143A      0.841564   144A      0.849341   145A      0.859101  
     146A      0.860447   147A      0.873470   148A      0.886256  
     149A      0.889688   150A      0.895649   151A      0.904748  
     152A      0.909389   153A      0.924403   154A      0.927146  
     155A      0.935823   156A      0.938800   157A      0.949338  
     158A      0.961498   159A      0.965579   160A      0.978899  
     161A      0.988043   162A      0.994202   163A      0.997108  
     164A      1.014423   165A      1.017526   166A      1.024879  
     167A      1.032401   168A      1.033812   169A      1.043365  
     170A      1.046202   171A      1.055077   172A      1.065516  
     173A      1.075095   174A      1.086592   175A      1.099177  
     176A      1.100994   177A      1.114942   178A      1.118631  
     179A      1.125293   180A      1.134372   181A      1.140094  
     182A      1.144637   183A      1.157059   184A      1.166243  
     185A      1.181680   186A      1.187673   187A      1.205213  
     188A      1.209805   189A      1.216911   190A      1.221472  
     191A      1.223485   192A      1.238031   193A      1.240988  
     194A      1.257652   195A      1.265818   196A      1.272107  
     197A      1.299883   198A      1.312064   199A      1.323056  
     200A      1.330665   201A      1.335400   202A      1.338697  
     203A      1.352239   204A      1.363915   205A      1.369404  
     206A      1.387128   207A      1.412388   208A      1.417704  
     209A      1.429004   210A      1.436752   211A      1.438520  
     212A      1.455551   213A      1.461532   214A      1.466310  
     215A      1.471674   216A      1.484997   217A      1.489369  
     218A      1.511764   219A      1.519570   220A      1.538951  
     221A      1.550149   222A      1.566305   223A      1.571198  
     224A      1.575971   225A      1.586773   226A      1.596712  
     227A      1.614852   228A      1.632398   229A      1.632728  
     230A      1.641624   231A      1.655883   232A      1.665078  
     233A      1.673943   234A      1.686649   235A      1.694351  
     236A      1.698791   237A      1.711044   238A      1.720104  
     239A      1.731130   240A      1.740008   241A      1.746877  
     242A      1.755996   243A      1.758882   244A      1.775695  
     245A      1.793159   246A      1.803958   247A      1.819038  
     248A      1.830742   249A      1.838793   250A      1.851404  
     251A      1.860173   252A      1.865333   253A      1.880626  
     254A      1.888384   255A      1.904981   256A      1.913883  
     257A      1.925462   258A      1.935630   259A      1.944677  
     260A      1.954431   261A      1.963335   262A      1.971287  
     263A      1.986697   264A      1.992237   265A      2.013657  
     266A      2.033731   267A      2.045605   268A      2.054412  
     269A      2.062007   270A      2.077174   271A      2.088884  
     272A      2.102175   273A      2.114518   274A      2.124062  
     275A      2.143126   276A      2.151482   277A      2.179869  
     278A      2.193426   279A      2.197623   280A      2.214201  
     281A      2.223568   282A      2.230479   283A      2.235829  
     284A      2.239487   285A      2.250124   286A      2.272745  
     287A      2.288548   288A      2.308495   289A      2.331077  
     290A      2.338484   291A      2.356590   292A      2.360312  
     293A      2.379514   294A      2.403359   295A      2.414572  
     296A      2.427063   297A      2.431097   298A      2.444451  
     299A      2.460782   300A      2.478997   301A      2.492421  
     302A      2.498727   303A      2.509768   304A      2.535651  
     305A      2.556645   306A      2.560861   307A      2.581364  
     308A      2.595434   309A      2.603338   310A      2.627473  
     311A      2.633699   312A      2.683567   313A      2.689043  
     314A      2.707713   315A      2.722313   316A      2.755378  
     317A      2.773695   318A      2.797744   319A      2.820009  
     320A      2.859560   321A      2.880479   322A      2.931715  
     323A      2.944870   324A      2.974550   325A      3.026932  
     326A      3.093402   327A      3.139355   328A      3.155817  
     329A      3.180004   330A      3.200182   331A      3.263938  
     332A      3.282992   333A      3.304106   334A      3.342314  
     335A      3.408276   336A      3.430995   337A      3.454940  
     338A      3.469185   339A      3.484696   340A      3.489147  
     341A      3.494869   342A      3.518815   343A      3.531922  
     344A      3.585626   345A      3.593467   346A      3.623581  
     347A      3.632366   348A      3.661735   349A      3.669928  
     350A      3.690503   351A      3.697839   352A      3.718375  
     353A      3.732322   354A      3.748827   355A      3.758246  
     356A      3.764797   357A      3.774062   358A      3.786657  
     359A      3.807839   360A      3.826012   361A      3.837479  
     362A      3.847194   363A      3.865575   364A      3.884065  
     365A      3.899672   366A      3.917465   367A      3.927897  
     368A      3.939170   369A      3.960577   370A      3.981193  
     371A      3.990745   372A      4.005595   373A      4.012680  
     374A      4.025980   375A      4.028838   376A      4.038449  
     377A      4.055126   378A      4.070634   379A      4.094261  
     380A      4.097164   381A      4.134118   382A      4.149999  
     383A      4.165154   384A      4.182955   385A      4.189056  
     386A      4.196177   387A      4.217677   388A      4.228492  
     389A      4.235196   390A      4.257270   391A      4.277851  
     392A      4.281760   393A      4.320999   394A      4.345119  
     395A      4.346241   396A      4.379121   397A      4.385356  
     398A      4.405149   399A      4.420823   400A      4.432280  
     401A      4.458503   402A      4.485168   403A      4.492236  
     404A      4.533824   405A      4.545791   406A      4.592651  
     407A      4.604153   408A      4.620901   409A      4.643683  
     410A      4.650497   411A      4.684830   412A      4.708590  
     413A      4.711291   414A      4.725127   415A      4.748669  
     416A      4.781717   417A      4.785391   418A      4.821759  
     419A      4.873488   420A      4.880510   421A      4.885272  
     422A      4.913143   423A      4.924306   424A      4.936042  
     425A      4.949002   426A      4.954058   427A      4.974293  
     428A      4.985255   429A      5.024458   430A      5.052890  
     431A      5.071890   432A      5.092228   433A      5.107979  
     434A      5.127697   435A      5.135745   436A      5.143059  
     437A      5.159262   438A      5.181957   439A      5.190456  
     440A      5.222694   441A      5.240650   442A      5.279818  
     443A      5.300754   444A      5.305892   445A      5.337291  
     446A      5.346645   447A      5.359216   448A      5.372836  
     449A      5.391950   450A      5.400539   451A      5.422902  
     452A      5.442725   453A      5.452631   454A      5.459247  
     455A      5.483808   456A      5.490739   457A      5.528701  
     458A      5.553921   459A      5.579713   460A      5.588562  
     461A      5.622167   462A      5.626404   463A      5.652244  
     464A      5.680482   465A      5.689353   466A      5.702509  
     467A      5.750453   468A      5.779085   469A      5.796181  
     470A      5.813868   471A      5.876193   472A      5.889657  
     473A      5.931736   474A      5.942816   475A      5.949228  
     476A      5.999272   477A      6.036364   478A      6.049243  
     479A      6.099822   480A      6.135693   481A      6.150910  
     482A      6.200783   483A      6.226600   484A      6.237429  
     485A      6.280621   486A      6.325843   487A      6.350825  
     488A      6.397210   489A      6.444430   490A      6.502968  
     491A      6.603791   492A      6.682640   493A      6.695606  
     494A      6.712547   495A      6.721521   496A      6.742974  
     497A      6.765068   498A      6.806410   499A      6.826789  
     500A      6.858828   501A      6.893009   502A      6.908554  
     503A      6.911410   504A      6.958869   505A      6.977164  
     506A      6.999633   507A      7.134672   508A      7.347607  
     509A      7.366197   510A      7.375512   511A      7.401199  
     512A      7.411760   513A      7.432172   514A      7.731150  
     515A      7.754817   516A      7.806378   517A      7.839984  
     518A      7.937003   519A      8.008404   520A      8.030576  
     521A      8.232941   522A      8.451657   523A     15.610759  
     524A     16.046411   525A     17.379829   526A     18.070839  
     527A     18.546290   528A     19.649189   529A     20.202163  

    Final Occupation by Irrep:
              A 
    DOCC [    28 ]

  @DF-RHF Final Energy:  -360.87612321595810

   => Energetics <=

    Nuclear Repulsion Energy =            327.5264985978623145
    One-Electron Energy =               -1140.8905401475988128
    Two-Electron Energy =                 452.4879183337783957
    Total Energy =                       -360.8761232159581027

Computation Completed

*** tstop() called on c420-011.stampede2.tacc.utexas.edu at Sat Mar  6 15:24:08 2021
Module time:
	user time   =     391.76 seconds =       6.53 minutes
	system time =      33.73 seconds =       0.56 minutes
	total time  =         24 seconds =       0.40 minutes
Total time:
	user time   =     391.76 seconds =       6.53 minutes
	system time =      33.73 seconds =       0.56 minutes
	total time  =         24 seconds =       0.40 minutes
   => Loading Basis Set <=

    Name: (AUG-CC-PVTZ AUX)
    Role: RIFIT
    Keyword: DF_BASIS_MP2
    atoms 1-2  entry O          line   264 file /home1/07844/xy3866/miniconda3/envs/p4env/share/psi4/basis/aug-cc-pvtz-ri.gbs 
    atoms 3    entry N          line   206 file /home1/07844/xy3866/miniconda3/envs/p4env/share/psi4/basis/aug-cc-pvtz-ri.gbs 
    atoms 4-7  entry C          line   148 file /home1/07844/xy3866/miniconda3/envs/p4env/share/psi4/basis/aug-cc-pvtz-ri.gbs 
    atoms 8-16 entry H          line    30 file /home1/07844/xy3866/miniconda3/envs/p4env/share/psi4/basis/aug-cc-pvtz-ri.gbs 


*** tstart() called on c420-011.stampede2.tacc.utexas.edu
*** at Sat Mar  6 15:24:09 2021


  //>>>>>>>>>>>>>>>>>>>>>>>>>>>>>>>>>>>//
  //               DFMP2               //
  //<<<<<<<<<<<<<<<<<<<<<<<<<<<<<<<<<<<//

	 --------------------------------------------------------
	                          DF-MP2                         
	      2nd-Order Density-Fitted Moller-Plesset Theory     
	              RMP2 Wavefunction,  32 Threads             
	                                                         
	        Rob Parrish, Justin Turney, Andy Simmonett,      
	           Ed Hohenstein, and C. David Sherrill          
	 --------------------------------------------------------

   => Auxiliary Basis Set <=

  Basis Set: (AUG-CC-PVTZ AUX)
    Blend: AUG-CC-PVTZ-RI
    Number of shells: 322
    Number of basis functions: 1156
    Number of Cartesian functions: 1447
    Spherical Harmonics?: true
    Max angular momentum: 4

	 --------------------------------------------------------
	                 NBF =   529, NAUX =  1156
	 --------------------------------------------------------
	   CLASS    FOCC     OCC    AOCC    AVIR     VIR    FVIR
	   PAIRS       0      28      28     501     501       0
	 --------------------------------------------------------

  DFHelper Memory: AOs need 2.471 GiB; user supplied 22.352 GiB. Using in-core AOs.


         ------------------------------------------------------------
                                     CPHF                           
                                  Rob Parrish                       
         ------------------------------------------------------------

  ==> Geometry <==

    Molecular point group: c1
    Full point group: C1

    Geometry (in Angstrom), charge = 0, multiplicity = 1:

       Center              X                  Y                   Z               Mass       
    ------------   -----------------  -----------------  -----------------  -----------------
         O            1.538979559996     1.108802059033    -0.359150306358    15.994914619570
         O            1.538988559996    -1.100279940967    -0.359150306358    15.994914619570
         N            1.142389559996     0.004259059033     0.054314693642    14.003074004430
         C           -1.316989440004     0.004256059033     0.423561693642    12.000000000000
         C            0.065870559996     0.004256059033     1.082988693642    12.000000000000
         C           -1.673969440004    -1.296528740967    -0.294065406358    12.000000000000
         C           -1.559432440004     1.268470059033    -0.399512306358    12.000000000000
         H           -2.019832440004     0.004252059033     1.268460693642     1.007825032230
         H            0.223892559996     0.902704059033     1.682611693642     1.007825032230
         H            0.223895559996    -0.894192940967     1.682608693642     1.007825032230
         H           -0.893467440004    -1.300648940967    -1.265332306358     1.007825032230
         H           -2.590872440004    -1.275074940967    -0.763173306358     1.007825032230
         H           -1.392594440004    -2.163479940967     0.194337693642     1.007825032230
         H           -1.392607440004     2.171992059033     0.194346693642     1.007825032230
         H           -0.893467440004     1.309172059033    -1.265326306358     1.007825032230
         H           -2.590874440004     1.283585059033    -0.763175306358     1.007825032230

  Nuclear repulsion =  327.526498597862314
  Reference energy  = -360.876123215958103

  ==> Basis Set <==

  Basis Set: AUG-CC-PVTZ
    Blend: AUG-CC-PVTZ
    Number of shells: 179
    Number of basis functions: 529
    Number of Cartesian functions: 610
    Spherical Harmonics?: true
    Max angular momentum: 3

  ==> CGRSolver (by Rob Parrish) <==

   Number of roots    =         1
   Preconditioning    =    JACOBI
   Convergence cutoff =     1E-06
   Maximum iterations =       100

  ==> CPHFRHamiltonian (by Rob Parrish) <== 

  ==> MemDFJK: Density-Fitted J/K Matrices <==

    J tasked:                   Yes
    K tasked:                   Yes
    wK tasked:                   No
    OpenMP threads:              32
    Memory [MiB]:             22888
    Algorithm:                 Core
    Schwarz Cutoff:           1E-12
    Mask sparsity (%):       1.7903
    Fitting Condition:        1E-10

   => Auxiliary Basis Set <=

  Basis Set: (AUG-CC-PVTZ AUX)
    Blend: AUG-CC-PVTZ-JKFIT
    Number of shells: 336
    Number of basis functions: 1142
    Number of Cartesian functions: 1412
    Spherical Harmonics?: true
    Max angular momentum: 4

  ==> CPHF Iterations <==

  => Iterations <=

             Iter  Converged  Remaining    Residual
  CGR           1          0          1   1.629E-01
  CGR           2          0          1   5.255E-02
  CGR           3          0          1   2.346E-02
  CGR           4          0          1   6.444E-03
  CGR           5          0          1   2.099E-03
  CGR           6          0          1   7.242E-04
  CGR           7          0          1   3.434E-04
  CGR           8          0          1   2.294E-04
  CGR           9          0          1   9.310E-05
  CGR          10          0          1   3.131E-05
  CGR          11          0          1   7.445E-06
  CGR          12          0          1   2.426E-06
  CGR          13          1          0   7.881E-07

    CGRSolver converged.

	-----------------------------------------------------------
	 ==================> DF-MP2 Energies <==================== 
	-----------------------------------------------------------
	 Reference Energy          =    -360.8761232159581027 [Eh]
	 Singles Energy            =      -0.0000000000000000 [Eh]
	 Same-Spin Energy          =      -0.3693436831702940 [Eh]
	 Opposite-Spin Energy      =      -1.1823992176648357 [Eh]
	 Correlation Energy        =      -1.5517429008351298 [Eh]
	 Total Energy              =    -362.4278661167932114 [Eh]
	-----------------------------------------------------------
	 ================> DF-SCS-MP2 Energies <================== 
	-----------------------------------------------------------
	 SCS Same-Spin Scale       =       0.3333333333333333 [-]
	 SCS Opposite-Spin Scale   =       1.2000000000000000 [-]
	 SCS Same-Spin Energy      =      -0.1231145610567647 [Eh]
	 SCS Opposite-Spin Energy  =      -1.4188790611978028 [Eh]
	 SCS Correlation Energy    =      -1.5419936222545676 [Eh]
	 SCS Total Energy          =    -362.4181168382126543 [Eh]
	-----------------------------------------------------------



Properties will be evaluated at  -0.000000,   0.000000,  -0.000000 [a0]

Properties computed using the MP2 density matrix

  Nuclear Dipole Moment: [e a0]
     X:   -10.6062      Y:     0.0359      Z:     0.9014

  Electronic Dipole Moment: [e a0]
     X:     9.4187      Y:    -0.0306      Z:    -0.0241

  Dipole Moment: [e a0]
     X:    -1.1875      Y:     0.0054      Z:     0.8772     Total:     1.4764

  Dipole Moment: [D]
     X:    -3.0184      Y:     0.0137      Z:     2.2297     Total:     3.7527


*** tstop() called on c420-011.stampede2.tacc.utexas.edu at Sat Mar  6 15:26:04 2021
Module time:
	user time   =     947.13 seconds =      15.79 minutes
	system time =      40.60 seconds =       0.68 minutes
	total time  =        115 seconds =       1.92 minutes
Total time:
	user time   =    1339.69 seconds =      22.33 minutes
	system time =      74.35 seconds =       1.24 minutes
	total time  =        140 seconds =       2.33 minutes

    Psi4 stopped on: Saturday, 06 March 2021 03:26PM
    Psi4 wall time for execution: 0:02:20.40

*** Psi4 exiting successfully. Buy a developer a beer!
