135403591                                                               
Freq      RMP2-FC                                                     6-31G(d)            
Number of atoms                            I               19
Info1-9                                    I   N=           9
          31          29        1002           0           0         100
           6           2           1
Charge                                     I                0
Multiplicity                               I                1
Number of electrons                        I               86
Number of alpha electrons                  I               43
Number of beta electrons                   I               43
Number of basis functions                  I              194
Number of independent functions            I              194
Number of point charges in /Mol/           I                0
Number of translation vectors              I                0
Atomic numbers                             I   N=          19
           8           7           7           7           7           7
           6           6           6           6           6           6
           1           1           1           1           1           1
           1
Nuclear charges                            R   N=          19
  8.00000000E+00  7.00000000E+00  7.00000000E+00  7.00000000E+00  7.00000000E+00
  7.00000000E+00  6.00000000E+00  6.00000000E+00  6.00000000E+00  6.00000000E+00
  6.00000000E+00  6.00000000E+00  1.00000000E+00  1.00000000E+00  1.00000000E+00
  1.00000000E+00  1.00000000E+00  1.00000000E+00  1.00000000E+00
Current cartesian coordinates              R   N=          57
  3.14033896E+00  4.75306061E+00  4.33349900E-02 -3.65269785E+00 -7.57001002E-01
 -2.79523967E-02  3.69347980E+00  4.39004711E-01  2.14305993E-02  5.04421684E-01
 -2.70267298E+00 -3.94444047E-02 -2.61439482E+00  3.38552907E+00 -3.65044068E-02
  4.76622284E+00 -3.84826298E+00  1.38776373E-01 -1.06481500E+00 -6.50582842E-01
 -5.08910413E-03 -4.70248886E-01  1.91709812E+00 -2.78964463E-02  2.15056902E+00
  2.66006060E+00  5.95515408E-03 -4.47546239E+00  1.70758553E+00 -3.10140525E-02
  2.88674117E+00 -2.02601383E+00 -1.09444158E-02 -5.16321139E+00 -3.04759741E+00
  6.40863400E-02 -6.47180871E+00  2.16280849E+00 -4.32680502E-02 -4.29646418E+00
 -4.46529985E+00 -1.15453901E+00 -5.26363406E+00 -3.77857949E+00  1.99239840E+00
 -7.06120030E+00 -2.61325897E+00 -6.13301739E-01  5.56869609E+00  8.12956773E-01
  2.22010799E-01  4.03886120E+00 -5.59962266E+00 -1.51377029E-01  6.30218165E+00
 -3.52296781E+00 -9.63328500E-01
Force Field                                I                0
Int Atom Types                             I   N=          19
           0           0           0           0           0           0
           0           0           0           0           0           0
           0           0           0           0           0           0
           0
MM charges                                 R   N=          19
  0.00000000E+00  0.00000000E+00  0.00000000E+00  0.00000000E+00  0.00000000E+00
  0.00000000E+00  0.00000000E+00  0.00000000E+00  0.00000000E+00  0.00000000E+00
  0.00000000E+00  0.00000000E+00  0.00000000E+00  0.00000000E+00  0.00000000E+00
  0.00000000E+00  0.00000000E+00  0.00000000E+00  0.00000000E+00
Integer atomic weights                     I   N=          19
          16          14          14          14          14          14
          12          12          12          12          12          12
           1           1           1           1           1           1
           1
Real atomic weights                        R   N=          19
  1.59949146E+01  1.40030740E+01  1.40030740E+01  1.40030740E+01  1.40030740E+01
  1.40030740E+01  1.20000000E+01  1.20000000E+01  1.20000000E+01  1.20000000E+01
  1.20000000E+01  1.20000000E+01  1.00782504E+00  1.00782504E+00  1.00782504E+00
  1.00782504E+00  1.00782504E+00  1.00782504E+00  1.00782504E+00
Atom fragment info                         I   N=          19
           0           0           0           0           0           0
           0           0           0           0           0           0
           0           0           0           0           0           0
           0
Atom residue num                           I   N=          19
           0           0           0           0           0           0
           0           0           0           0           0           0
           0           0           0           0           0           0
           0
Nuclear spins                              I   N=          19
           0           2           2           2           2           2
           0           0           0           0           0           0
           1           1           1           1           1           1
           1
Nuclear ZEff                               R   N=          19
 -5.60000000E+00 -4.55000000E+00 -4.55000000E+00 -4.55000000E+00 -4.55000000E+00
 -4.55000000E+00 -3.60000000E+00 -3.60000000E+00 -3.60000000E+00 -3.60000000E+00
 -3.60000000E+00 -3.60000000E+00 -1.00000000E+00 -1.00000000E+00 -1.00000000E+00
 -1.00000000E+00 -1.00000000E+00 -1.00000000E+00 -1.00000000E+00
Nuclear QMom                               R   N=          19
  0.00000000E+00  2.04400000E+00  2.04400000E+00  2.04400000E+00  2.04400000E+00
  2.04400000E+00  0.00000000E+00  0.00000000E+00  0.00000000E+00  0.00000000E+00
  0.00000000E+00  0.00000000E+00  0.00000000E+00  0.00000000E+00  0.00000000E+00
  0.00000000E+00  0.00000000E+00  0.00000000E+00  0.00000000E+00
Nuclear GFac                               R   N=          19
  0.00000000E+00  4.03761000E-01  4.03761000E-01  4.03761000E-01  4.03761000E-01
  4.03761000E-01  0.00000000E+00  0.00000000E+00  0.00000000E+00  0.00000000E+00
  0.00000000E+00  0.00000000E+00  2.79284600E+00  2.79284600E+00  2.79284600E+00
  2.79284600E+00  2.79284600E+00  2.79284600E+00  2.79284600E+00
MicOpt                                     I   N=          19
          -1          -1          -1          -1          -1          -1
          -1          -1          -1          -1          -1          -1
          -1          -1          -1          -1          -1          -1
          -1
Number of contracted shells                I               62
Number of primitive shells                 I              160
Pure/Cartesian d shells                    I                1
Pure/Cartesian f shells                    I                0
Highest angular momentum                   I                2
Largest degree of contraction              I                6
Shell types                                I   N=          62
           0          -1          -1           2           0          -1
          -1           2           0          -1          -1           2
           0          -1          -1           2           0          -1
          -1           2           0          -1          -1           2
           0          -1          -1           2           0          -1
          -1           2           0          -1          -1           2
           0          -1          -1           2           0          -1
          -1           2           0          -1          -1           2
           0           0           0           0           0           0
           0           0           0           0           0           0
           0           0
Number of primitives per shell             I   N=          62
           6           3           1           1           6           3
           1           1           6           3           1           1
           6           3           1           1           6           3
           1           1           6           3           1           1
           6           3           1           1           6           3
           1           1           6           3           1           1
           6           3           1           1           6           3
           1           1           6           3           1           1
           3           1           3           1           3           1
           3           1           3           1           3           1
           3           1
Shell to atom map                          I   N=          62
           1           1           1           1           2           2
           2           2           3           3           3           3
           4           4           4           4           5           5
           5           5           6           6           6           6
           7           7           7           7           8           8
           8           8           9           9           9           9
          10          10          10          10          11          11
          11          11          12          12          12          12
          13          13          14          14          15          15
          16          16          17          17          18          18
          19          19
Primitive exponents                        R   N=         160
  5.48467166E+03  8.25234946E+02  1.88046958E+02  5.29645000E+01  1.68975704E+01
  5.79963534E+00  1.55396162E+01  3.59993359E+00  1.01376175E+00  2.70005823E-01
  8.00000000E-01  4.17351146E+03  6.27457911E+02  1.42902093E+02  4.02343293E+01
  1.28202129E+01  4.39043701E+00  1.16263619E+01  2.71627981E+00  7.72218397E-01
  2.12031498E-01  8.00000000E-01  4.17351146E+03  6.27457911E+02  1.42902093E+02
  4.02343293E+01  1.28202129E+01  4.39043701E+00  1.16263619E+01  2.71627981E+00
  7.72218397E-01  2.12031498E-01  8.00000000E-01  4.17351146E+03  6.27457911E+02
  1.42902093E+02  4.02343293E+01  1.28202129E+01  4.39043701E+00  1.16263619E+01
  2.71627981E+00  7.72218397E-01  2.12031498E-01  8.00000000E-01  4.17351146E+03
  6.27457911E+02  1.42902093E+02  4.02343293E+01  1.28202129E+01  4.39043701E+00
  1.16263619E+01  2.71627981E+00  7.72218397E-01  2.12031498E-01  8.00000000E-01
  4.17351146E+03  6.27457911E+02  1.42902093E+02  4.02343293E+01  1.28202129E+01
  4.39043701E+00  1.16263619E+01  2.71627981E+00  7.72218397E-01  2.12031498E-01
  8.00000000E-01  3.04752488E+03  4.57369518E+02  1.03948685E+02  2.92101553E+01
  9.28666296E+00  3.16392696E+00  7.86827235E+00  1.88128854E+00  5.44249258E-01
  1.68714478E-01  8.00000000E-01  3.04752488E+03  4.57369518E+02  1.03948685E+02
  2.92101553E+01  9.28666296E+00  3.16392696E+00  7.86827235E+00  1.88128854E+00
  5.44249258E-01  1.68714478E-01  8.00000000E-01  3.04752488E+03  4.57369518E+02
  1.03948685E+02  2.92101553E+01  9.28666296E+00  3.16392696E+00  7.86827235E+00
  1.88128854E+00  5.44249258E-01  1.68714478E-01  8.00000000E-01  3.04752488E+03
  4.57369518E+02  1.03948685E+02  2.92101553E+01  9.28666296E+00  3.16392696E+00
  7.86827235E+00  1.88128854E+00  5.44249258E-01  1.68714478E-01  8.00000000E-01
  3.04752488E+03  4.57369518E+02  1.03948685E+02  2.92101553E+01  9.28666296E+00
  3.16392696E+00  7.86827235E+00  1.88128854E+00  5.44249258E-01  1.68714478E-01
  8.00000000E-01  3.04752488E+03  4.57369518E+02  1.03948685E+02  2.92101553E+01
  9.28666296E+00  3.16392696E+00  7.86827235E+00  1.88128854E+00  5.44249258E-01
  1.68714478E-01  8.00000000E-01  1.87311370E+01  2.82539436E+00  6.40121692E-01
  1.61277759E-01  1.87311370E+01  2.82539436E+00  6.40121692E-01  1.61277759E-01
  1.87311370E+01  2.82539436E+00  6.40121692E-01  1.61277759E-01  1.87311370E+01
  2.82539436E+00  6.40121692E-01  1.61277759E-01  1.87311370E+01  2.82539436E+00
  6.40121692E-01  1.61277759E-01  1.87311370E+01  2.82539436E+00  6.40121692E-01
  1.61277759E-01  1.87311370E+01  2.82539436E+00  6.40121692E-01  1.61277759E-01
Contraction coefficients                   R   N=         160
  1.83107443E-03  1.39501722E-02  6.84450781E-02  2.32714336E-01  4.70192898E-01
  3.58520853E-01 -1.10777550E-01 -1.48026263E-01  1.13076702E+00  1.00000000E+00
  1.00000000E+00  1.83477216E-03  1.39946270E-02  6.85865518E-02  2.32240873E-01
  4.69069948E-01  3.60455199E-01 -1.14961182E-01 -1.69117479E-01  1.14585195E+00
  1.00000000E+00  1.00000000E+00  1.83477216E-03  1.39946270E-02  6.85865518E-02
  2.32240873E-01  4.69069948E-01  3.60455199E-01 -1.14961182E-01 -1.69117479E-01
  1.14585195E+00  1.00000000E+00  1.00000000E+00  1.83477216E-03  1.39946270E-02
  6.85865518E-02  2.32240873E-01  4.69069948E-01  3.60455199E-01 -1.14961182E-01
 -1.69117479E-01  1.14585195E+00  1.00000000E+00  1.00000000E+00  1.83477216E-03
  1.39946270E-02  6.85865518E-02  2.32240873E-01  4.69069948E-01  3.60455199E-01
 -1.14961182E-01 -1.69117479E-01  1.14585195E+00  1.00000000E+00  1.00000000E+00
  1.83477216E-03  1.39946270E-02  6.85865518E-02  2.32240873E-01  4.69069948E-01
  3.60455199E-01 -1.14961182E-01 -1.69117479E-01  1.14585195E+00  1.00000000E+00
  1.00000000E+00  1.83473713E-03  1.40373228E-02  6.88426223E-02  2.32184443E-01
  4.67941348E-01  3.62311985E-01 -1.19332420E-01 -1.60854152E-01  1.14345644E+00
  1.00000000E+00  1.00000000E+00  1.83473713E-03  1.40373228E-02  6.88426223E-02
  2.32184443E-01  4.67941348E-01  3.62311985E-01 -1.19332420E-01 -1.60854152E-01
  1.14345644E+00  1.00000000E+00  1.00000000E+00  1.83473713E-03  1.40373228E-02
  6.88426223E-02  2.32184443E-01  4.67941348E-01  3.62311985E-01 -1.19332420E-01
 -1.60854152E-01  1.14345644E+00  1.00000000E+00  1.00000000E+00  1.83473713E-03
  1.40373228E-02  6.88426223E-02  2.32184443E-01  4.67941348E-01  3.62311985E-01
 -1.19332420E-01 -1.60854152E-01  1.14345644E+00  1.00000000E+00  1.00000000E+00
  1.83473713E-03  1.40373228E-02  6.88426223E-02  2.32184443E-01  4.67941348E-01
  3.62311985E-01 -1.19332420E-01 -1.60854152E-01  1.14345644E+00  1.00000000E+00
  1.00000000E+00  1.83473713E-03  1.40373228E-02  6.88426223E-02  2.32184443E-01
  4.67941348E-01  3.62311985E-01 -1.19332420E-01 -1.60854152E-01  1.14345644E+00
  1.00000000E+00  1.00000000E+00  3.34946043E-02  2.34726953E-01  8.13757326E-01
  1.00000000E+00  3.34946043E-02  2.34726953E-01  8.13757326E-01  1.00000000E+00
  3.34946043E-02  2.34726953E-01  8.13757326E-01  1.00000000E+00  3.34946043E-02
  2.34726953E-01  8.13757326E-01  1.00000000E+00  3.34946043E-02  2.34726953E-01
  8.13757326E-01  1.00000000E+00  3.34946043E-02  2.34726953E-01  8.13757326E-01
  1.00000000E+00  3.34946043E-02  2.34726953E-01  8.13757326E-01  1.00000000E+00
P(S=P) Contraction coefficients            R   N=         160
  0.00000000E+00  0.00000000E+00  0.00000000E+00  0.00000000E+00  0.00000000E+00
  0.00000000E+00  7.08742682E-02  3.39752839E-01  7.27158577E-01  1.00000000E+00
  0.00000000E+00  0.00000000E+00  0.00000000E+00  0.00000000E+00  0.00000000E+00
  0.00000000E+00  0.00000000E+00  6.75797439E-02  3.23907296E-01  7.40895140E-01
  1.00000000E+00  0.00000000E+00  0.00000000E+00  0.00000000E+00  0.00000000E+00
  0.00000000E+00  0.00000000E+00  0.00000000E+00  6.75797439E-02  3.23907296E-01
  7.40895140E-01  1.00000000E+00  0.00000000E+00  0.00000000E+00  0.00000000E+00
  0.00000000E+00  0.00000000E+00  0.00000000E+00  0.00000000E+00  6.75797439E-02
  3.23907296E-01  7.40895140E-01  1.00000000E+00  0.00000000E+00  0.00000000E+00
  0.00000000E+00  0.00000000E+00  0.00000000E+00  0.00000000E+00  0.00000000E+00
  6.75797439E-02  3.23907296E-01  7.40895140E-01  1.00000000E+00  0.00000000E+00
  0.00000000E+00  0.00000000E+00  0.00000000E+00  0.00000000E+00  0.00000000E+00
  0.00000000E+00  6.75797439E-02  3.23907296E-01  7.40895140E-01  1.00000000E+00
  0.00000000E+00  0.00000000E+00  0.00000000E+00  0.00000000E+00  0.00000000E+00
  0.00000000E+00  0.00000000E+00  6.89990666E-02  3.16423961E-01  7.44308291E-01
  1.00000000E+00  0.00000000E+00  0.00000000E+00  0.00000000E+00  0.00000000E+00
  0.00000000E+00  0.00000000E+00  0.00000000E+00  6.89990666E-02  3.16423961E-01
  7.44308291E-01  1.00000000E+00  0.00000000E+00  0.00000000E+00  0.00000000E+00
  0.00000000E+00  0.00000000E+00  0.00000000E+00  0.00000000E+00  6.89990666E-02
  3.16423961E-01  7.44308291E-01  1.00000000E+00  0.00000000E+00  0.00000000E+00
  0.00000000E+00  0.00000000E+00  0.00000000E+00  0.00000000E+00  0.00000000E+00
  6.89990666E-02  3.16423961E-01  7.44308291E-01  1.00000000E+00  0.00000000E+00
  0.00000000E+00  0.00000000E+00  0.00000000E+00  0.00000000E+00  0.00000000E+00
  0.00000000E+00  6.89990666E-02  3.16423961E-01  7.44308291E-01  1.00000000E+00
  0.00000000E+00  0.00000000E+00  0.00000000E+00  0.00000000E+00  0.00000000E+00
  0.00000000E+00  0.00000000E+00  6.89990666E-02  3.16423961E-01  7.44308291E-01
  1.00000000E+00  0.00000000E+00  0.00000000E+00  0.00000000E+00  0.00000000E+00
  0.00000000E+00  0.00000000E+00  0.00000000E+00  0.00000000E+00  0.00000000E+00
  0.00000000E+00  0.00000000E+00  0.00000000E+00  0.00000000E+00  0.00000000E+00
  0.00000000E+00  0.00000000E+00  0.00000000E+00  0.00000000E+00  0.00000000E+00
  0.00000000E+00  0.00000000E+00  0.00000000E+00  0.00000000E+00  0.00000000E+00
  0.00000000E+00  0.00000000E+00  0.00000000E+00  0.00000000E+00  0.00000000E+00
Coordinates of each shell                  R   N=         186
  3.14033896E+00  4.75306061E+00  4.33349900E-02  3.14033896E+00  4.75306061E+00
  4.33349900E-02  3.14033896E+00  4.75306061E+00  4.33349900E-02  3.14033896E+00
  4.75306061E+00  4.33349900E-02 -3.65269785E+00 -7.57001002E-01 -2.79523967E-02
 -3.65269785E+00 -7.57001002E-01 -2.79523967E-02 -3.65269785E+00 -7.57001002E-01
 -2.79523967E-02 -3.65269785E+00 -7.57001002E-01 -2.79523967E-02  3.69347980E+00
  4.39004711E-01  2.14305993E-02  3.69347980E+00  4.39004711E-01  2.14305993E-02
  3.69347980E+00  4.39004711E-01  2.14305993E-02  3.69347980E+00  4.39004711E-01
  2.14305993E-02  5.04421684E-01 -2.70267298E+00 -3.94444047E-02  5.04421684E-01
 -2.70267298E+00 -3.94444047E-02  5.04421684E-01 -2.70267298E+00 -3.94444047E-02
  5.04421684E-01 -2.70267298E+00 -3.94444047E-02 -2.61439482E+00  3.38552907E+00
 -3.65044068E-02 -2.61439482E+00  3.38552907E+00 -3.65044068E-02 -2.61439482E+00
  3.38552907E+00 -3.65044068E-02 -2.61439482E+00  3.38552907E+00 -3.65044068E-02
  4.76622284E+00 -3.84826298E+00  1.38776373E-01  4.76622284E+00 -3.84826298E+00
  1.38776373E-01  4.76622284E+00 -3.84826298E+00  1.38776373E-01  4.76622284E+00
 -3.84826298E+00  1.38776373E-01 -1.06481500E+00 -6.50582842E-01 -5.08910413E-03
 -1.06481500E+00 -6.50582842E-01 -5.08910413E-03 -1.06481500E+00 -6.50582842E-01
 -5.08910413E-03 -1.06481500E+00 -6.50582842E-01 -5.08910413E-03 -4.70248886E-01
  1.91709812E+00 -2.78964463E-02 -4.70248886E-01  1.91709812E+00 -2.78964463E-02
 -4.70248886E-01  1.91709812E+00 -2.78964463E-02 -4.70248886E-01  1.91709812E+00
 -2.78964463E-02  2.15056902E+00  2.66006060E+00  5.95515408E-03  2.15056902E+00
  2.66006060E+00  5.95515408E-03  2.15056902E+00  2.66006060E+00  5.95515408E-03
  2.15056902E+00  2.66006060E+00  5.95515408E-03 -4.47546239E+00  1.70758553E+00
 -3.10140525E-02 -4.47546239E+00  1.70758553E+00 -3.10140525E-02 -4.47546239E+00
  1.70758553E+00 -3.10140525E-02 -4.47546239E+00  1.70758553E+00 -3.10140525E-02
  2.88674117E+00 -2.02601383E+00 -1.09444158E-02  2.88674117E+00 -2.02601383E+00
 -1.09444158E-02  2.88674117E+00 -2.02601383E+00 -1.09444158E-02  2.88674117E+00
 -2.02601383E+00 -1.09444158E-02 -5.16321139E+00 -3.04759741E+00  6.40863400E-02
 -5.16321139E+00 -3.04759741E+00  6.40863400E-02 -5.16321139E+00 -3.04759741E+00
  6.40863400E-02 -5.16321139E+00 -3.04759741E+00  6.40863400E-02 -6.47180871E+00
  2.16280849E+00 -4.32680502E-02 -6.47180871E+00  2.16280849E+00 -4.32680502E-02
 -4.29646418E+00 -4.46529985E+00 -1.15453901E+00 -4.29646418E+00 -4.46529985E+00
 -1.15453901E+00 -5.26363406E+00 -3.77857949E+00  1.99239840E+00 -5.26363406E+00
 -3.77857949E+00  1.99239840E+00 -7.06120030E+00 -2.61325897E+00 -6.13301739E-01
 -7.06120030E+00 -2.61325897E+00 -6.13301739E-01  5.56869609E+00  8.12956773E-01
  2.22010799E-01  5.56869609E+00  8.12956773E-01  2.22010799E-01  4.03886120E+00
 -5.59962266E+00 -1.51377029E-01  4.03886120E+00 -5.59962266E+00 -1.51377029E-01
  6.30218165E+00 -3.52296781E+00 -9.63328500E-01  6.30218165E+00 -3.52296781E+00
 -9.63328500E-01
Constraint Structure                       R   N=          57
  3.14033896E+00  4.75306061E+00  4.33349900E-02 -3.65269785E+00 -7.57001002E-01
 -2.79523967E-02  3.69347980E+00  4.39004711E-01  2.14305993E-02  5.04421684E-01
 -2.70267298E+00 -3.94444047E-02 -2.61439482E+00  3.38552907E+00 -3.65044068E-02
  4.76622284E+00 -3.84826298E+00  1.38776373E-01 -1.06481500E+00 -6.50582842E-01
 -5.08910413E-03 -4.70248886E-01  1.91709812E+00 -2.78964463E-02  2.15056902E+00
  2.66006060E+00  5.95515408E-03 -4.47546239E+00  1.70758553E+00 -3.10140525E-02
  2.88674117E+00 -2.02601383E+00 -1.09444158E-02 -5.16321139E+00 -3.04759741E+00
  6.40863400E-02 -6.47180871E+00  2.16280849E+00 -4.32680502E-02 -4.29646418E+00
 -4.46529985E+00 -1.15453901E+00 -5.26363406E+00 -3.77857949E+00  1.99239840E+00
 -7.06120030E+00 -2.61325897E+00 -6.13301739E-01  5.56869609E+00  8.12956773E-01
  2.22010799E-01  4.03886120E+00 -5.59962266E+00 -1.51377029E-01  6.30218165E+00
 -3.52296781E+00 -9.63328500E-01
Num ILSW                                   I              100
ILSW                                       I   N=         100
           0           1           0           0           2           0
           0           0           0           0           0          -1
           0           0           0           0           0           0
           0           0           0           0           1           0
           1           0           0           0           0           0
           0           0      100000           0          -1           0
           0           0           0           0           0           0
           0           0           0           1           1           0
           0           0           1           0           0           0
           0           0           4          40           0           0
           0           0           0           0           0           0
           0           0           0           0           0           0
           0           0           0           0           0           0
           0           0           0           0           0           0
           0           0           0           0           0           0
           0           0           0           0           0           0
           0           0           0           0
Num RLSW                                   I               40
RLSW                                       R   N=          40
  1.00000000E+00  1.00000000E+00  1.00000000E+00  1.00000000E+00  1.00000000E+00
  0.00000000E+00  0.00000000E+00  1.00000000E+00  0.00000000E+00  0.00000000E+00
  0.00000000E+00  0.00000000E+00  1.00000000E+00  0.00000000E+00  0.00000000E+00
  0.00000000E+00  0.00000000E+00  1.00000000E+00  0.00000000E+00  0.00000000E+00
  0.00000000E+00  0.00000000E+00  1.00000000E+00  0.00000000E+00  0.00000000E+00
  0.00000000E+00  0.00000000E+00  1.00000000E+00  0.00000000E+00  0.00000000E+00
  0.00000000E+00  0.00000000E+00  0.00000000E+00  0.00000000E+00  0.00000000E+00
  0.00000000E+00  0.00000000E+00  0.00000000E+00  1.00000000E+00  1.00000000E+00
MxBond                                     I                4
NBond                                      I   N=          19
           1           3           3           2           2           3
           3           3           3           3           3           4
           1           1           1           1           1           1
           1
IBond                                      I   N=          76
           9           0           0           0           7          10
          12           0           9          11          17           0
           7          11           0           0           8          10
           0           0          11          18          19           0
           2           4           8           0           5           7
           9           0           1           3           8           0
           2           5          13           0           3           4
           6           0           2          14          15          16
          10           0           0           0          12           0
           0           0          12           0           0           0
          12           0           0           0           3           0
           0           0           6           0           0           0
           6           0           0           0
RBond                                      R   N=          76
  2.00000000E+00  0.00000000E+00  0.00000000E+00  0.00000000E+00  1.50000000E+00
  1.00000000E+00  1.00000000E+00  0.00000000E+00  1.00000000E+00  1.00000000E+00
  1.00000000E+00  0.00000000E+00  1.50000000E+00  1.50000000E+00  0.00000000E+00
  0.00000000E+00  1.50000000E+00  1.50000000E+00  0.00000000E+00  0.00000000E+00
  1.00000000E+00  1.00000000E+00  1.00000000E+00  0.00000000E+00  1.50000000E+00
  1.50000000E+00  1.50000000E+00  0.00000000E+00  1.50000000E+00  1.50000000E+00
  1.00000000E+00  0.00000000E+00  2.00000000E+00  1.00000000E+00  1.00000000E+00
  0.00000000E+00  1.00000000E+00  1.50000000E+00  1.00000000E+00  0.00000000E+00
  1.00000000E+00  1.50000000E+00  1.00000000E+00  0.00000000E+00  1.00000000E+00
  1.00000000E+00  1.00000000E+00  1.00000000E+00  1.00000000E+00  0.00000000E+00
  0.00000000E+00  0.00000000E+00  1.00000000E+00  0.00000000E+00  0.00000000E+00
  0.00000000E+00  1.00000000E+00  0.00000000E+00  0.00000000E+00  0.00000000E+00
  1.00000000E+00  0.00000000E+00  0.00000000E+00  0.00000000E+00  1.00000000E+00
  0.00000000E+00  0.00000000E+00  0.00000000E+00  1.00000000E+00  0.00000000E+00
  0.00000000E+00  0.00000000E+00  1.00000000E+00  0.00000000E+00  0.00000000E+00
  0.00000000E+00
Virial Ratio                               R      2.002941774003312E+00
SCF Energy                                 R     -5.784186138455737E+02
MP2 Energy                                 R     -5.801620625716541E+02
Total Energy                               R     -5.801620625716541E+02
Post-SCF wavefunction norm                 R      1.771904169963208E+00
RMS Force                                  R      4.295506624596227E-08
RMS Density                                R      5.139810228977671E-10
External E-field                           R   N=          35
  0.00000000E+00  0.00000000E+00  0.00000000E+00  0.00000000E+00  0.00000000E+00
  0.00000000E+00  0.00000000E+00  0.00000000E+00  0.00000000E+00  0.00000000E+00
  0.00000000E+00  0.00000000E+00  0.00000000E+00  0.00000000E+00  0.00000000E+00
  0.00000000E+00  0.00000000E+00  0.00000000E+00  0.00000000E+00  0.00000000E+00
  0.00000000E+00  0.00000000E+00  0.00000000E+00  0.00000000E+00  0.00000000E+00
  0.00000000E+00  0.00000000E+00  0.00000000E+00  0.00000000E+00  0.00000000E+00
  0.00000000E+00  0.00000000E+00  0.00000000E+00  0.00000000E+00  0.00000000E+00
IOpCl                                      I                0
IROHF                                      I                0
Alpha Orbital Energies                     R   N=         194
 -2.05253761E+01 -1.56356638E+01 -1.56330594E+01 -1.56129758E+01 -1.55726100E+01
 -1.55596018E+01 -1.13968217E+01 -1.13657658E+01 -1.13176872E+01 -1.13049115E+01
 -1.12885381E+01 -1.12451973E+01 -1.38820311E+00 -1.35750538E+00 -1.33162525E+00
 -1.21654639E+00 -1.21330234E+00 -1.18743959E+00 -1.02686018E+00 -9.84185496E-01
 -8.98783898E-01 -8.79360500E-01 -8.04329810E-01 -7.63601103E-01 -7.39023491E-01
 -7.25687413E-01 -6.88888027E-01 -6.66135036E-01 -6.45953346E-01 -6.39057951E-01
 -6.21681148E-01 -6.04776240E-01 -5.90178726E-01 -5.76292292E-01 -5.56720720E-01
 -5.36178973E-01 -4.87776777E-01 -4.53969175E-01 -4.34036942E-01 -4.23582137E-01
 -4.22168202E-01 -3.86274804E-01 -2.92347938E-01  1.37269359E-01  1.54426751E-01
  1.94459496E-01  2.08863173E-01  2.32802968E-01  2.46368702E-01  2.69274330E-01
  2.77106851E-01  2.95291152E-01  3.11767794E-01  3.26493750E-01  3.73801846E-01
  3.84949123E-01  4.04045264E-01  4.25737183E-01  4.56090720E-01  4.81765129E-01
  4.96964388E-01  5.15724493E-01  5.27550877E-01  5.76987788E-01  5.87460799E-01
  6.40841595E-01  6.87042788E-01  6.95942952E-01  7.22329344E-01  7.27748435E-01
  7.45705300E-01  7.74278224E-01  7.76405634E-01  8.10297977E-01  8.13459713E-01
  8.28021596E-01  8.57910872E-01  8.72001463E-01  8.87016074E-01  9.19229872E-01
  9.31411661E-01  9.55032685E-01  9.61916407E-01  9.75335712E-01  9.80176090E-01
  9.99508337E-01  1.01004558E+00  1.01252315E+00  1.04097119E+00  1.04947400E+00
  1.06522221E+00  1.08907290E+00  1.10508721E+00  1.11265602E+00  1.13387115E+00
  1.14683330E+00  1.15617478E+00  1.15886250E+00  1.16454468E+00  1.17680352E+00
  1.18220090E+00  1.21462105E+00  1.22311119E+00  1.23113536E+00  1.29626021E+00
  1.30270307E+00  1.31898728E+00  1.35387241E+00  1.39640936E+00  1.41034523E+00
  1.45412090E+00  1.45806937E+00  1.52772992E+00  1.55487200E+00  1.57793125E+00
  1.59111617E+00  1.60659506E+00  1.61156350E+00  1.62478934E+00  1.66000982E+00
  1.66988301E+00  1.70428849E+00  1.72534381E+00  1.76451694E+00  1.77875442E+00
  1.79190688E+00  1.84096037E+00  1.88786847E+00  1.95363120E+00  1.99762535E+00
  2.02604401E+00  2.05674262E+00  2.07884356E+00  2.12714899E+00  2.13371502E+00
  2.14261943E+00  2.15617763E+00  2.19078330E+00  2.21950734E+00  2.23125012E+00
  2.25049214E+00  2.28225126E+00  2.29581512E+00  2.32484730E+00  2.37225689E+00
  2.42242276E+00  2.43385001E+00  2.44403552E+00  2.46823370E+00  2.49873865E+00
  2.51387484E+00  2.53163726E+00  2.55659550E+00  2.58005747E+00  2.58985280E+00
  2.61131310E+00  2.67503289E+00  2.68226906E+00  2.70846620E+00  2.73773110E+00
  2.75250920E+00  2.80861206E+00  2.84223204E+00  2.85526230E+00  2.89498634E+00
  2.90146713E+00  2.91290595E+00  2.97565949E+00  3.03264502E+00  3.04971633E+00