175_3-Mercaptopropanol Gaussian SP Calculation on node73.bme.utexas.edu 
Freq      RMP2-FC                                                     6-31G(d)            
Number of atoms                            I               13
Info1-9                                    I   N=           9
          24          23        1002           0           0         100
           6           2           1
Charge                                     I                0
Multiplicity                               I                1
Number of electrons                        I               50
Number of alpha electrons                  I               25
Number of beta electrons                   I               25
Number of basis functions                  I               95
Number of independent functions            I               95
Number of point charges in /Mol/           I                0
Number of translation vectors              I                0
Atomic numbers                             I   N=          13
          16           8           6           6           6           1
           1           1           1           1           1           1
           1
Nuclear charges                            R   N=          13
  1.60000000E+01  8.00000000E+00  6.00000000E+00  6.00000000E+00  6.00000000E+00
  1.00000000E+00  1.00000000E+00  1.00000000E+00  1.00000000E+00  1.00000000E+00
  1.00000000E+00  1.00000000E+00  1.00000000E+00
Current cartesian coordinates              R   N=          39
 -4.37754131E+00 -3.43461384E-01 -1.48457117E-01  5.37026852E+00 -9.68649760E-01
 -6.36289386E-02  9.19322898E-01 -5.33490370E-01 -5.21050462E-02 -1.33702319E+00
  1.24543299E+00  1.15142244E-01  3.41206997E+00  8.82231233E-01  4.95320864E-02
  8.35997883E-01 -1.62273088E+00 -1.80684429E+00  8.80060054E-01 -1.89084241E+00
  1.51054257E+00 -1.30768413E+00  2.59494461E+00 -1.45223602E+00 -1.28284656E+00
  2.34283158E+00  1.86644467E+00  3.53905707E+00  2.20923432E+00 -1.54641963E+00
  3.53211594E+00  1.99448988E+00  1.80275494E+00 -4.06308179E+00 -1.86425594E+00
  1.85561582E+00  6.97867632E+00 -8.41340352E-02 -2.09283841E-02
Force Field                                I                0
Int Atom Types                             I   N=          13
           0           0           0           0           0           0
           0           0           0           0           0           0
           0
MM charges                                 R   N=          13
  0.00000000E+00  0.00000000E+00  0.00000000E+00  0.00000000E+00  0.00000000E+00
  0.00000000E+00  0.00000000E+00  0.00000000E+00  0.00000000E+00  0.00000000E+00
  0.00000000E+00  0.00000000E+00  0.00000000E+00
Integer atomic weights                     I   N=          13
          32          16          12          12          12           1
           1           1           1           1           1           1
           1
Real atomic weights                        R   N=          13
  3.19720718E+01  1.59949146E+01  1.20000000E+01  1.20000000E+01  1.20000000E+01
  1.00782504E+00  1.00782504E+00  1.00782504E+00  1.00782504E+00  1.00782504E+00
  1.00782504E+00  1.00782504E+00  1.00782504E+00
Atom fragment info                         I   N=          13
           0           0           0           0           0           0
           0           0           0           0           0           0
           0
Atom residue num                           I   N=          13
           0           0           0           0           0           0
           0           0           0           0           0           0
           0
Nuclear spins                              I   N=          13
           0           0           0           0           0           1
           1           1           1           1           1           1
           1
Nuclear ZEff                               R   N=          13
 -1.36000000E+01 -5.60000000E+00 -3.60000000E+00 -3.60000000E+00 -3.60000000E+00
 -1.00000000E+00 -1.00000000E+00 -1.00000000E+00 -1.00000000E+00 -1.00000000E+00
 -1.00000000E+00 -1.00000000E+00 -1.00000000E+00
Nuclear QMom                               R   N=          13
  0.00000000E+00  0.00000000E+00  0.00000000E+00  0.00000000E+00  0.00000000E+00
  0.00000000E+00  0.00000000E+00  0.00000000E+00  0.00000000E+00  0.00000000E+00
  0.00000000E+00  0.00000000E+00  0.00000000E+00
Nuclear GFac                               R   N=          13
  0.00000000E+00  0.00000000E+00  0.00000000E+00  0.00000000E+00  0.00000000E+00
  2.79284600E+00  2.79284600E+00  2.79284600E+00  2.79284600E+00  2.79284600E+00
  2.79284600E+00  2.79284600E+00  2.79284600E+00
MicOpt                                     I   N=          13
          -1          -1          -1          -1          -1          -1
          -1          -1          -1          -1          -1          -1
          -1
Number of contracted shells                I               37
Number of primitive shells                 I               93
Pure/Cartesian d shells                    I                1
Pure/Cartesian f shells                    I                0
Highest angular momentum                   I                2
Largest degree of contraction              I                6
Shell types                                I   N=          37
           0          -1          -1          -1           2           0
          -1          -1           2           0          -1          -1
           2           0          -1          -1           2           0
          -1          -1           2           0           0           0
           0           0           0           0           0           0
           0           0           0           0           0           0
           0
Number of primitives per shell             I   N=          37
           6           6           3           1           1           6
           3           1           1           6           3           1
           1           6           3           1           1           6
           3           1           1           3           1           3
           1           3           1           3           1           3
           1           3           1           3           1           3
           1
Shell to atom map                          I   N=          37
           1           1           1           1           1           2
           2           2           2           3           3           3
           3           4           4           4           4           5
           5           5           5           6           6           7
           7           8           8           9           9          10
          10          11          11          12          12          13
          13
Primitive exponents                        R   N=          93
  2.19171000E+04  3.30149000E+03  7.54146000E+02  2.12711000E+02  6.79896000E+01
  2.30515000E+01  4.23735000E+02  1.00710000E+02  3.21599000E+01  1.18079000E+01
  4.63110000E+00  1.87025000E+00  2.61584000E+00  9.22167000E-01  3.41287000E-01
  1.17167000E-01  6.50000000E-01  5.48467166E+03  8.25234946E+02  1.88046958E+02
  5.29645000E+01  1.68975704E+01  5.79963534E+00  1.55396162E+01  3.59993359E+00
  1.01376175E+00  2.70005823E-01  8.00000000E-01  3.04752488E+03  4.57369518E+02
  1.03948685E+02  2.92101553E+01  9.28666296E+00  3.16392696E+00  7.86827235E+00
  1.88128854E+00  5.44249258E-01  1.68714478E-01  8.00000000E-01  3.04752488E+03
  4.57369518E+02  1.03948685E+02  2.92101553E+01  9.28666296E+00  3.16392696E+00
  7.86827235E+00  1.88128854E+00  5.44249258E-01  1.68714478E-01  8.00000000E-01
  3.04752488E+03  4.57369518E+02  1.03948685E+02  2.92101553E+01  9.28666296E+00
  3.16392696E+00  7.86827235E+00  1.88128854E+00  5.44249258E-01  1.68714478E-01
  8.00000000E-01  1.87311370E+01  2.82539436E+00  6.40121692E-01  1.61277759E-01
  1.87311370E+01  2.82539436E+00  6.40121692E-01  1.61277759E-01  1.87311370E+01
  2.82539436E+00  6.40121692E-01  1.61277759E-01  1.87311370E+01  2.82539436E+00
  6.40121692E-01  1.61277759E-01  1.87311370E+01  2.82539436E+00  6.40121692E-01
  1.61277759E-01  1.87311370E+01  2.82539436E+00  6.40121692E-01  1.61277759E-01
  1.87311370E+01  2.82539436E+00  6.40121692E-01  1.61277759E-01  1.87311370E+01
  2.82539436E+00  6.40121692E-01  1.61277759E-01
Contraction coefficients                   R   N=          93
  1.86924085E-03  1.42303065E-02  6.96962317E-02  2.38487108E-01  4.83307220E-01
  3.38074154E-01 -2.37677050E-03 -3.16930067E-02 -1.13317024E-01  5.60900118E-02
  5.92255124E-01  4.55006095E-01 -2.50373114E-01  6.69567631E-02  1.05450627E+00
  1.00000000E+00  1.00000000E+00  1.83107443E-03  1.39501722E-02  6.84450781E-02
  2.32714336E-01  4.70192898E-01  3.58520853E-01 -1.10777550E-01 -1.48026263E-01
  1.13076702E+00  1.00000000E+00  1.00000000E+00  1.83473713E-03  1.40373228E-02
  6.88426223E-02  2.32184443E-01  4.67941348E-01  3.62311985E-01 -1.19332420E-01
 -1.60854152E-01  1.14345644E+00  1.00000000E+00  1.00000000E+00  1.83473713E-03
  1.40373228E-02  6.88426223E-02  2.32184443E-01  4.67941348E-01  3.62311985E-01
 -1.19332420E-01 -1.60854152E-01  1.14345644E+00  1.00000000E+00  1.00000000E+00
  1.83473713E-03  1.40373228E-02  6.88426223E-02  2.32184443E-01  4.67941348E-01
  3.62311985E-01 -1.19332420E-01 -1.60854152E-01  1.14345644E+00  1.00000000E+00
  1.00000000E+00  3.34946043E-02  2.34726953E-01  8.13757326E-01  1.00000000E+00
  3.34946043E-02  2.34726953E-01  8.13757326E-01  1.00000000E+00  3.34946043E-02
  2.34726953E-01  8.13757326E-01  1.00000000E+00  3.34946043E-02  2.34726953E-01
  8.13757326E-01  1.00000000E+00  3.34946043E-02  2.34726953E-01  8.13757326E-01
  1.00000000E+00  3.34946043E-02  2.34726953E-01  8.13757326E-01  1.00000000E+00
  3.34946043E-02  2.34726953E-01  8.13757326E-01  1.00000000E+00  3.34946043E-02
  2.34726953E-01  8.13757326E-01  1.00000000E+00
P(S=P) Contraction coefficients            R   N=          93
  0.00000000E+00  0.00000000E+00  0.00000000E+00  0.00000000E+00  0.00000000E+00
  0.00000000E+00  4.06100998E-03  3.06812999E-02  1.30451999E-01  3.27204999E-01
  4.52850998E-01  2.56041999E-01 -1.45104895E-02  3.10262776E-01  7.54482456E-01
  1.00000000E+00  0.00000000E+00  0.00000000E+00  0.00000000E+00  0.00000000E+00
  0.00000000E+00  0.00000000E+00  0.00000000E+00  7.08742682E-02  3.39752839E-01
  7.27158577E-01  1.00000000E+00  0.00000000E+00  0.00000000E+00  0.00000000E+00
  0.00000000E+00  0.00000000E+00  0.00000000E+00  0.00000000E+00  6.89990666E-02
  3.16423961E-01  7.44308291E-01  1.00000000E+00  0.00000000E+00  0.00000000E+00
  0.00000000E+00  0.00000000E+00  0.00000000E+00  0.00000000E+00  0.00000000E+00
  6.89990666E-02  3.16423961E-01  7.44308291E-01  1.00000000E+00  0.00000000E+00
  0.00000000E+00  0.00000000E+00  0.00000000E+00  0.00000000E+00  0.00000000E+00
  0.00000000E+00  6.89990666E-02  3.16423961E-01  7.44308291E-01  1.00000000E+00
  0.00000000E+00  0.00000000E+00  0.00000000E+00  0.00000000E+00  0.00000000E+00
  0.00000000E+00  0.00000000E+00  0.00000000E+00  0.00000000E+00  0.00000000E+00
  0.00000000E+00  0.00000000E+00  0.00000000E+00  0.00000000E+00  0.00000000E+00
  0.00000000E+00  0.00000000E+00  0.00000000E+00  0.00000000E+00  0.00000000E+00
  0.00000000E+00  0.00000000E+00  0.00000000E+00  0.00000000E+00  0.00000000E+00
  0.00000000E+00  0.00000000E+00  0.00000000E+00  0.00000000E+00  0.00000000E+00
  0.00000000E+00  0.00000000E+00  0.00000000E+00
Coordinates of each shell                  R   N=         111
 -4.37754131E+00 -3.43461384E-01 -1.48457117E-01 -4.37754131E+00 -3.43461384E-01
 -1.48457117E-01 -4.37754131E+00 -3.43461384E-01 -1.48457117E-01 -4.37754131E+00
 -3.43461384E-01 -1.48457117E-01 -4.37754131E+00 -3.43461384E-01 -1.48457117E-01
  5.37026852E+00 -9.68649760E-01 -6.36289386E-02  5.37026852E+00 -9.68649760E-01
 -6.36289386E-02  5.37026852E+00 -9.68649760E-01 -6.36289386E-02  5.37026852E+00
 -9.68649760E-01 -6.36289386E-02  9.19322898E-01 -5.33490370E-01 -5.21050462E-02
  9.19322898E-01 -5.33490370E-01 -5.21050462E-02  9.19322898E-01 -5.33490370E-01
 -5.21050462E-02  9.19322898E-01 -5.33490370E-01 -5.21050462E-02 -1.33702319E+00
  1.24543299E+00  1.15142244E-01 -1.33702319E+00  1.24543299E+00  1.15142244E-01
 -1.33702319E+00  1.24543299E+00  1.15142244E-01 -1.33702319E+00  1.24543299E+00
  1.15142244E-01  3.41206997E+00  8.82231233E-01  4.95320864E-02  3.41206997E+00
  8.82231233E-01  4.95320864E-02  3.41206997E+00  8.82231233E-01  4.95320864E-02
  3.41206997E+00  8.82231233E-01  4.95320864E-02  8.35997883E-01 -1.62273088E+00
 -1.80684429E+00  8.35997883E-01 -1.62273088E+00 -1.80684429E+00  8.80060054E-01
 -1.89084241E+00  1.51054257E+00  8.80060054E-01 -1.89084241E+00  1.51054257E+00
 -1.30768413E+00  2.59494461E+00 -1.45223602E+00 -1.30768413E+00  2.59494461E+00
 -1.45223602E+00 -1.28284656E+00  2.34283158E+00  1.86644467E+00 -1.28284656E+00
  2.34283158E+00  1.86644467E+00  3.53905707E+00  2.20923432E+00 -1.54641963E+00
  3.53905707E+00  2.20923432E+00 -1.54641963E+00  3.53211594E+00  1.99448988E+00
  1.80275494E+00  3.53211594E+00  1.99448988E+00  1.80275494E+00 -4.06308179E+00
 -1.86425594E+00  1.85561582E+00 -4.06308179E+00 -1.86425594E+00  1.85561582E+00
  6.97867632E+00 -8.41340352E-02 -2.09283841E-02  6.97867632E+00 -8.41340352E-02
 -2.09283841E-02
Constraint Structure                       R   N=          39
 -4.37754131E+00 -3.43461384E-01 -1.48457117E-01  5.37026852E+00 -9.68649760E-01
 -6.36289386E-02  9.19322898E-01 -5.33490370E-01 -5.21050462E-02 -1.33702319E+00
  1.24543299E+00  1.15142244E-01  3.41206997E+00  8.82231233E-01  4.95320864E-02
  8.35997883E-01 -1.62273088E+00 -1.80684429E+00  8.80060054E-01 -1.89084241E+00
  1.51054257E+00 -1.30768413E+00  2.59494461E+00 -1.45223602E+00 -1.28284656E+00
  2.34283158E+00  1.86644467E+00  3.53905707E+00  2.20923432E+00 -1.54641963E+00
  3.53211594E+00  1.99448988E+00  1.80275494E+00 -4.06308179E+00 -1.86425594E+00
  1.85561582E+00  6.97867632E+00 -8.41340352E-02 -2.09283841E-02
Num ILSW                                   I              100
ILSW                                       I   N=         100
           0           1           0           0           2           0
           0           0           0           0           0          -1
           0           0           0           0           0           0
           0           0           0           0           1           0
           1           0           0           0           0           0
           0           0      100000           0          -1           0
           0           0           0           0           0           0
           0           0           0           1           1           0
           0           0           1           0           0           0
           0           0           4          40           0           0
           0           0           0           0           0           0
           0           0           0           0           0           0
           0           0           0           0           0           0
           0           0           0           0           0           0
           0           0           0           0           0           0
           0           0           0           0           0           0
           0           0           0           0
Num RLSW                                   I               40
RLSW                                       R   N=          40
  1.00000000E+00  1.00000000E+00  1.00000000E+00  1.00000000E+00  1.00000000E+00
  0.00000000E+00  0.00000000E+00  1.00000000E+00  0.00000000E+00  0.00000000E+00
  0.00000000E+00  0.00000000E+00  1.00000000E+00  0.00000000E+00  0.00000000E+00
  0.00000000E+00  0.00000000E+00  1.00000000E+00  0.00000000E+00  0.00000000E+00
  0.00000000E+00  0.00000000E+00  1.00000000E+00  0.00000000E+00  0.00000000E+00
  0.00000000E+00  0.00000000E+00  1.00000000E+00  0.00000000E+00  0.00000000E+00
  0.00000000E+00  0.00000000E+00  0.00000000E+00  0.00000000E+00  0.00000000E+00
  0.00000000E+00  0.00000000E+00  0.00000000E+00  1.00000000E+00  1.00000000E+00
MxBond                                     I                4
NBond                                      I   N=          13
           2           2           4           4           4           1
           1           1           1           1           1           1
           1
IBond                                      I   N=          52
           4          12           0           0           5          13
           0           0           4           5           6           7
           1           3           8           9           2           3
          10          11           3           0           0           0
           3           0           0           0           4           0
           0           0           4           0           0           0
           5           0           0           0           5           0
           0           0           1           0           0           0
           2           0           0           0
RBond                                      R   N=          52
  1.00000000E+00  1.00000000E+00  0.00000000E+00  0.00000000E+00  1.00000000E+00
  1.00000000E+00  0.00000000E+00  0.00000000E+00  1.00000000E+00  1.00000000E+00
  1.00000000E+00  1.00000000E+00  1.00000000E+00  1.00000000E+00  1.00000000E+00
  1.00000000E+00  1.00000000E+00  1.00000000E+00  1.00000000E+00  1.00000000E+00
  1.00000000E+00  0.00000000E+00  0.00000000E+00  0.00000000E+00  1.00000000E+00
  0.00000000E+00  0.00000000E+00  0.00000000E+00  1.00000000E+00  0.00000000E+00
  0.00000000E+00  0.00000000E+00  1.00000000E+00  0.00000000E+00  0.00000000E+00
  0.00000000E+00  1.00000000E+00  0.00000000E+00  0.00000000E+00  0.00000000E+00
  1.00000000E+00  0.00000000E+00  0.00000000E+00  0.00000000E+00  1.00000000E+00
  0.00000000E+00  0.00000000E+00  0.00000000E+00  1.00000000E+00  0.00000000E+00
  0.00000000E+00  0.00000000E+00
Virial Ratio                               R      2.000880641836822E+00
SCF Energy                                 R     -5.906151221139412E+02
MP2 Energy                                 R     -5.913074778670132E+02
Total Energy                               R     -5.913074778670132E+02
Post-SCF wavefunction norm                 R      1.568564624227375E+00
RMS Force                                  R      2.605137607523429E-07
RMS Density                                R      1.311589252205906E-09
External E-field                           R   N=          35
  0.00000000E+00  0.00000000E+00  0.00000000E+00  0.00000000E+00  0.00000000E+00
  0.00000000E+00  0.00000000E+00  0.00000000E+00  0.00000000E+00  0.00000000E+00
  0.00000000E+00  0.00000000E+00  0.00000000E+00  0.00000000E+00  0.00000000E+00
  0.00000000E+00  0.00000000E+00  0.00000000E+00  0.00000000E+00  0.00000000E+00
  0.00000000E+00  0.00000000E+00  0.00000000E+00  0.00000000E+00  0.00000000E+00
  0.00000000E+00  0.00000000E+00  0.00000000E+00  0.00000000E+00  0.00000000E+00
  0.00000000E+00  0.00000000E+00  0.00000000E+00  0.00000000E+00  0.00000000E+00
IOpCl                                      I                0
IROHF                                      I                0
Alpha Orbital Energies                     R   N=          95
 -9.19382714E+01 -2.05663276E+01 -1.12844038E+01 -1.12661917E+01 -1.12305538E+01
 -8.95015462E+00 -6.63327804E+00 -6.63163705E+00 -6.62936980E+00 -1.35678159E+00
 -1.08883820E+00 -9.88025879E-01 -8.70331278E-01 -8.12142823E-01 -6.92291350E-01
 -6.71557403E-01 -6.08187094E-01 -5.87527386E-01 -5.46897128E-01 -5.29491042E-01
 -5.06418614E-01 -4.91379333E-01 -4.47877187E-01 -4.45127475E-01 -3.55104663E-01
  1.72296095E-01  2.15780356E-01  2.25436693E-01  2.55677970E-01  2.68516214E-01
  2.92333663E-01  3.12059700E-01  3.24904037E-01  3.50007132E-01  3.75907161E-01
  3.96498408E-01  4.36072841E-01  5.30570460E-01  5.37174520E-01  5.68849907E-01
  5.96194282E-01  7.17606486E-01  7.37190772E-01  7.63075319E-01  8.07063503E-01
  8.17375003E-01  8.87758013E-01  9.37898142E-01  9.63827689E-01  9.72113196E-01
  9.81886830E-01  1.05269064E+00  1.09592867E+00  1.09878349E+00  1.14244793E+00
  1.14906550E+00  1.15792697E+00  1.17579431E+00  1.19981505E+00  1.20949834E+00
  1.22920200E+00  1.25447971E+00  1.27018155E+00  1.34774228E+00  1.40308344E+00
  1.46823152E+00  1.48551279E+00  1.62820447E+00  1.70283595E+00  1.74240810E+00
  1.74564729E+00  1.92132904E+00  2.01558508E+00  2.02974357E+00  2.12870027E+00
  2.21995712E+00  2.25833485E+00  2.28036512E+00  2.29193166E+00  2.39113706E+00
  2.49911121E+00  2.51598688E+00  2.61599876E+00  2.68641672E+00  2.76715527E+00
  2.76852926E+00  2.79601745E+00  2.92374389E+00  3.07009560E+00  3.23710509E+00
  4.17245878E+00  4.32603839E+00  4.58174760E+00  4.71238910E+00  4.90248162E+00
Alpha MO coefficients                      R   N=        9025
  9.96254297E-01  1.42503503E-02  7.52210260E-05 -6.17239148E-06  5.39060085E-05
 -1.99893915E-02 -1.49101625E-04 -8.49981725E-06 -5.56488926E-05  2.91079640E-03
  2.62446453E-04 -6.41432762E-05  2.16957406E-04  6.87363779E-03  6.88491948E-03
  6.88013176E-03 -6.58188420E-07  5.56020413E-06 -8.45905490E-06  2.74717455E-06
  1.09357791E-05 -9.02059613E-06 -2.53159878E-06 -4.21247601E-07 -3.14998082E-05
  4.73883576E-05  1.88492739E-05  5.57031260E-06 -4.13817426E-08  1.41855526E-05
  1.20781455E-05  1.54907599E-06 -6.90559333E-07  1.55216740E-06  4.14245408E-06
  6.11539953E-05 -4.37328878E-06 -5.21940799E-06 -3.70561101E-06 -3.02754089E-04
  3.60604812E-04 -1.41781683E-04  1.17621775E-05 -3.92895852E-05 -1.00682214E-05
 -7.52074044E-06  2.10278451E-05  3.47799572E-07 -1.22385167E-06 -1.83636576E-05
 -1.99687943E-05 -7.65611308E-05 -4.29229532E-05 -4.42149390E-06  5.73135427E-04
  2.10708518E-04 -6.95675845E-05 -5.03571968E-05 -3.98898211E-05 -1.91864327E-05
 -4.65581596E-05 -2.92363654E-05 -8.05309102E-08 -1.19656036E-06  1.05376730E-06
  4.68562599E-06  1.24395562E-05  4.77046065E-06  4.44268408E-06 -1.11326350E-04
 -1.39994957E-05  4.33137320E-06 -3.04414606E-05  2.74156007E-06 -9.60722420E-07
  2.68325332E-06  2.52284116E-07  8.89537135E-07 -2.33695984E-07  4.76396718E-05
 -1.31747484E-04  2.26970680E-05 -8.96626775E-05 -3.87656108E-05 -2.08784701E-04
 -1.64624884E-05 -2.20420968E-04 -6.49920004E-06  2.17239861E-05 -3.63904019E-06
  5.47410479E-05  1.48248397E-04 -4.32849738E-04 -1.06485056E-05 -8.10551074E-06
  2.48988445E-07  2.95279393E-06 -2.61887161E-06 -1.11455763E-06 -1.39639289E-07
  6.33352327E-06  2.02482287E-05  6.54087930E-06  1.09447118E-06 -5.67279931E-06
 -3.15248381E-06  8.62800533E-08 -4.46965303E-06  1.31557104E-05  3.32497222E-06
  8.78044210E-06  5.51447058E-06  2.00064269E-07 -5.80539280E-08  9.94660875E-01
  2.11559906E-02  2.31922347E-04  1.28175179E-03  7.23093892E-05  3.82064213E-03
 -1.31208398E-04 -6.64459462E-04 -3.68970416E-05 -4.18048768E-03 -4.08950160E-03
 -3.84727411E-03  6.19168656E-05  5.23603748E-06 -1.58460313E-05 -1.54671263E-06
  4.17353997E-05  2.08049876E-05 -2.15668064E-05 -2.41946815E-06  2.13799960E-04
 -3.74602328E-04  2.16531633E-04  2.16120014E-05 -6.46638601E-05  1.30439952E-06
 -2.69197401E-05 -9.27301608E-06 -1.38688659E-06  3.21646938E-06  7.81436750E-06
  3.95214121E-05 -1.64446821E-05  3.71041719E-07 -1.00616488E-06 -4.14287047E-04
 -1.10579786E-04  1.32106446E-04  1.92346556E-05  3.32031577E-06  7.09952011E-06
  1.53889110E-05  5.76740596E-06  1.65239209E-07 -4.81399072E-07 -2.61618413E-05
  2.01958703E-04  2.36775538E-04 -2.55437518E-04 -1.52172113E-05  2.77524730E-04
  1.15500430E-04  9.69327756E-05 -1.44741858E-07  1.95423633E-05 -5.79332328E-06
 -6.44006104E-05 -6.23321356E-05 -3.77421011E-06  4.18283609E-06  3.60267588E-05
 -2.20211375E-05  3.94373499E-05 -3.34248732E-05  8.83050059E-06  1.85597223E-05
  6.52135197E-06  1.38601784E-05 -4.38692968E-05 -9.77632767E-05 -4.26148480E-05
 -9.31258587E-05  8.72184904E-07  6.71571905E-06  4.22246519E-04 -2.10625310E-04
 -1.39157811E-06 -2.58286321E-05 -8.28922110E-06 -1.46602836E-06  5.82400787E-07
 -8.96458460E-05  3.34051459E-05  1.59373968E-05 -5.62381992E-06  6.67169165E-04
  3.58408497E-04  2.30155110E-05  1.13200290E-04  1.99633683E-05 -4.62571155E-05
 -5.17903652E-05  6.76636512E-06  1.03942456E-05 -1.44004406E-05 -1.56764575E-04
  8.46763223E-05 -8.16224256E-05  9.65334672E-05  5.60887881E-06  1.73646782E-03
 -2.61273316E-05 -9.06572889E-05 -4.68620318E-06 -4.90266078E-04 -4.11694306E-04
  4.91090012E-05  4.67098090E-04  2.84497713E-05 -3.29694611E-05  5.71776075E-03
  2.00518677E-04  3.19618507E-05  2.62446286E-06 -1.12958987E-06  3.67480591E-03
  2.05741382E-03  8.84013680E-04  6.12880947E-05 -3.62174399E-04 -2.17436238E-04
 -1.19067297E-04 -9.58308740E-05 -5.70683153E-06 -8.84078408E-06 -2.41700892E-04
 -2.42318899E-04 -1.28196861E-04 -5.67008455E-05 -4.82011470E-06  7.77325979E-04
  6.29235463E-04  3.35561197E-04  2.74733248E-05 -1.71216746E-05 -3.85888803E-05
 -9.48487831E-05 -5.42895025E-06 -8.25471465E-07  5.36209595E-06  9.95884804E-01
  2.75443412E-02  4.83916711E-04 -4.76541823E-04 -2.56856181E-05 -1.46382429E-02
  1.32192644E-03  2.21256353E-04  1.21295998E-05 -1.46968236E-03 -1.44886489E-03
 -1.50822473E-03 -1.37853675E-04 -7.94915090E-06  3.58682058E-06 -1.38127175E-04
  9.86038618E-05 -1.45784777E-04  1.22890741E-04 -5.87704717E-05 -3.49214822E-04
 -5.19572611E-05 -3.82066031E-04  1.83152621E-04  2.61485787E-03  1.82561602E-04
  2.62285128E-03 -2.17471729E-05 -1.42303717E-04 -1.01527460E-05  1.46657074E-04
  3.09116767E-06 -1.83800409E-05 -5.69745586E-05 -2.62156055E-05 -2.55009391E-06
  4.25609724E-04  5.23747745E-04  2.55139244E-04  2.59603919E-05  2.36999128E-03
  1.29756351E-03  4.17119019E-04  3.02795041E-04 -8.24848198E-05 -1.59415331E-04
 -9.33345633E-05 -7.35369161E-06  1.54959393E-05 -4.16374645E-05 -3.56570716E-05
 -1.42478564E-04  3.87408822E-05  1.19388764E-06  1.50488689E-06  7.31650224E-04
 -3.27069838E-04  7.37594417E-05 -8.95698018E-08 -6.84135354E-05 -1.09331849E-04
 -1.15073174E-04 -2.70715933E-05 -1.00687696E-06  5.38371120E-07  8.39076004E-03
  2.73122365E-04 -3.85550788E-05 -2.56799505E-05  1.69594840E-06  3.72656996E-03
 -1.37204258E-03  1.11216623E-03  3.98070858E-05 -3.25731231E-04 -2.94889900E-04
 -1.25766524E-04  1.81006038E-04  2.19735562E-05 -1.99980488E-05  9.95824220E-01
  2.81358556E-02 -3.51239039E-04 -1.98272427E-04 -7.74111878E-05 -1.53121099E-02
 -1.95515836E-04  6.18049999E-04  2.23852190E-04 -1.79476578E-03 -1.65269482E-03
 -1.54406124E-03 -1.20355994E-04 -2.73074096E-06 -1.02210109E-05  1.17735025E-04
 -1.44477011E-04  5.60652901E-05  9.55796864E-07  2.20608508E-06  8.75455831E-05
 -2.28017204E-04  4.85392437E-04  3.29082036E-05 -3.14988495E-05 -7.41088847E-05
 -6.21488854E-05  4.56536204E-06 -3.17063248E-06  2.54838733E-07 -1.20549332E-04
 -4.24280052E-05 -1.26534755E-04  4.64612394E-05  1.96300800E-04  2.48848148E-03
  1.85648209E-04  2.33395188E-03 -2.81992587E-05 -2.41376793E-04 -3.27876630E-05
 -2.24450890E-04 -1.06130163E-04 -2.74605879E-04  1.33150821E-05  7.31820475E-05
 -5.69641776E-07 -3.19853934E-05  1.67626051E-05  4.60309377E-06  1.96770368E-06
 -3.94662057E-05 -1.43634622E-04 -2.77167060E-05 -1.80078218E-05  2.70884245E-04
  6.81311541E-05  1.81530192E-05  1.60820237E-04 -9.99480730E-05 -2.59485375E-05
 -9.76332968E-05 -3.27218507E-05  6.13027286E-06 -7.15811620E-06  1.68572826E-05
 -1.60825641E-05  6.07204465E-05  2.50977390E-06  1.41430619E-06 -4.72695662E-04
 -1.01340949E-04 -1.00919047E-04 -9.53693514E-06  1.41660112E-04  4.13643030E-05
 -4.11654850E-05  3.15104325E-05  4.20542429E-06  7.29390435E-06  9.95790868E-01
  2.86877795E-02 -2.13570527E-05  2.24636665E-04  5.49477364E-05 -1.76532986E-02
 -2.29826650E-04 -1.11694961E-03 -1.26800945E-04 -1.64623855E-03 -1.65611095E-03
 -1.58614159E-03 -1.02813746E-05 -3.06402701E-08 -1.59220348E-06 -8.69352022E-03
 -1.47397614E-04  6.78970410E-05  1.57862407E-05  1.67714625E-06  4.19472558E-03
  1.63407354E-03 -1.20057865E-03 -1.29951348E-04 -3.49886662E-04 -2.95435915E-04
 -8.36366962E-05  2.19060295E-04  2.54782328E-05 -2.33778634E-05 -6.02874191E-03
 -1.11960952E-04 -8.79342906E-05  1.19810600E-05  2.34001653E-06  4.54684025E-03
 -1.77579427E-03 -9.92559860E-04 -7.35803639E-05 -3.70437888E-04 -2.70157407E-04
 -8.68467835E-05 -1.73853375E-04 -1.14719758E-05 -1.48809429E-05  2.64018348E-04
  2.62975949E-03  2.49518056E-04  2.68045067E-03 -1.55136810E-04  2.83397126E-05
 -1.43308134E-04  8.81472546E-07 -1.59045678E-04 -1.84993908E-05 -1.59101882E-04
 -1.17560620E-05  8.40944072E-06 -2.49504045E-04  3.34008443E-05  2.20286907E-04
 -2.81769484E-01  1.03024872E+00  4.41399420E-03 -6.75009707E-04  4.04828808E-03
  2.46919674E-02  1.45775448E-03 -4.81987175E-05  8.90473269E-04 -8.29173116E-03
 -1.51620518E-03  4.69240966E-04 -1.36217365E-03 -1.20297715E-03 -1.35070411E-03
 -1.33642042E-03  2.57031525E-04  4.23711268E-05 -2.43716844E-04  6.59217786E-07
  1.25147181E-05  3.77612896E-05  1.98409854E-05  3.12191156E-06 -2.23027010E-04
 -1.21105826E-04 -1.78981361E-04 -3.72623485E-05  1.79490955E-05 -2.31412854E-05
 -1.45526737E-05  3.78860803E-06  4.58185157E-06 -7.70046776E-06 -4.43959981E-05
 -3.17838018E-04  1.57497496E-04  3.65640594E-05  2.90136840E-05  1.47545193E-03
 -2.09481507E-03  2.62468893E-04 -1.58090101E-04  4.93815161E-05 -4.35676431E-05
 -5.37241719E-05 -8.86459048E-05 -1.56684672E-06  1.01845402E-05 -3.79767603E-05
  7.43670134E-04  1.67125057E-05  2.86877358E-05 -8.25107633E-06 -2.10477869E-03
 -6.69756089E-04  6.00250416E-04  3.07486102E-04 -3.09761172E-04 -8.40629497E-05
  1.83621911E-04 -1.77873720E-04 -4.74848079E-05 -1.37685800E-05 -1.90294457E-05
 -8.89601208E-05 -6.23364686E-05 -1.29377975E-05 -2.27467112E-05  1.12724779E-03
 -1.11077780E-06 -3.60182761E-04  1.59021482E-04 -3.01156143E-06  1.01636530E-05
 -4.40975810E-05  7.46293189E-06 -4.42098215E-06  3.18957396E-06 -2.49777378E-04