Opt=tight                                                               
Freq      RMP2-FC                                                     6-31G(d)            
Number of atoms                            I                5
Info1-9                                    I   N=           9
          14          14        1002           0           0         100
           6           2           1
Charge                                     I               -1
Multiplicity                               I                1
Number of electrons                        I               32
Number of alpha electrons                  I               16
Number of beta electrons                   I               16
Number of basis functions                  I               62
Number of independent functions            I               62
Number of point charges in /Mol/           I                0
Number of translation vectors              I                0
Atomic numbers                             I   N=           5
           8           8           8           6           1
Nuclear charges                            R   N=           5
  8.00000000E+00  8.00000000E+00  8.00000000E+00  6.00000000E+00  1.00000000E+00
Current cartesian coordinates              R   N=          15
  1.89697735E+00 -1.47120344E+00  9.57589324E-05 -2.31787596E+00 -1.04708935E+00
 -1.77983932E-04  2.07125330E-01  2.45827737E+00  4.41776738E-05 -2.66422274E-01
  1.28266923E-01  7.29154033E-06  3.30871991E+00 -2.89478161E-01  2.60629364E-04
Force Field                                I                0
Int Atom Types                             I   N=           5
           0           0           0           0           0
MM charges                                 R   N=           5
  0.00000000E+00  0.00000000E+00  0.00000000E+00  0.00000000E+00  0.00000000E+00
Integer atomic weights                     I   N=           5
          16          16          16          12           1
Real atomic weights                        R   N=           5
  1.59949146E+01  1.59949146E+01  1.59949146E+01  1.20000000E+01  1.00782504E+00
Atom fragment info                         I   N=           5
           0           0           0           0           0
Atom residue num                           I   N=           5
           0           0           0           0           0
Nuclear spins                              I   N=           5
           0           0           0           0           1
Nuclear ZEff                               R   N=           5
 -5.60000000E+00 -5.60000000E+00 -5.60000000E+00 -3.60000000E+00 -1.00000000E+00
Nuclear QMom                               R   N=           5
  0.00000000E+00  0.00000000E+00  0.00000000E+00  0.00000000E+00  0.00000000E+00
Nuclear GFac                               R   N=           5
  0.00000000E+00  0.00000000E+00  0.00000000E+00  0.00000000E+00  2.79284600E+00
MicOpt                                     I   N=           5
          -1          -1          -1          -1          -1
Number of contracted shells                I               18
Number of primitive shells                 I               48
Pure/Cartesian d shells                    I                1
Pure/Cartesian f shells                    I                0
Highest angular momentum                   I                2
Largest degree of contraction              I                6
Shell types                                I   N=          18
           0          -1          -1           2           0          -1
          -1           2           0          -1          -1           2
           0          -1          -1           2           0           0
Number of primitives per shell             I   N=          18
           6           3           1           1           6           3
           1           1           6           3           1           1
           6           3           1           1           3           1
Shell to atom map                          I   N=          18
           1           1           1           1           2           2
           2           2           3           3           3           3
           4           4           4           4           5           5
Primitive exponents                        R   N=          48
  5.48467166E+03  8.25234946E+02  1.88046958E+02  5.29645000E+01  1.68975704E+01
  5.79963534E+00  1.55396162E+01  3.59993359E+00  1.01376175E+00  2.70005823E-01
  8.00000000E-01  5.48467166E+03  8.25234946E+02  1.88046958E+02  5.29645000E+01
  1.68975704E+01  5.79963534E+00  1.55396162E+01  3.59993359E+00  1.01376175E+00
  2.70005823E-01  8.00000000E-01  5.48467166E+03  8.25234946E+02  1.88046958E+02
  5.29645000E+01  1.68975704E+01  5.79963534E+00  1.55396162E+01  3.59993359E+00
  1.01376175E+00  2.70005823E-01  8.00000000E-01  3.04752488E+03  4.57369518E+02
  1.03948685E+02  2.92101553E+01  9.28666296E+00  3.16392696E+00  7.86827235E+00
  1.88128854E+00  5.44249258E-01  1.68714478E-01  8.00000000E-01  1.87311370E+01
  2.82539436E+00  6.40121692E-01  1.61277759E-01
Contraction coefficients                   R   N=          48
  1.83107443E-03  1.39501722E-02  6.84450781E-02  2.32714336E-01  4.70192898E-01
  3.58520853E-01 -1.10777550E-01 -1.48026263E-01  1.13076702E+00  1.00000000E+00
  1.00000000E+00  1.83107443E-03  1.39501722E-02  6.84450781E-02  2.32714336E-01
  4.70192898E-01  3.58520853E-01 -1.10777550E-01 -1.48026263E-01  1.13076702E+00
  1.00000000E+00  1.00000000E+00  1.83107443E-03  1.39501722E-02  6.84450781E-02
  2.32714336E-01  4.70192898E-01  3.58520853E-01 -1.10777550E-01 -1.48026263E-01
  1.13076702E+00  1.00000000E+00  1.00000000E+00  1.83473713E-03  1.40373228E-02
  6.88426223E-02  2.32184443E-01  4.67941348E-01  3.62311985E-01 -1.19332420E-01
 -1.60854152E-01  1.14345644E+00  1.00000000E+00  1.00000000E+00  3.34946043E-02
  2.34726953E-01  8.13757326E-01  1.00000000E+00
P(S=P) Contraction coefficients            R   N=          48
  0.00000000E+00  0.00000000E+00  0.00000000E+00  0.00000000E+00  0.00000000E+00
  0.00000000E+00  7.08742682E-02  3.39752839E-01  7.27158577E-01  1.00000000E+00
  0.00000000E+00  0.00000000E+00  0.00000000E+00  0.00000000E+00  0.00000000E+00
  0.00000000E+00  0.00000000E+00  7.08742682E-02  3.39752839E-01  7.27158577E-01
  1.00000000E+00  0.00000000E+00  0.00000000E+00  0.00000000E+00  0.00000000E+00
  0.00000000E+00  0.00000000E+00  0.00000000E+00  7.08742682E-02  3.39752839E-01
  7.27158577E-01  1.00000000E+00  0.00000000E+00  0.00000000E+00  0.00000000E+00
  0.00000000E+00  0.00000000E+00  0.00000000E+00  0.00000000E+00  6.89990666E-02
  3.16423961E-01  7.44308291E-01  1.00000000E+00  0.00000000E+00  0.00000000E+00
  0.00000000E+00  0.00000000E+00  0.00000000E+00
Coordinates of each shell                  R   N=          54
  1.89697735E+00 -1.47120344E+00  9.57589324E-05  1.89697735E+00 -1.47120344E+00
  9.57589324E-05  1.89697735E+00 -1.47120344E+00  9.57589324E-05  1.89697735E+00
 -1.47120344E+00  9.57589324E-05 -2.31787596E+00 -1.04708935E+00 -1.77983932E-04
 -2.31787596E+00 -1.04708935E+00 -1.77983932E-04 -2.31787596E+00 -1.04708935E+00
 -1.77983932E-04 -2.31787596E+00 -1.04708935E+00 -1.77983932E-04  2.07125330E-01
  2.45827737E+00  4.41776738E-05  2.07125330E-01  2.45827737E+00  4.41776738E-05
  2.07125330E-01  2.45827737E+00  4.41776738E-05  2.07125330E-01  2.45827737E+00
  4.41776738E-05 -2.66422274E-01  1.28266923E-01  7.29154033E-06 -2.66422274E-01
  1.28266923E-01  7.29154033E-06 -2.66422274E-01  1.28266923E-01  7.29154033E-06
 -2.66422274E-01  1.28266923E-01  7.29154033E-06  3.30871991E+00 -2.89478161E-01
  2.60629364E-04  3.30871991E+00 -2.89478161E-01  2.60629364E-04
Constraint Structure                       R   N=          15
  1.89697735E+00 -1.47120344E+00  9.57589324E-05 -2.31787596E+00 -1.04708935E+00
 -1.77983932E-04  2.07125330E-01  2.45827737E+00  4.41776738E-05 -2.66422274E-01
  1.28266923E-01  7.29154033E-06  3.30871991E+00 -2.89478161E-01  2.60629364E-04
Num ILSW                                   I              100
ILSW                                       I   N=         100
           0           1           0           0           2           0
           0           0           0           0           0          -1
           0           0           0           0           0           0
           0           0           0           0           1           0
           1           0           0           0           0           0
           0           0      100000           0          -1           0
           0           0           0           0           0           0
           0           0           0           1           1           0
           0           0           1           0           0           0
           0           0           4          40           0           0
           0           0           0           0           0           0
           0           0           0           0           0           0
           0           0           0           0           0           0
           0           0           0           0           0           0
           0           0           0           0           0           0
           0           0           0           0           0           0
           0           0           0           0
Num RLSW                                   I               40
RLSW                                       R   N=          40
  1.00000000E+00  1.00000000E+00  1.00000000E+00  1.00000000E+00  1.00000000E+00
  0.00000000E+00  0.00000000E+00  1.00000000E+00  0.00000000E+00  0.00000000E+00
  0.00000000E+00  0.00000000E+00  1.00000000E+00  0.00000000E+00  0.00000000E+00
  0.00000000E+00  0.00000000E+00  1.00000000E+00  0.00000000E+00  0.00000000E+00
  0.00000000E+00  0.00000000E+00  1.00000000E+00  0.00000000E+00  0.00000000E+00
  0.00000000E+00  0.00000000E+00  1.00000000E+00  0.00000000E+00  0.00000000E+00
  0.00000000E+00  0.00000000E+00  0.00000000E+00  0.00000000E+00  0.00000000E+00
  0.00000000E+00  0.00000000E+00  0.00000000E+00  1.00000000E+00  1.00000000E+00
MxBond                                     I                3
NBond                                      I   N=           5
           2           1           1           3           1
IBond                                      I   N=          15
           4           5           0           4           0           0
           4           0           0           1           2           3
           1           0           0
RBond                                      R   N=          15
  1.50000000E+00  1.00000000E+00  0.00000000E+00  1.00000000E+00  0.00000000E+00
  0.00000000E+00  1.00000000E+00  0.00000000E+00  0.00000000E+00  1.50000000E+00
  1.00000000E+00  1.00000000E+00  1.00000000E+00  0.00000000E+00  0.00000000E+00
Virial Ratio                               R      2.003556160990983E+00
SCF Energy                                 R     -2.631817841103186E+02
MP2 Energy                                 R     -2.638421604256230E+02
Total Energy                               R     -2.638421604256230E+02
Post-SCF wavefunction norm                 R      1.540018862625236E+00
RMS Force                                  R      2.086016183764603E-05
RMS Density                                R      9.370304538767600E-10
External E-field                           R   N=          35
  0.00000000E+00  0.00000000E+00  0.00000000E+00  0.00000000E+00  0.00000000E+00
  0.00000000E+00  0.00000000E+00  0.00000000E+00  0.00000000E+00  0.00000000E+00
  0.00000000E+00  0.00000000E+00  0.00000000E+00  0.00000000E+00  0.00000000E+00
  0.00000000E+00  0.00000000E+00  0.00000000E+00  0.00000000E+00  0.00000000E+00
  0.00000000E+00  0.00000000E+00  0.00000000E+00  0.00000000E+00  0.00000000E+00
  0.00000000E+00  0.00000000E+00  0.00000000E+00  0.00000000E+00  0.00000000E+00
  0.00000000E+00  0.00000000E+00  0.00000000E+00  0.00000000E+00  0.00000000E+00
IOpCl                                      I                0
IROHF                                      I                0
Alpha Orbital Energies                     R   N=          62
 -2.05578933E+01 -2.04804161E+01 -2.04775977E+01 -1.13646373E+01 -1.40104604E+00
 -1.28473976E+00 -1.25602379E+00 -7.46227785E-01 -6.44170751E-01 -6.12026464E-01
 -5.84573459E-01 -5.46383702E-01 -4.53290878E-01 -4.18163033E-01 -3.87979566E-01
 -3.82956814E-01  2.72589952E-01  2.95729362E-01  4.46244460E-01  5.75519679E-01
  6.16119841E-01  7.90538644E-01  8.08325480E-01  9.01023750E-01  9.44742453E-01
  1.08730914E+00  1.13953530E+00  1.16342837E+00  1.23472665E+00  1.24747843E+00
  1.28564938E+00  1.32643407E+00  1.38006485E+00  1.40926628E+00  1.42093813E+00
  1.64195662E+00  1.68123049E+00  1.73360862E+00  1.85120654E+00  1.99828062E+00
  2.02615737E+00  2.06824365E+00  2.10037640E+00  2.16866785E+00  2.17330334E+00
  2.25460263E+00  2.26313646E+00  2.31904883E+00  2.50044823E+00  2.50313757E+00
  2.83615867E+00  2.86982033E+00  3.01925214E+00  3.10832220E+00  3.23532443E+00
  3.29541427E+00  3.40553611E+00  3.53490667E+00  4.17588174E+00  4.35300221E+00
  4.61219126E+00  4.70208678E+00
Alpha MO coefficients                      R   N=        3844
  9.94652671E-01  2.11374602E-02  8.98223318E-05  1.16383790E-03  6.75650459E-08
  4.00949511E-03 -1.22580544E-04 -6.26914033E-04 -3.78690032E-08 -4.17131703E-03
 -4.09112440E-03 -3.90191573E-03  2.22842899E-05 -2.20118886E-08 -1.10563093E-08
 -2.00569191E-04 -9.47545310E-05 -3.51447631E-05 -4.95189069E-06 -3.42236938E-09
  7.15510873E-04  1.18246962E-04  9.26410955E-05  1.38572123E-08 -1.31737350E-04
 -5.84090064E-05 -5.51096567E-05  2.25381497E-05 -5.13694518E-09  1.29093806E-09
 -2.10001062E-04  7.38478252E-05 -2.13434470E-05  3.60149634E-05  3.48944447E-11
 -5.95180086E-04 -3.47791832E-05  1.82256903E-04 -7.52633085E-09  5.24066296E-05
 -1.94990897E-05  2.97878033E-05  2.93730896E-05  2.06715319E-09  2.61746687E-09
 -8.32230667E-06  2.60176214E-04  2.75684426E-04 -1.94738356E-04  1.13631558E-08
 -1.93482772E-04  4.37159370E-04  6.66603814E-04  4.82870509E-08  4.19463363E-05
  5.68740074E-05 -3.44975732E-05 -4.03026713E-05  4.31783873E-09 -1.46316465E-09
  4.15971424E-04 -2.60822150E-04  2.15220061E-04 -5.39923723E-05  1.54765002E-05
 -4.56122035E-05 -2.84326050E-10  2.58945432E-04 -8.54095168E-06  2.60833141E-05
  2.29976539E-09  5.28893386E-08 -1.10007465E-04 -6.45772111E-05  3.47362626E-05
  4.75707147E-09  1.58455925E-09 -5.69120976E-03 -1.65447394E-04  2.34556297E-05
 -2.44723698E-05  2.09252671E-09  3.07981813E-04  1.95975268E-04  2.37641027E-05
  1.70139580E-08  1.49978504E-04 -1.04402170E-04 -4.26866861E-05 -2.17717171E-05
  2.03611903E-08 -2.09122154E-09  9.94676385E-01  2.10554217E-02 -2.44688389E-04
 -1.35609548E-03 -9.94150910E-09  4.05184406E-03  2.89442056E-05  1.85720723E-04
 -2.59077908E-09 -3.88129089E-03 -3.73188113E-03 -3.99520546E-03  2.31665712E-05
  8.99945118E-09  5.79947685E-09 -3.52548024E-06  5.49456579E-04  6.58260090E-05
  1.21260861E-04  7.01582411E-09 -5.31445122E-04  4.47811495E-05 -9.61002427E-05
  8.05154920E-09 -9.46913646E-05 -6.37714698E-04 -3.93506325E-05 -1.90912964E-04
 -5.17277188E-09 -1.52777765E-08 -2.59846610E-05 -9.46787443E-05  1.68157275E-04
 -6.49213826E-05  3.67305216E-05 -2.28435074E-05  1.33450968E-09  2.82174230E-04
  3.53301673E-05  1.07051561E-04  6.64100283E-09 -1.06157882E-04 -5.31802628E-06
 -7.13403967E-05  1.45163444E-06 -1.90742560E-09  3.23068312E-09  9.94672976E-01
  2.10595051E-02  1.22363332E-03  6.91805897E-04  1.18251773E-07  4.11974849E-03
 -1.30759352E-04 -7.54481760E-05 -1.63092368E-08 -3.74278808E-03 -3.85454639E-03
 -4.01138705E-03  8.74384583E-05  2.35933024E-08  8.91356964E-09  5.67511381E-03
  7.96097831E-05  2.62521514E-05 -2.96098005E-05  2.38011381E-09  3.12513759E-04
  4.64114292E-05 -1.76913642E-04  3.95800931E-09 -1.08486284E-04  7.29414973E-05
 -8.46819347E-05 -1.07361895E-04 -1.91700143E-09 -1.01315910E-08 -2.59089476E-06
  5.55485394E-04 -7.19121550E-05 -8.88887445E-05 -5.16777858E-09 -5.65719043E-04
  1.24126318E-04  3.48142522E-05  1.53215957E-08 -5.21403389E-04 -2.49673949E-04
 -3.58489447E-05 -3.62161907E-04 -5.04192917E-08 -3.24431899E-08 -3.24069163E-05
 -8.47624365E-05 -8.50026326E-05  4.40985900E-04 -5.79808833E-05  1.23913630E-04
  1.77277526E-09 -5.12636179E-04  4.45332937E-04 -7.82239810E-04 -1.73388641E-09
 -4.66516405E-04 -1.47216032E-04  3.00956781E-04  4.60647627E-04 -4.33538076E-08
  1.03440886E-08 -2.75957086E-04  2.86951991E-04  1.38454281E-04  1.46236085E-04
  1.16567326E-08 -1.07149745E-03 -1.06060950E-03 -7.33613633E-04 -1.01458455E-07
 -2.73143442E-04  4.04678740E-05  1.55249101E-04 -8.93318781E-05 -4.65247361E-08
 -1.30866928E-08 -2.64781018E-04  2.76927702E-04 -8.82051801E-05 -1.58536456E-04
 -7.67001788E-09 -9.75403687E-04  3.33992991E-04  1.19776150E-03  1.98911550E-08
  5.61679031E-05 -3.19519141E-04  1.54368013E-04  3.01124803E-05 -6.43916924E-09
  7.66371623E-09  9.95900012E-01  2.46573397E-02  4.97200022E-04 -3.00689107E-04
  2.44013869E-08 -2.78641159E-03 -6.81244325E-04  4.10260391E-04 -6.10296924E-08
 -8.06574325E-04 -5.97090266E-04 -2.33600875E-03  4.74864802E-04  1.26743961E-07
  6.25847357E-08  1.63680770E-04  5.20798050E-04 -1.38597004E-01  3.12047790E-01
 -2.48293552E-02  6.94691085E-02  1.19010544E-06  2.88873944E-01 -1.09242618E-02
  3.88873425E-02  8.71331880E-07  1.59459681E-02  1.33716740E-02 -3.22630379E-04
 -1.78524908E-03  1.38323500E-06  6.95387828E-07 -8.68575143E-02  1.91422145E-01
  6.36857365E-02  3.24942399E-02  5.30785119E-06  1.69603453E-01  2.47241024E-02
  1.30869818E-02  1.89459640E-06  8.31954047E-03  1.80652686E-03  6.78679904E-04
  6.54612403E-03  7.68181662E-07  5.16454716E-07 -9.17237119E-02  2.01630530E-01
 -9.37793683E-03 -7.38885724E-02 -1.16182927E-06  1.79480935E-01 -2.66078438E-03
 -2.93065974E-02 -4.86748314E-07 -8.33350886E-04  1.14750895E-02  1.63221377E-04
  2.78599682E-03 -4.38608067E-08  2.51055287E-07 -1.23229573E-01  2.41343091E-01
  1.35484582E-02 -3.42596630E-03 -1.38707281E-06  4.77930664E-02  3.39389626E-03
 -1.24999050E-04  9.96123333E-07  9.41393999E-03  1.09974553E-02 -2.05765438E-02
  4.22449467E-03  2.36501250E-06  8.54906620E-07  7.58942547E-02 -5.80943792E-03
 -1.54656791E-01  3.46067508E-01  2.63488278E-02  5.32680317E-02  4.66652561E-06
  3.61163396E-01  1.24207189E-02  3.31464053E-02  2.83571815E-06  1.04822569E-02
  9.53491374E-03 -1.23739473E-03  9.07504103E-03  1.45017593E-06  1.36674389E-06
  1.17506275E-01 -2.53811373E-01 -5.25399969E-02 -4.71956871E-02 -4.98336081E-06
 -2.59730599E-01 -2.10331748E-02 -2.49791117E-02 -2.17672819E-06 -3.55406094E-03
 -2.74280962E-03  1.94987130E-03 -7.43054714E-03 -6.40658030E-07 -7.23981402E-07
  8.40848706E-02 -1.82862777E-01  2.82276373E-02  4.49511360E-02  2.09359609E-06
 -1.83144347E-01  1.81297663E-02  2.01213025E-02  1.35200485E-06  1.99734053E-05
 -5.69947227E-03  9.84040033E-04 -5.32940420E-03 -4.78904810E-08 -4.13517659E-07
  5.77914325E-02 -1.17048189E-01  1.49154625E-01 -6.69774099E-02  1.02730298E-05
 -2.51592897E-02 -1.67828866E-02  6.33556980E-03 -1.37391230E-06  7.32847731E-03
 -7.65825023E-03  9.70103579E-03 -3.38509897E-02 -1.14402601E-06 -2.39900426E-06
  9.70107385E-02 -9.57666848E-04  2.31629170E-02 -5.17381901E-02  1.29008379E-02
  1.09023093E-02  7.63499037E-07 -5.71657405E-02  5.04656593E-03  6.92872536E-03
  1.89245959E-07 -3.07446695E-03  1.87684125E-03 -1.80467379E-05 -6.67191495E-04
 -2.43147924E-07 -1.28829046E-08  1.38704012E-01 -3.00059722E-01 -6.93193772E-02
 -2.32101675E-02 -5.99206654E-06 -3.06858774E-01 -2.72204444E-02 -4.34850546E-03
 -2.44807427E-06 -8.21437279E-03  2.23707575E-03  2.13916636E-03 -3.27776528E-03
 -1.09231396E-06 -2.78718234E-07 -1.59767031E-01  3.44476516E-01 -5.58782700E-03
 -8.14540997E-02 -5.06511010E-07  3.60006062E-01  1.51408427E-03 -3.40100466E-02
  2.41578924E-07 -3.12084773E-03  9.57863404E-03 -3.12107474E-03 -2.11214350E-04
  7.81992194E-09 -7.64131904E-08 -2.89468979E-03  5.19854049E-03  1.37046154E-01
  2.23509070E-01  1.25656801E-05 -1.49783687E-03 -6.50540662E-03 -1.23348525E-02
 -5.32900133E-07 -2.68764082E-02  2.64912569E-02 -5.25482976E-04 -5.53911250E-03
 -2.57193006E-06 -6.49128872E-07 -3.59066060E-03  5.98927668E-03 -2.59806788E-02
  6.09189859E-02  3.99162004E-01 -4.20629819E-02  2.88600917E-05  7.35004977E-02
  2.46034095E-01 -2.84284832E-02  1.75881149E-05  4.06606846E-03  1.66712155E-03
  3.76028505E-04  3.73434623E-02  2.17504378E-06  2.83174969E-06 -6.79408436E-02
  1.49763375E-01 -1.73262837E-01 -8.65218482E-03 -1.22288156E-05  2.15252420E-01
 -1.06460977E-01 -7.52510258E-03 -7.49548201E-06 -1.32100443E-02  2.96265199E-03
  7.62192850E-04 -6.12457617E-03 -1.34172353E-06 -3.60875949E-07 -4.69789602E-02
  9.73133219E-02 -1.64170536E-02  1.21799503E-01  6.44409531E-07  1.78634961E-01
 -7.07711854E-03  6.85155646E-02  9.23289914E-07  2.18598262E-03 -1.31785747E-02
 -1.77727079E-03  5.89621046E-04  2.64058278E-07 -1.50318820E-07  1.08890798E-01
 -2.49593865E-01 -1.22531121E-01  1.18493938E-01 -3.97235374E-06 -1.28796842E-01
 -4.19674897E-02  1.72802988E-03 -3.38644333E-06  1.93554509E-03 -6.52081142E-03
  1.05634868E-02  1.43104684E-02 -6.95599068E-08  3.20708767E-07  1.70890170E-01
  7.87616357E-02 -4.13724633E-02  9.61349110E-02 -1.97675431E-01 -2.59905967E-01
 -2.75639090E-05  1.54588798E-01 -1.29530204E-01 -1.85152318E-01 -1.86899717E-05
 -1.72313420E-03 -1.96319181E-02  6.80300480E-03 -1.47482114E-02 -1.49765603E-06
 -2.71337471E-06 -1.79784783E-02  4.21201551E-02 -7.95850085E-03 -1.59030908E-01
 -6.98185984E-06  5.26970598E-02 -1.10284429E-02 -1.13425760E-01 -4.99169608E-06
  1.52904821E-03 -5.54080404E-03  1.47442584E-03 -1.01371574E-02 -4.16015549E-07
 -1.10899364E-06 -8.25137013E-02  1.80654806E-01  6.64015713E-02  3.26460974E-01
  2.35802217E-06  3.18456192E-01  4.22219565E-02  2.05484565E-01  1.48393161E-06
  2.63023182E-03 -2.55790353E-02  3.84024471E-03 -8.01250878E-03 -6.68945876E-08
 -1.82460844E-07  7.24743042E-02 -1.75253145E-01  2.79276758E-02 -2.00033526E-01
 -5.21761233E-06 -6.10440542E-02 -6.55601089E-03 -2.82356946E-02 -4.05573220E-06
 -4.05101090E-03  1.02854810E-02  6.30360952E-03 -1.08813048E-02 -1.21244060E-06
 -2.62932867E-07 -1.43871983E-01 -5.11621984E-02  4.00987615E-02 -9.19849677E-02
 -9.29966225E-02  2.95174247E-01  4.81410882E-06 -1.55735327E-01 -7.25099015E-02
  2.05896195E-01  2.88363827E-06 -5.08893629E-03  2.01733806E-02 -6.13752129E-03
 -5.34017709E-03 -2.69343342E-07  1.01781499E-06 -6.65472391E-02  1.37766379E-01
 -2.32098748E-01 -2.50218045E-01 -2.17703585E-05  3.00908154E-01 -1.34247294E-01
 -1.57807957E-01 -1.27563072E-05 -1.48066895E-02 -1.16699044E-02  1.11806809E-03
 -1.75400110E-02 -1.80188756E-06 -1.73387766E-06 -2.41517841E-03  3.70158274E-03
  2.28624351E-01 -2.42697083E-02  1.65753912E-05  5.28744690E-03  1.61895041E-01
 -1.57709640E-02  1.16440481E-05 -4.28224574E-03  1.86537601E-03 -9.93693846E-04
 -1.54591660E-02 -2.10797891E-07 -1.15196392E-06  2.96082638E-02 -7.91048985E-02
  3.07997849E-01 -1.43870183E-02  2.29997248E-05 -4.26271343E-02  6.13107107E-02
  8.58770833E-03  5.37422554E-06  8.44464216E-03 -2.44628871E-04  2.34088965E-03
 -4.53769115E-03  1.06564184E-08 -3.26704772E-07  3.59471230E-02  2.18330842E-02
  1.47726461E-06 -3.31007005E-06 -2.61300183E-05 -8.31548063E-06  3.65514630E-01
 -6.44174865E-06 -2.01307561E-05 -6.74981034E-06  2.67958845E-01  7.29987022E-07
 -1.02833271E-06  9.34367162E-07 -1.21256979E-06 -4.83919343E-03  2.04120472E-02
  1.74827633E-06 -4.45942323E-06 -7.09289397E-06 -5.79230079E-06  2.46424879E-01
 -4.98266953E-06 -4.25278587E-06 -3.96348902E-06  1.66263879E-01 -1.74318604E-06
 -8.12391055E-07  2.51256438E-06 -8.94548822E-07  1.79925838E-02  9.48147977E-03
 -2.30643167E-06  4.96549721E-06 -1.38375827E-05  1.46690021E-05  2.49126593E-01
  9.27562494E-06 -1.01617761E-05  9.58793849E-06  1.70947935E-01  4.87920965E-07
 -1.03945163E-06 -1.59665478E-07  1.20227610E-06 -2.74945847E-03 -2.03805693E-02
 -1.49451997E-06  2.73037941E-06 -2.44000725E-05 -1.78063935E-05  2.91837822E-01
  4.65777354E-06 -8.28531733E-06 -2.09176500E-06  1.49702510E-01  3.21593489E-07
  1.67499224E-07 -5.61125127E-07  2.42754374E-07  2.31194065E-03 -1.25252323E-03
  3.33012461E-06  2.38224170E-06  4.41584176E-02 -9.66190316E-02  1.03498089E-01
  3.12042092E-01  8.72348154E-06 -1.94526907E-01  5.40548986E-02  2.18392771E-01
  4.46054586E-06  7.91868528E-03  1.78272396E-02 -5.34748028E-03  1.22554704E-02
  1.73602936E-06  1.58175813E-06  3.34787834E-02 -8.01347939E-02  3.08881813E-01
  6.95190825E-02  1.54909614E-05 -1.10154828E-01  2.24771346E-01  4.44358328E-02
  1.17418045E-05  1.98239754E-02 -7.65327380E-03 -5.53003517E-03  8.92359554E-03
  1.88683972E-06  2.66901594E-07 -3.33488039E-02  7.32778722E-02  1.12291780E-01
  2.89764795E-01 -4.32059759E-06  1.33910570E-01  7.56230357E-02  1.96673550E-01
 -3.80072904E-06  4.33502941E-03 -2.05601782E-02  3.20895933E-03 -5.46357356E-03
  2.60563130E-07  6.83313108E-07 -9.09423859E-03  2.21893063E-02 -1.27226321E-01
 -2.78342805E-01 -2.41366949E-05 -1.61630262E-02  3.37895542E-02  2.40450265E-02
 -3.05651378E-06  2.21500524E-02 -2.18981006E-02 -4.65228164E-04  1.26257697E-02
  2.26873918E-06  5.13553641E-07  1.35840501E-01  8.35270997E-02  7.10789156E-07
 -1.49926962E-06 -3.78722553E-05 -1.83619761E-05  5.04578203E-01 -4.46419993E-06
 -3.04444874E-05 -1.52413483E-05  4.22003571E-01 -2.23019928E-07 -1.37464734E-06
  2.05581127E-06 -1.62838425E-06  1.59524636E-03  2.20697273E-02 -2.92245172E-07
  8.63113048E-07  1.59144811E-05  2.52784287E-06 -2.50225094E-01  6.95340915E-07
  1.19096903E-05  2.76702914E-06 -1.95684068E-01  1.76134888E-06  4.56050133E-07
 -2.24443628E-06  8.65345854E-07 -1.40627658E-02 -9.59751978E-03 -1.36639758E-07
  5.29012346E-07  9.09274898E-06 -1.69520693E-06 -2.61844638E-01  1.04608298E-06
  6.13932882E-06 -1.03815712E-06 -2.04854567E-01 -4.15906709E-07  1.18015478E-07
  5.46295513E-07 -7.46364227E-07  4.42928691E-03  1.68218744E-02  5.31736761E-07
 -1.27199336E-06  1.25347211E-05  3.32718204E-06 -1.33855253E-01 -1.31798494E-06
  6.33423191E-06 -2.40275276E-06 -7.35068133E-02 -3.67710908E-06  1.07469921E-06
  2.68251903E-06 -3.37825290E-07  2.60115321E-02 -1.94946214E-02  1.63278853E-06
  1.32878248E-07  1.42230684E-02 -1.91462752E-02  1.99001028E-01 -2.31385241E-01
  9.71137364E-06 -1.45165641E-01  1.75539694E-01 -2.10492177E-01  7.06886811E-06
  6.38263390E-03 -6.65420486E-03  7.42669709E-03  1.27196959E-02  5.64901120E-07
  1.24244888E-07  1.79441160E-03 -6.77664235E-03  2.94806997E-01 -2.87433339E-01
  1.48847743E-05  3.47224680E-04  2.29982847E-01 -2.11517521E-01  1.19126559E-05
  1.32594408E-02 -1.08438127E-02 -2.05529972E-03 -2.77568125E-03  1.19213625E-06
 -5.45554920E-07  1.12154063E-03 -1.41113921E-02  3.00413222E-01 -2.23035948E-01
  1.67823336E-05  4.93286105E-02  2.22728408E-01 -1.93974053E-01  1.26990607E-05
 -9.76164935E-03  9.43498691E-03 -5.48560932E-03 -7.97906295E-03 -2.60205104E-07
 -3.96282986E-07 -1.36552725E-02  3.65542031E-02 -5.46283110E-02  5.55565737E-02
 -4.41130118E-06 -1.12174167E-02  7.80059433E-02 -1.05061588E-01  3.02453503E-06
 -2.23667669E-02  1.88992240E-02 -7.70912171E-04  5.54971083E-02 -6.63328061E-07
  3.98369120E-06  2.10468514E-02  5.93388783E-02 -1.01666646E-02  2.69309846E-02
 -4.22811381E-02 -1.28305891E-01 -8.50289359E-09  3.19225637E-02 -4.25982745E-02
 -1.08874042E-01 -6.50309191E-07 -3.87110844E-04 -5.94675514E-03  4.67739448E-03
 -6.44466041E-03 -8.96696373E-07 -9.03846654E-07 -1.71889275E-03 -5.13563078E-03
 -1.29351944E-01  4.18798293E-01  1.77583881E-05  5.63399746E-02 -9.15010512E-02
  3.40486940E-01  1.70573363E-05 -1.40421570E-02  1.05035198E-02 -3.35451545E-03
  1.28434903E-02  2.64404467E-07  1.90831971E-06  2.10155431E-03  2.93143273E-03
  4.63840555E-01 -1.08686662E-02  7.58583221E-06 -5.53542274E-02  3.74601066E-01
  3.65247598E-03  4.35987909E-06 -8.69959311E-04  5.29776878E-03  2.52554476E-03
 -1.93961369E-02 -1.91489799E-08 -1.50593312E-08  8.51201663E-04 -2.70515469E-03
 -3.45998142E-02 -2.54491581E-02 -2.57987398E-06 -1.36662080E-03  5.91630307E-02
  7.81386472E-02  5.25579701E-06  2.89721938E-02 -3.06397590E-02  3.69001244E-05
  1.46508304E-02  1.24820996E-06 -1.80994289E-06 -5.21934100E-02  1.47007259E-03
  2.52787191E-07 -1.10450837E-06  2.17941768E-06  5.55461426E-06 -5.68181350E-03
  5.14530547E-07  4.39123364E-06  7.07414486E-06 -5.75709482E-03 -8.72021680E-08
  5.34895064E-07 -7.49812020E-07  5.34661533E-07 -2.31660714E-03 -3.19982641E-03
  5.55356138E-07  4.28428426E-07 -2.99276139E-05 -3.04650854E-05  4.36986995E-01
 -1.17473520E-05 -2.93250637E-05 -2.52414396E-05  3.80110838E-01 -2.02320135E-06
 -3.99618697E-07  4.04217426E-06 -1.90836824E-06  2.17570237E-02  1.08969873E-02
 -6.14553216E-07 -1.49656050E-07  5.39659516E-06 -5.81559618E-07 -4.31600657E-01
  1.17021565E-05  6.96083353E-06 -3.18652359E-06 -3.76914353E-01 -6.87681613E-07
 -6.28978568E-07 -2.60009862E-07 -6.95906174E-07  2.52232153E-03  2.35628205E-02
 -2.62773425E-08  1.22386617E-07  7.57978735E-07  7.39555438E-07  7.24124979E-03
  2.66214169E-07 -9.71799311E-06 -1.31127962E-05  2.42154124E-03  2.53866858E-06
  2.32571563E-06 -4.77516507E-06  2.68960273E-06 -3.14092964E-02 -4.22562164E-02
  1.33069622E-06 -1.79168623E-06  8.27558126E-02 -7.64488430E-02 -1.91408543E-01
 -1.54585791E-01 -3.27378202E-05 -1.10505370E+00 -4.13650493E-01 -4.04060831E-01
 -6.49848518E-05  3.61867119E-02  2.32117574E-02  4.70743602E-02 -9.92696277E-03
 -2.53780920E-06 -1.51460335E-06  2.46552985E-02 -2.07994007E-02 -7.27750418E-02
  1.03426467E-02 -1.97633276E-05 -3.79309783E-01 -1.96584430E-01 -7.73123995E-02
 -3.90470799E-05 -3.18403211E-04  7.29640842E-03  1.44807479E-02 -1.45555082E-02
 -1.16839004E-06 -9.46669293E-07  2.18179579E-02 -3.98325606E-02 -7.67638492E-02
  1.64235835E-02 -2.18415725E-05 -1.96321627E-01 -4.73785519E-02  1.17568158E-01