opt=Tight                                                               
Freq      RMP2-FC                                                     6-31G(d)            
Number of atoms                            I               17
Info1-9                                    I   N=           9
          26          26        1002           0           0         100
           6           2           1
Charge                                     I               -1
Multiplicity                               I                1
Number of electrons                        I               70
Number of alpha electrons                  I               35
Number of beta electrons                   I               35
Number of basis functions                  I              151
Number of independent functions            I              151
Number of point charges in /Mol/           I                0
Number of translation vectors              I                0
Atomic numbers                             I   N=          17
           8           8           8           7           6           6
           6           6           6           1           1           1
           1           1           1           1           1
Nuclear charges                            R   N=          17
  8.00000000E+00  8.00000000E+00  8.00000000E+00  7.00000000E+00  6.00000000E+00
  6.00000000E+00  6.00000000E+00  6.00000000E+00  6.00000000E+00  1.00000000E+00
  1.00000000E+00  1.00000000E+00  1.00000000E+00  1.00000000E+00  1.00000000E+00
  1.00000000E+00  1.00000000E+00
Current cartesian coordinates              R   N=          51
 -2.86974020E+00  2.94786575E+00 -2.70893677E-01  4.27814585E+00 -2.70148548E+00
 -8.62963996E-02  6.67402484E+00  8.47819494E-01  3.68529793E-01  7.59308778E-03
 -2.44881728E-01 -2.17574216E-01 -4.41911308E+00 -1.31429307E+00 -7.84191670E-01
 -2.36377701E+00  6.49912117E-01 -3.97184176E-01  2.22134969E+00  1.33200979E+00
  7.63146712E-02 -6.62447431E+00 -8.88526537E-01  1.02637562E+00  4.62333600E+00
 -3.38866621E-01  1.23855511E-01 -5.07828501E+00 -1.13928609E+00 -2.74096218E+00
 -3.65093044E+00 -3.22327864E+00 -5.70706397E-01  2.36526277E+00  2.69834794E+00
 -1.47526564E+00  2.11869356E+00  2.43173361E+00  1.83000844E+00  4.36402813E-01
 -2.11601913E+00 -3.31773784E-01 -6.02087164E+00 -1.13812481E+00  2.98749388E+00
 -7.35207095E+00  1.02971957E+00  8.13985898E-01 -8.15472434E+00 -2.22393252E+00
  6.48501843E-01
Force Field                                I                0
Int Atom Types                             I   N=          17
           0           0           0           0           0           0
           0           0           0           0           0           0
           0           0           0           0           0
MM charges                                 R   N=          17
  0.00000000E+00  0.00000000E+00  0.00000000E+00  0.00000000E+00  0.00000000E+00
  0.00000000E+00  0.00000000E+00  0.00000000E+00  0.00000000E+00  0.00000000E+00
  0.00000000E+00  0.00000000E+00  0.00000000E+00  0.00000000E+00  0.00000000E+00
  0.00000000E+00  0.00000000E+00
Integer atomic weights                     I   N=          17
          16          16          16          14          12          12
          12          12          12           1           1           1
           1           1           1           1           1
Real atomic weights                        R   N=          17
  1.59949146E+01  1.59949146E+01  1.59949146E+01  1.40030740E+01  1.20000000E+01
  1.20000000E+01  1.20000000E+01  1.20000000E+01  1.20000000E+01  1.00782504E+00
  1.00782504E+00  1.00782504E+00  1.00782504E+00  1.00782504E+00  1.00782504E+00
  1.00782504E+00  1.00782504E+00
Atom fragment info                         I   N=          17
           0           0           0           0           0           0
           0           0           0           0           0           0
           0           0           0           0           0
Atom residue num                           I   N=          17
           0           0           0           0           0           0
           0           0           0           0           0           0
           0           0           0           0           0
Nuclear spins                              I   N=          17
           0           0           0           2           0           0
           0           0           0           1           1           1
           1           1           1           1           1
Nuclear ZEff                               R   N=          17
 -5.60000000E+00 -5.60000000E+00 -5.60000000E+00 -4.55000000E+00 -3.60000000E+00
 -3.60000000E+00 -3.60000000E+00 -3.60000000E+00 -3.60000000E+00 -1.00000000E+00
 -1.00000000E+00 -1.00000000E+00 -1.00000000E+00 -1.00000000E+00 -1.00000000E+00
 -1.00000000E+00 -1.00000000E+00
Nuclear QMom                               R   N=          17
  0.00000000E+00  0.00000000E+00  0.00000000E+00  2.04400000E+00  0.00000000E+00
  0.00000000E+00  0.00000000E+00  0.00000000E+00  0.00000000E+00  0.00000000E+00
  0.00000000E+00  0.00000000E+00  0.00000000E+00  0.00000000E+00  0.00000000E+00
  0.00000000E+00  0.00000000E+00
Nuclear GFac                               R   N=          17
  0.00000000E+00  0.00000000E+00  0.00000000E+00  4.03761000E-01  0.00000000E+00
  0.00000000E+00  0.00000000E+00  0.00000000E+00  0.00000000E+00  2.79284600E+00
  2.79284600E+00  2.79284600E+00  2.79284600E+00  2.79284600E+00  2.79284600E+00
  2.79284600E+00  2.79284600E+00
MicOpt                                     I   N=          17
          -1          -1          -1          -1          -1          -1
          -1          -1          -1          -1          -1          -1
          -1          -1          -1          -1          -1
Number of contracted shells                I               52
Number of primitive shells                 I              131
Pure/Cartesian d shells                    I                1
Pure/Cartesian f shells                    I                0
Highest angular momentum                   I                2
Largest degree of contraction              I                6
Shell types                                I   N=          52
           0          -1          -1           2           0          -1
          -1           2           0          -1          -1           2
           0          -1          -1           2           0          -1
          -1           2           0          -1          -1           2
           0          -1          -1           2           0          -1
          -1           2           0          -1          -1           2
           0           0           0           0           0           0
           0           0           0           0           0           0
           0           0           0           0
Number of primitives per shell             I   N=          52
           6           3           1           1           6           3
           1           1           6           3           1           1
           6           3           1           1           6           3
           1           1           6           3           1           1
           6           3           1           1           6           3
           1           1           6           3           1           1
           3           1           3           1           3           1
           3           1           3           1           3           1
           3           1           3           1
Shell to atom map                          I   N=          52
           1           1           1           1           2           2
           2           2           3           3           3           3
           4           4           4           4           5           5
           5           5           6           6           6           6
           7           7           7           7           8           8
           8           8           9           9           9           9
          10          10          11          11          12          12
          13          13          14          14          15          15
          16          16          17          17
Primitive exponents                        R   N=         131
  5.48467166E+03  8.25234946E+02  1.88046958E+02  5.29645000E+01  1.68975704E+01
  5.79963534E+00  1.55396162E+01  3.59993359E+00  1.01376175E+00  2.70005823E-01
  8.00000000E-01  5.48467166E+03  8.25234946E+02  1.88046958E+02  5.29645000E+01
  1.68975704E+01  5.79963534E+00  1.55396162E+01  3.59993359E+00  1.01376175E+00
  2.70005823E-01  8.00000000E-01  5.48467166E+03  8.25234946E+02  1.88046958E+02
  5.29645000E+01  1.68975704E+01  5.79963534E+00  1.55396162E+01  3.59993359E+00
  1.01376175E+00  2.70005823E-01  8.00000000E-01  4.17351146E+03  6.27457911E+02
  1.42902093E+02  4.02343293E+01  1.28202129E+01  4.39043701E+00  1.16263619E+01
  2.71627981E+00  7.72218397E-01  2.12031498E-01  8.00000000E-01  3.04752488E+03
  4.57369518E+02  1.03948685E+02  2.92101553E+01  9.28666296E+00  3.16392696E+00
  7.86827235E+00  1.88128854E+00  5.44249258E-01  1.68714478E-01  8.00000000E-01
  3.04752488E+03  4.57369518E+02  1.03948685E+02  2.92101553E+01  9.28666296E+00
  3.16392696E+00  7.86827235E+00  1.88128854E+00  5.44249258E-01  1.68714478E-01
  8.00000000E-01  3.04752488E+03  4.57369518E+02  1.03948685E+02  2.92101553E+01
  9.28666296E+00  3.16392696E+00  7.86827235E+00  1.88128854E+00  5.44249258E-01
  1.68714478E-01  8.00000000E-01  3.04752488E+03  4.57369518E+02  1.03948685E+02
  2.92101553E+01  9.28666296E+00  3.16392696E+00  7.86827235E+00  1.88128854E+00
  5.44249258E-01  1.68714478E-01  8.00000000E-01  3.04752488E+03  4.57369518E+02
  1.03948685E+02  2.92101553E+01  9.28666296E+00  3.16392696E+00  7.86827235E+00
  1.88128854E+00  5.44249258E-01  1.68714478E-01  8.00000000E-01  1.87311370E+01
  2.82539436E+00  6.40121692E-01  1.61277759E-01  1.87311370E+01  2.82539436E+00
  6.40121692E-01  1.61277759E-01  1.87311370E+01  2.82539436E+00  6.40121692E-01
  1.61277759E-01  1.87311370E+01  2.82539436E+00  6.40121692E-01  1.61277759E-01
  1.87311370E+01  2.82539436E+00  6.40121692E-01  1.61277759E-01  1.87311370E+01
  2.82539436E+00  6.40121692E-01  1.61277759E-01  1.87311370E+01  2.82539436E+00
  6.40121692E-01  1.61277759E-01  1.87311370E+01  2.82539436E+00  6.40121692E-01
  1.61277759E-01
Contraction coefficients                   R   N=         131
  1.83107443E-03  1.39501722E-02  6.84450781E-02  2.32714336E-01  4.70192898E-01
  3.58520853E-01 -1.10777550E-01 -1.48026263E-01  1.13076702E+00  1.00000000E+00
  1.00000000E+00  1.83107443E-03  1.39501722E-02  6.84450781E-02  2.32714336E-01
  4.70192898E-01  3.58520853E-01 -1.10777550E-01 -1.48026263E-01  1.13076702E+00
  1.00000000E+00  1.00000000E+00  1.83107443E-03  1.39501722E-02  6.84450781E-02
  2.32714336E-01  4.70192898E-01  3.58520853E-01 -1.10777550E-01 -1.48026263E-01
  1.13076702E+00  1.00000000E+00  1.00000000E+00  1.83477216E-03  1.39946270E-02
  6.85865518E-02  2.32240873E-01  4.69069948E-01  3.60455199E-01 -1.14961182E-01
 -1.69117479E-01  1.14585195E+00  1.00000000E+00  1.00000000E+00  1.83473713E-03
  1.40373228E-02  6.88426223E-02  2.32184443E-01  4.67941348E-01  3.62311985E-01
 -1.19332420E-01 -1.60854152E-01  1.14345644E+00  1.00000000E+00  1.00000000E+00
  1.83473713E-03  1.40373228E-02  6.88426223E-02  2.32184443E-01  4.67941348E-01
  3.62311985E-01 -1.19332420E-01 -1.60854152E-01  1.14345644E+00  1.00000000E+00
  1.00000000E+00  1.83473713E-03  1.40373228E-02  6.88426223E-02  2.32184443E-01
  4.67941348E-01  3.62311985E-01 -1.19332420E-01 -1.60854152E-01  1.14345644E+00
  1.00000000E+00  1.00000000E+00  1.83473713E-03  1.40373228E-02  6.88426223E-02
  2.32184443E-01  4.67941348E-01  3.62311985E-01 -1.19332420E-01 -1.60854152E-01
  1.14345644E+00  1.00000000E+00  1.00000000E+00  1.83473713E-03  1.40373228E-02
  6.88426223E-02  2.32184443E-01  4.67941348E-01  3.62311985E-01 -1.19332420E-01
 -1.60854152E-01  1.14345644E+00  1.00000000E+00  1.00000000E+00  3.34946043E-02
  2.34726953E-01  8.13757326E-01  1.00000000E+00  3.34946043E-02  2.34726953E-01
  8.13757326E-01  1.00000000E+00  3.34946043E-02  2.34726953E-01  8.13757326E-01
  1.00000000E+00  3.34946043E-02  2.34726953E-01  8.13757326E-01  1.00000000E+00
  3.34946043E-02  2.34726953E-01  8.13757326E-01  1.00000000E+00  3.34946043E-02
  2.34726953E-01  8.13757326E-01  1.00000000E+00  3.34946043E-02  2.34726953E-01
  8.13757326E-01  1.00000000E+00  3.34946043E-02  2.34726953E-01  8.13757326E-01
  1.00000000E+00
P(S=P) Contraction coefficients            R   N=         131
  0.00000000E+00  0.00000000E+00  0.00000000E+00  0.00000000E+00  0.00000000E+00
  0.00000000E+00  7.08742682E-02  3.39752839E-01  7.27158577E-01  1.00000000E+00
  0.00000000E+00  0.00000000E+00  0.00000000E+00  0.00000000E+00  0.00000000E+00
  0.00000000E+00  0.00000000E+00  7.08742682E-02  3.39752839E-01  7.27158577E-01
  1.00000000E+00  0.00000000E+00  0.00000000E+00  0.00000000E+00  0.00000000E+00
  0.00000000E+00  0.00000000E+00  0.00000000E+00  7.08742682E-02  3.39752839E-01
  7.27158577E-01  1.00000000E+00  0.00000000E+00  0.00000000E+00  0.00000000E+00
  0.00000000E+00  0.00000000E+00  0.00000000E+00  0.00000000E+00  6.75797439E-02
  3.23907296E-01  7.40895140E-01  1.00000000E+00  0.00000000E+00  0.00000000E+00
  0.00000000E+00  0.00000000E+00  0.00000000E+00  0.00000000E+00  0.00000000E+00
  6.89990666E-02  3.16423961E-01  7.44308291E-01  1.00000000E+00  0.00000000E+00
  0.00000000E+00  0.00000000E+00  0.00000000E+00  0.00000000E+00  0.00000000E+00
  0.00000000E+00  6.89990666E-02  3.16423961E-01  7.44308291E-01  1.00000000E+00
  0.00000000E+00  0.00000000E+00  0.00000000E+00  0.00000000E+00  0.00000000E+00
  0.00000000E+00  0.00000000E+00  6.89990666E-02  3.16423961E-01  7.44308291E-01
  1.00000000E+00  0.00000000E+00  0.00000000E+00  0.00000000E+00  0.00000000E+00
  0.00000000E+00  0.00000000E+00  0.00000000E+00  6.89990666E-02  3.16423961E-01
  7.44308291E-01  1.00000000E+00  0.00000000E+00  0.00000000E+00  0.00000000E+00
  0.00000000E+00  0.00000000E+00  0.00000000E+00  0.00000000E+00  6.89990666E-02
  3.16423961E-01  7.44308291E-01  1.00000000E+00  0.00000000E+00  0.00000000E+00
  0.00000000E+00  0.00000000E+00  0.00000000E+00  0.00000000E+00  0.00000000E+00
  0.00000000E+00  0.00000000E+00  0.00000000E+00  0.00000000E+00  0.00000000E+00
  0.00000000E+00  0.00000000E+00  0.00000000E+00  0.00000000E+00  0.00000000E+00
  0.00000000E+00  0.00000000E+00  0.00000000E+00  0.00000000E+00  0.00000000E+00
  0.00000000E+00  0.00000000E+00  0.00000000E+00  0.00000000E+00  0.00000000E+00
  0.00000000E+00  0.00000000E+00  0.00000000E+00  0.00000000E+00  0.00000000E+00
  0.00000000E+00
Coordinates of each shell                  R   N=         156
 -2.86974020E+00  2.94786575E+00 -2.70893677E-01 -2.86974020E+00  2.94786575E+00
 -2.70893677E-01 -2.86974020E+00  2.94786575E+00 -2.70893677E-01 -2.86974020E+00
  2.94786575E+00 -2.70893677E-01  4.27814585E+00 -2.70148548E+00 -8.62963996E-02
  4.27814585E+00 -2.70148548E+00 -8.62963996E-02  4.27814585E+00 -2.70148548E+00
 -8.62963996E-02  4.27814585E+00 -2.70148548E+00 -8.62963996E-02  6.67402484E+00
  8.47819494E-01  3.68529793E-01  6.67402484E+00  8.47819494E-01  3.68529793E-01
  6.67402484E+00  8.47819494E-01  3.68529793E-01  6.67402484E+00  8.47819494E-01
  3.68529793E-01  7.59308778E-03 -2.44881728E-01 -2.17574216E-01  7.59308778E-03
 -2.44881728E-01 -2.17574216E-01  7.59308778E-03 -2.44881728E-01 -2.17574216E-01
  7.59308778E-03 -2.44881728E-01 -2.17574216E-01 -4.41911308E+00 -1.31429307E+00
 -7.84191670E-01 -4.41911308E+00 -1.31429307E+00 -7.84191670E-01 -4.41911308E+00
 -1.31429307E+00 -7.84191670E-01 -4.41911308E+00 -1.31429307E+00 -7.84191670E-01
 -2.36377701E+00  6.49912117E-01 -3.97184176E-01 -2.36377701E+00  6.49912117E-01
 -3.97184176E-01 -2.36377701E+00  6.49912117E-01 -3.97184176E-01 -2.36377701E+00
  6.49912117E-01 -3.97184176E-01  2.22134969E+00  1.33200979E+00  7.63146712E-02
  2.22134969E+00  1.33200979E+00  7.63146712E-02  2.22134969E+00  1.33200979E+00
  7.63146712E-02  2.22134969E+00  1.33200979E+00  7.63146712E-02 -6.62447431E+00
 -8.88526537E-01  1.02637562E+00 -6.62447431E+00 -8.88526537E-01  1.02637562E+00
 -6.62447431E+00 -8.88526537E-01  1.02637562E+00 -6.62447431E+00 -8.88526537E-01
  1.02637562E+00  4.62333600E+00 -3.38866621E-01  1.23855511E-01  4.62333600E+00
 -3.38866621E-01  1.23855511E-01  4.62333600E+00 -3.38866621E-01  1.23855511E-01
  4.62333600E+00 -3.38866621E-01  1.23855511E-01 -5.07828501E+00 -1.13928609E+00
 -2.74096218E+00 -5.07828501E+00 -1.13928609E+00 -2.74096218E+00 -3.65093044E+00
 -3.22327864E+00 -5.70706397E-01 -3.65093044E+00 -3.22327864E+00 -5.70706397E-01
  2.36526277E+00  2.69834794E+00 -1.47526564E+00  2.36526277E+00  2.69834794E+00
 -1.47526564E+00  2.11869356E+00  2.43173361E+00  1.83000844E+00  2.11869356E+00
  2.43173361E+00  1.83000844E+00  4.36402813E-01 -2.11601913E+00 -3.31773784E-01
  4.36402813E-01 -2.11601913E+00 -3.31773784E-01 -6.02087164E+00 -1.13812481E+00
  2.98749388E+00 -6.02087164E+00 -1.13812481E+00  2.98749388E+00 -7.35207095E+00
  1.02971957E+00  8.13985898E-01 -7.35207095E+00  1.02971957E+00  8.13985898E-01
 -8.15472434E+00 -2.22393252E+00  6.48501843E-01 -8.15472434E+00 -2.22393252E+00
  6.48501843E-01
Constraint Structure                       R   N=          51
 -2.86974020E+00  2.94786575E+00 -2.70893677E-01  4.27814585E+00 -2.70148548E+00
 -8.62963996E-02  6.67402484E+00  8.47819494E-01  3.68529793E-01  7.59308778E-03
 -2.44881728E-01 -2.17574216E-01 -4.41911308E+00 -1.31429307E+00 -7.84191670E-01
 -2.36377701E+00  6.49912117E-01 -3.97184176E-01  2.22134969E+00  1.33200979E+00
  7.63146712E-02 -6.62447431E+00 -8.88526537E-01  1.02637562E+00  4.62333600E+00
 -3.38866621E-01  1.23855511E-01 -5.07828501E+00 -1.13928609E+00 -2.74096218E+00
 -3.65093044E+00 -3.22327864E+00 -5.70706397E-01  2.36526277E+00  2.69834794E+00
 -1.47526564E+00  2.11869356E+00  2.43173361E+00  1.83000844E+00  4.36402813E-01
 -2.11601913E+00 -3.31773784E-01 -6.02087164E+00 -1.13812481E+00  2.98749388E+00
 -7.35207095E+00  1.02971957E+00  8.13985898E-01 -8.15472434E+00 -2.22393252E+00
  6.48501843E-01
Num ILSW                                   I              100
ILSW                                       I   N=         100
           0           1           0           0           2           0
           0           0           0           0           0          -1
           0           0           0           0           0           0
           0           0           0           0           1           0
           1           0           0           0           0           0
           0           0      100000           0          -1           0
           0           0           0           0           0           0
           0           0           0           1           1           0
           0           0           1           0           0           0
           0           0           4          40           0           0
           0           0           0           0           0           0
           0           0           0           0           0           0
           0           0           0           0           0           0
           0           0           0           0           0           0
           0           0           0           0           0           0
           0           0           0           0           0           0
           0           0           0           0
Num RLSW                                   I               40
RLSW                                       R   N=          40
  1.00000000E+00  1.00000000E+00  1.00000000E+00  1.00000000E+00  1.00000000E+00
  0.00000000E+00  0.00000000E+00  1.00000000E+00  0.00000000E+00  0.00000000E+00
  0.00000000E+00  0.00000000E+00  1.00000000E+00  0.00000000E+00  0.00000000E+00
  0.00000000E+00  0.00000000E+00  1.00000000E+00  0.00000000E+00  0.00000000E+00
  0.00000000E+00  0.00000000E+00  1.00000000E+00  0.00000000E+00  0.00000000E+00
  0.00000000E+00  0.00000000E+00  1.00000000E+00  0.00000000E+00  0.00000000E+00
  0.00000000E+00  0.00000000E+00  0.00000000E+00  0.00000000E+00  0.00000000E+00
  0.00000000E+00  0.00000000E+00  0.00000000E+00  1.00000000E+00  1.00000000E+00
MxBond                                     I                4
NBond                                      I   N=          17
           1           1           1           3           4           3
           4           4           3           1           1           1
           1           1           1           1           1
IBond                                      I   N=          68
           6           0           0           0           9           0
           0           0           9           0           0           0
           6           7          14           0           6           8
          10          11           1           4           5           0
           4           9          12          13           5          15
          16          17           2           3           7           0
           5           0           0           0           5           0
           0           0           7           0           0           0
           7           0           0           0           4           0
           0           0           8           0           0           0
           8           0           0           0           8           0
           0           0
RBond                                      R   N=          68
  2.00000000E+00  0.00000000E+00  0.00000000E+00  0.00000000E+00  2.00000000E+00
  0.00000000E+00  0.00000000E+00  0.00000000E+00  2.00000000E+00  0.00000000E+00
  0.00000000E+00  0.00000000E+00  1.41000000E+00  1.00000000E+00  1.00000000E+00
  0.00000000E+00  1.00000000E+00  1.00000000E+00  1.00000000E+00  1.00000000E+00
  2.00000000E+00  1.41000000E+00  1.00000000E+00  0.00000000E+00  1.00000000E+00
  1.00000000E+00  1.00000000E+00  1.00000000E+00  1.00000000E+00  1.00000000E+00
  1.00000000E+00  1.00000000E+00  2.00000000E+00  2.00000000E+00  1.00000000E+00
  0.00000000E+00  1.00000000E+00  0.00000000E+00  0.00000000E+00  0.00000000E+00
  1.00000000E+00  0.00000000E+00  0.00000000E+00  0.00000000E+00  1.00000000E+00
  0.00000000E+00  0.00000000E+00  0.00000000E+00  1.00000000E+00  0.00000000E+00
  0.00000000E+00  0.00000000E+00  1.00000000E+00  0.00000000E+00  0.00000000E+00
  0.00000000E+00  1.00000000E+00  0.00000000E+00  0.00000000E+00  0.00000000E+00
  1.00000000E+00  0.00000000E+00  0.00000000E+00  0.00000000E+00  1.00000000E+00
  0.00000000E+00  0.00000000E+00  0.00000000E+00
Virial Ratio                               R      2.002743182916503E+00
SCF Energy                                 R     -4.731943212936461E+02
MP2 Energy                                 R     -4.745313859641263E+02
Total Energy                               R     -4.745313859641263E+02
Post-SCF wavefunction norm                 R      1.680012904950957E+00
RMS Force                                  R      3.516896458950043E-06
RMS Density                                R      1.620914918900725E-09
External E-field                           R   N=          35
  0.00000000E+00  0.00000000E+00  0.00000000E+00  0.00000000E+00  0.00000000E+00
  0.00000000E+00  0.00000000E+00  0.00000000E+00  0.00000000E+00  0.00000000E+00
  0.00000000E+00  0.00000000E+00  0.00000000E+00  0.00000000E+00  0.00000000E+00
  0.00000000E+00  0.00000000E+00  0.00000000E+00  0.00000000E+00  0.00000000E+00
  0.00000000E+00  0.00000000E+00  0.00000000E+00  0.00000000E+00  0.00000000E+00
  0.00000000E+00  0.00000000E+00  0.00000000E+00  0.00000000E+00  0.00000000E+00
  0.00000000E+00  0.00000000E+00  0.00000000E+00  0.00000000E+00  0.00000000E+00
IOpCl                                      I                0
IROHF                                      I                0
Alpha Orbital Energies                     R   N=         151
 -2.05146736E+01 -2.04799749E+01 -2.04735472E+01 -1.55729758E+01 -1.13438277E+01
 -1.13214372E+01 -1.12458244E+01 -1.12312560E+01 -1.12172209E+01 -1.35935848E+00
 -1.34333679E+00 -1.24563555E+00 -1.21149474E+00 -1.04756594E+00 -9.56486545E-01
 -8.63934039E-01 -7.75785994E-01 -7.11693473E-01 -6.67038216E-01 -6.44579281E-01
 -6.27796579E-01 -6.02316649E-01 -5.98183010E-01 -5.73554518E-01 -5.55789016E-01
 -5.41188335E-01 -5.14635551E-01 -5.08687743E-01 -4.96420037E-01 -4.76689665E-01
 -4.15816998E-01 -3.88139558E-01 -3.84869659E-01 -3.78259217E-01 -3.67032253E-01
  1.96053015E-01  2.45648486E-01  2.52066703E-01  2.75930541E-01  2.88180014E-01
  3.03818850E-01  3.25351753E-01  3.39669814E-01  3.60599151E-01  3.75246035E-01
  3.98427782E-01  4.21398028E-01  4.40861513E-01  4.61835612E-01  5.05305659E-01
  5.64857506E-01  5.94924834E-01  6.52059167E-01  7.27203707E-01  7.44278800E-01
  7.83093184E-01  7.93829191E-01  7.97871277E-01  8.23482055E-01  8.37668912E-01
  8.73849897E-01  8.81886648E-01  9.17499413E-01  9.33913988E-01  9.66144379E-01
  1.00721693E+00  1.01154639E+00  1.03407671E+00  1.04364214E+00  1.09408056E+00
  1.11001079E+00  1.11598556E+00  1.12370643E+00  1.13041060E+00  1.14028780E+00
  1.15084500E+00  1.17173173E+00  1.20001198E+00  1.21207435E+00  1.23505625E+00
  1.24029576E+00  1.27602654E+00  1.29974624E+00  1.32744562E+00  1.35597003E+00
  1.38456654E+00  1.41263210E+00  1.41473072E+00  1.43070488E+00  1.49273456E+00
  1.56537928E+00  1.59029722E+00  1.62684443E+00  1.65721685E+00  1.72887704E+00
  1.75911177E+00  1.77162292E+00  1.80473794E+00  1.85580922E+00  1.89153389E+00
  2.02430564E+00  2.05733046E+00  2.07277939E+00  2.08529290E+00  2.11302216E+00
  2.12554083E+00  2.13536704E+00  2.17009194E+00  2.17592431E+00  2.18225303E+00
  2.21895772E+00  2.26864826E+00  2.27512942E+00  2.28975399E+00  2.29656568E+00
  2.32544952E+00  2.33251266E+00  2.36851087E+00  2.41236741E+00  2.47941075E+00
  2.49002280E+00  2.56707020E+00  2.60714683E+00  2.62728824E+00  2.67576508E+00
  2.68334905E+00  2.71334776E+00  2.78076155E+00  2.80955367E+00  2.86115967E+00
  2.89304863E+00  2.95238432E+00  3.04650484E+00  3.08836607E+00  3.10189497E+00
  3.19412429E+00  3.25878903E+00  3.30072244E+00  3.33615985E+00  3.40098640E+00
  3.50593600E+00  3.59858030E+00  4.33514309E+00  4.43298626E+00  4.51585052E+00
  4.58047507E+00  4.65167034E+00  4.67353834E+00  4.77914703E+00  4.94953141E+00
  4.99243521E+00
Alpha MO coefficients                      R   N=       22801
  9.94686813E-01  2.09933316E-02  3.20251138E-04 -1.38662883E-03 -8.03965268E-05
  4.34277330E-03  2.17031427E-06  1.30641672E-04  1.80636040E-05 -3.89437592E-03
 -3.73630639E-03 -4.07124408E-03 -4.23798939E-05  1.64623158E-05  2.52887004E-05
 -1.10095792E-06  8.00250181E-06  4.70025180E-06  7.03067551E-08  1.51404071E-07
 -6.96253706E-05 -1.62543489E-05 -1.55763103E-05 -1.66399767E-06  5.75834107E-06
  3.16871025E-06  2.39098383E-06 -1.62909642E-06  1.47461915E-07  6.75668579E-08
 -3.06315126E-06 -1.20486429E-05 -1.26427431E-07 -1.68121278E-07 -4.75677419E-08
  9.53267049E-05 -3.01121882E-05 -3.95507760E-06 -2.20137430E-06 -4.18701363E-06
 -9.99349488E-06 -4.92442740E-06  2.78118023E-06  2.48860591E-07 -3.48647146E-07
 -1.06545477E-05 -4.79937000E-05  1.37057994E-05 -4.35590710E-05 -6.92359886E-07
  2.62180471E-04 -5.79628162E-05  1.87390510E-04  2.11558072E-06  5.99577451E-05
 -7.40314475E-05 -5.14486495E-05  7.28358025E-05  1.95698946E-05  4.90827211E-06
 -1.93268378E-06  8.23434895E-06 -5.72326443E-06 -2.59023183E-05 -2.13119038E-06
 -6.45950827E-05 -9.35757510E-05 -8.63783522E-05  3.49557243E-05  2.88804081E-05
 -6.40884948E-05 -1.84248021E-05 -1.13493693E-05 -8.72304927E-07 -4.42608883E-06
 -5.00968877E-06  5.10153072E-04 -1.65913411E-05  5.59367989E-05 -2.22189123E-07
 -3.12472722E-04 -1.19264761E-04 -4.38784231E-04 -4.71940140E-05 -9.63343439E-05
 -6.41527464E-04 -6.13924285E-05  1.68253393E-04  8.87167158E-06 -3.40672810E-05
 -3.28840505E-06  5.36219087E-06  1.03036075E-05  2.66344402E-05  2.20076513E-06
  3.00356242E-05  1.82609278E-04 -3.26674619E-05  1.64143529E-05 -2.63804178E-05
 -1.99450421E-05 -1.18890239E-05 -2.96134357E-05 -3.76798700E-06 -2.53459798E-06
  3.52699723E-06  1.11945189E-05  1.89506070E-05  5.76548774E-06  4.63941293E-06
 -2.55145705E-05 -1.15129020E-04  1.36694628E-05  2.38769586E-06  5.29066317E-06
  6.80585253E-06  2.90226945E-08  4.73223954E-06  7.36781796E-06 -2.33961128E-06
  8.67638786E-07  7.84281003E-06  4.02522171E-06 -1.63615525E-06  1.81037335E-07
 -1.29419078E-04 -5.01385411E-06 -1.33813567E-04 -1.24954800E-05 -7.05585429E-06
 -4.48961710E-08  2.25889380E-06 -3.90215827E-07 -6.92039981E-07 -3.59074577E-07
  1.60429324E-05 -1.83114615E-05  2.95511270E-07 -4.02064034E-05  1.95687143E-05
 -1.77932386E-05  1.76474706E-05 -1.99702533E-05  5.18802332E-05 -1.62874464E-06
  1.01904822E-05  2.22079503E-05  2.72810577E-05 -1.04637291E-04 -7.10661887E-06
 -4.43939690E-05  4.68220883E-06  7.90035315E-06  2.50502116E-06 -7.05842139E-07
  3.94275608E-07 -4.70954052E-05 -2.30941974E-05 -2.15405445E-07 -3.52165297E-06
  2.92998859E-06  9.31203389E-06  5.33697568E-06  1.81863931E-06 -2.19426463E-07
  7.08481253E-07  9.94677996E-01  2.09833093E-02  1.52060809E-04  1.26593524E-03
  1.10226289E-04  4.28264776E-03 -4.96816593E-05 -1.70582326E-04 -1.71090635E-05
 -3.91125792E-03 -3.81557464E-03 -4.05628500E-03  2.84101884E-06  1.29139910E-05
  2.21181317E-05 -2.46046482E-03 -9.92941455E-05 -1.49656375E-05  2.74873949E-05
  1.03300008E-06  2.81814607E-04 -1.53906759E-04 -4.23029582E-05 -1.46779158E-05
  1.02951541E-04 -1.06061233E-04 -6.01526078E-05 -1.88627552E-05  1.25164470E-05
 -5.50731052E-06 -2.94800526E-06  1.06214907E-05  6.45581311E-06  2.18854891E-05
  2.50003302E-06  2.32317788E-05 -8.35779805E-05 -2.36528961E-04 -2.62145963E-05