77195                                                                   
Freq      RMP2-FC                                                     6-31G(d)            
Number of atoms                            I               19
Info1-9                                    I   N=           9
          31          29        1002           0           0         100
           6           2           1
Charge                                     I                0
Multiplicity                               I                1
Number of electrons                        I               56
Number of alpha electrons                  I               28
Number of beta electrons                   I               28
Number of basis functions                  I              129
Number of independent functions            I              129
Number of point charges in /Mol/           I                0
Number of translation vectors              I                0
Atomic numbers                             I   N=          19
           8           6           6           6           6           6
           6           1           1           1           1           1
           1           1           1           1           1           1
           1
Nuclear charges                            R   N=          19
  8.00000000E+00  6.00000000E+00  6.00000000E+00  6.00000000E+00  6.00000000E+00
  6.00000000E+00  6.00000000E+00  1.00000000E+00  1.00000000E+00  1.00000000E+00
  1.00000000E+00  1.00000000E+00  1.00000000E+00  1.00000000E+00  1.00000000E+00
  1.00000000E+00  1.00000000E+00  1.00000000E+00  1.00000000E+00
Current cartesian coordinates              R   N=          57
 -4.84822588E+00 -8.61678461E-01 -5.16319629E-02 -6.08405438E-01  3.80742926E-01
 -8.36126576E-01  1.51399071E+00  2.36016950E+00 -3.96734705E-01  4.68893817E-01
 -2.13538475E+00  1.39615958E-01  3.78185624E+00  8.75773263E-01  6.72749010E-01
  3.32210562E+00 -1.84134584E+00 -2.03996794E-01 -3.06772696E+00  1.10950453E+00
  4.30597843E-01 -9.87935918E-01  1.99900759E-01 -2.86586683E+00  9.08948726E-01
  3.86416911E+00  8.94590161E-01  2.01689895E+00  3.28128515E+00 -2.17948423E+00
 -3.40502977E-01 -3.76687459E+00 -8.35008174E-01  3.03062003E-02 -2.34530184E+00
  2.15750084E+00  3.75448696E+00  9.33560824E-01  2.74375018E+00  5.60180898E+00
  1.64759949E+00  6.31219468E-02  3.81619902E+00 -2.03454090E+00 -2.20865706E+00
  4.42789509E+00 -3.23770476E+00  8.49449723E-01 -3.74936221E+00  2.93045879E+00
 -3.09639574E-01 -2.73994323E+00  1.34025709E+00  2.47436745E+00 -6.41727646E+00
 -4.16139252E-01  7.92302842E-01
Force Field                                I                0
Int Atom Types                             I   N=          19
           0           0           0           0           0           0
           0           0           0           0           0           0
           0           0           0           0           0           0
           0
MM charges                                 R   N=          19
  0.00000000E+00  0.00000000E+00  0.00000000E+00  0.00000000E+00  0.00000000E+00
  0.00000000E+00  0.00000000E+00  0.00000000E+00  0.00000000E+00  0.00000000E+00
  0.00000000E+00  0.00000000E+00  0.00000000E+00  0.00000000E+00  0.00000000E+00
  0.00000000E+00  0.00000000E+00  0.00000000E+00  0.00000000E+00
Integer atomic weights                     I   N=          19
          16          12          12          12          12          12
          12           1           1           1           1           1
           1           1           1           1           1           1
           1
Real atomic weights                        R   N=          19
  1.59949146E+01  1.20000000E+01  1.20000000E+01  1.20000000E+01  1.20000000E+01
  1.20000000E+01  1.20000000E+01  1.00782504E+00  1.00782504E+00  1.00782504E+00
  1.00782504E+00  1.00782504E+00  1.00782504E+00  1.00782504E+00  1.00782504E+00
  1.00782504E+00  1.00782504E+00  1.00782504E+00  1.00782504E+00
Atom fragment info                         I   N=          19
           0           0           0           0           0           0
           0           0           0           0           0           0
           0           0           0           0           0           0
           0
Atom residue num                           I   N=          19
           0           0           0           0           0           0
           0           0           0           0           0           0
           0           0           0           0           0           0
           0
Nuclear spins                              I   N=          19
           0           0           0           0           0           0
           0           1           1           1           1           1
           1           1           1           1           1           1
           1
Nuclear ZEff                               R   N=          19
 -5.60000000E+00 -3.60000000E+00 -3.60000000E+00 -3.60000000E+00 -3.60000000E+00
 -3.60000000E+00 -3.60000000E+00 -1.00000000E+00 -1.00000000E+00 -1.00000000E+00
 -1.00000000E+00 -1.00000000E+00 -1.00000000E+00 -1.00000000E+00 -1.00000000E+00
 -1.00000000E+00 -1.00000000E+00 -1.00000000E+00 -1.00000000E+00
Nuclear QMom                               R   N=          19
  0.00000000E+00  0.00000000E+00  0.00000000E+00  0.00000000E+00  0.00000000E+00
  0.00000000E+00  0.00000000E+00  0.00000000E+00  0.00000000E+00  0.00000000E+00
  0.00000000E+00  0.00000000E+00  0.00000000E+00  0.00000000E+00  0.00000000E+00
  0.00000000E+00  0.00000000E+00  0.00000000E+00  0.00000000E+00
Nuclear GFac                               R   N=          19
  0.00000000E+00  0.00000000E+00  0.00000000E+00  0.00000000E+00  0.00000000E+00
  0.00000000E+00  0.00000000E+00  2.79284600E+00  2.79284600E+00  2.79284600E+00
  2.79284600E+00  2.79284600E+00  2.79284600E+00  2.79284600E+00  2.79284600E+00
  2.79284600E+00  2.79284600E+00  2.79284600E+00  2.79284600E+00
MicOpt                                     I   N=          19
          -1          -1          -1          -1          -1          -1
          -1          -1          -1          -1          -1          -1
          -1          -1          -1          -1          -1          -1
          -1
Number of contracted shells                I               52
Number of primitive shells                 I              125
Pure/Cartesian d shells                    I                1
Pure/Cartesian f shells                    I                0
Highest angular momentum                   I                2
Largest degree of contraction              I                6
Shell types                                I   N=          52
           0          -1          -1           2           0          -1
          -1           2           0          -1          -1           2
           0          -1          -1           2           0          -1
          -1           2           0          -1          -1           2
           0          -1          -1           2           0           0
           0           0           0           0           0           0
           0           0           0           0           0           0
           0           0           0           0           0           0
           0           0           0           0
Number of primitives per shell             I   N=          52
           6           3           1           1           6           3
           1           1           6           3           1           1
           6           3           1           1           6           3
           1           1           6           3           1           1
           6           3           1           1           3           1
           3           1           3           1           3           1
           3           1           3           1           3           1
           3           1           3           1           3           1
           3           1           3           1
Shell to atom map                          I   N=          52
           1           1           1           1           2           2
           2           2           3           3           3           3
           4           4           4           4           5           5
           5           5           6           6           6           6
           7           7           7           7           8           8
           9           9          10          10          11          11
          12          12          13          13          14          14
          15          15          16          16          17          17
          18          18          19          19
Primitive exponents                        R   N=         125
  5.48467166E+03  8.25234946E+02  1.88046958E+02  5.29645000E+01  1.68975704E+01
  5.79963534E+00  1.55396162E+01  3.59993359E+00  1.01376175E+00  2.70005823E-01
  8.00000000E-01  3.04752488E+03  4.57369518E+02  1.03948685E+02  2.92101553E+01
  9.28666296E+00  3.16392696E+00  7.86827235E+00  1.88128854E+00  5.44249258E-01
  1.68714478E-01  8.00000000E-01  3.04752488E+03  4.57369518E+02  1.03948685E+02
  2.92101553E+01  9.28666296E+00  3.16392696E+00  7.86827235E+00  1.88128854E+00
  5.44249258E-01  1.68714478E-01  8.00000000E-01  3.04752488E+03  4.57369518E+02
  1.03948685E+02  2.92101553E+01  9.28666296E+00  3.16392696E+00  7.86827235E+00
  1.88128854E+00  5.44249258E-01  1.68714478E-01  8.00000000E-01  3.04752488E+03
  4.57369518E+02  1.03948685E+02  2.92101553E+01  9.28666296E+00  3.16392696E+00
  7.86827235E+00  1.88128854E+00  5.44249258E-01  1.68714478E-01  8.00000000E-01
  3.04752488E+03  4.57369518E+02  1.03948685E+02  2.92101553E+01  9.28666296E+00
  3.16392696E+00  7.86827235E+00  1.88128854E+00  5.44249258E-01  1.68714478E-01
  8.00000000E-01  3.04752488E+03  4.57369518E+02  1.03948685E+02  2.92101553E+01
  9.28666296E+00  3.16392696E+00  7.86827235E+00  1.88128854E+00  5.44249258E-01
  1.68714478E-01  8.00000000E-01  1.87311370E+01  2.82539436E+00  6.40121692E-01
  1.61277759E-01  1.87311370E+01  2.82539436E+00  6.40121692E-01  1.61277759E-01
  1.87311370E+01  2.82539436E+00  6.40121692E-01  1.61277759E-01  1.87311370E+01
  2.82539436E+00  6.40121692E-01  1.61277759E-01  1.87311370E+01  2.82539436E+00
  6.40121692E-01  1.61277759E-01  1.87311370E+01  2.82539436E+00  6.40121692E-01
  1.61277759E-01  1.87311370E+01  2.82539436E+00  6.40121692E-01  1.61277759E-01
  1.87311370E+01  2.82539436E+00  6.40121692E-01  1.61277759E-01  1.87311370E+01
  2.82539436E+00  6.40121692E-01  1.61277759E-01  1.87311370E+01  2.82539436E+00
  6.40121692E-01  1.61277759E-01  1.87311370E+01  2.82539436E+00  6.40121692E-01
  1.61277759E-01  1.87311370E+01  2.82539436E+00  6.40121692E-01  1.61277759E-01
Contraction coefficients                   R   N=         125
  1.83107443E-03  1.39501722E-02  6.84450781E-02  2.32714336E-01  4.70192898E-01
  3.58520853E-01 -1.10777550E-01 -1.48026263E-01  1.13076702E+00  1.00000000E+00
  1.00000000E+00  1.83473713E-03  1.40373228E-02  6.88426223E-02  2.32184443E-01
  4.67941348E-01  3.62311985E-01 -1.19332420E-01 -1.60854152E-01  1.14345644E+00
  1.00000000E+00  1.00000000E+00  1.83473713E-03  1.40373228E-02  6.88426223E-02
  2.32184443E-01  4.67941348E-01  3.62311985E-01 -1.19332420E-01 -1.60854152E-01
  1.14345644E+00  1.00000000E+00  1.00000000E+00  1.83473713E-03  1.40373228E-02
  6.88426223E-02  2.32184443E-01  4.67941348E-01  3.62311985E-01 -1.19332420E-01
 -1.60854152E-01  1.14345644E+00  1.00000000E+00  1.00000000E+00  1.83473713E-03
  1.40373228E-02  6.88426223E-02  2.32184443E-01  4.67941348E-01  3.62311985E-01
 -1.19332420E-01 -1.60854152E-01  1.14345644E+00  1.00000000E+00  1.00000000E+00
  1.83473713E-03  1.40373228E-02  6.88426223E-02  2.32184443E-01  4.67941348E-01
  3.62311985E-01 -1.19332420E-01 -1.60854152E-01  1.14345644E+00  1.00000000E+00
  1.00000000E+00  1.83473713E-03  1.40373228E-02  6.88426223E-02  2.32184443E-01
  4.67941348E-01  3.62311985E-01 -1.19332420E-01 -1.60854152E-01  1.14345644E+00
  1.00000000E+00  1.00000000E+00  3.34946043E-02  2.34726953E-01  8.13757326E-01
  1.00000000E+00  3.34946043E-02  2.34726953E-01  8.13757326E-01  1.00000000E+00
  3.34946043E-02  2.34726953E-01  8.13757326E-01  1.00000000E+00  3.34946043E-02
  2.34726953E-01  8.13757326E-01  1.00000000E+00  3.34946043E-02  2.34726953E-01
  8.13757326E-01  1.00000000E+00  3.34946043E-02  2.34726953E-01  8.13757326E-01
  1.00000000E+00  3.34946043E-02  2.34726953E-01  8.13757326E-01  1.00000000E+00
  3.34946043E-02  2.34726953E-01  8.13757326E-01  1.00000000E+00  3.34946043E-02
  2.34726953E-01  8.13757326E-01  1.00000000E+00  3.34946043E-02  2.34726953E-01
  8.13757326E-01  1.00000000E+00  3.34946043E-02  2.34726953E-01  8.13757326E-01
  1.00000000E+00  3.34946043E-02  2.34726953E-01  8.13757326E-01  1.00000000E+00
P(S=P) Contraction coefficients            R   N=         125
  0.00000000E+00  0.00000000E+00  0.00000000E+00  0.00000000E+00  0.00000000E+00
  0.00000000E+00  7.08742682E-02  3.39752839E-01  7.27158577E-01  1.00000000E+00
  0.00000000E+00  0.00000000E+00  0.00000000E+00  0.00000000E+00  0.00000000E+00
  0.00000000E+00  0.00000000E+00  6.89990666E-02  3.16423961E-01  7.44308291E-01
  1.00000000E+00  0.00000000E+00  0.00000000E+00  0.00000000E+00  0.00000000E+00
  0.00000000E+00  0.00000000E+00  0.00000000E+00  6.89990666E-02  3.16423961E-01
  7.44308291E-01  1.00000000E+00  0.00000000E+00  0.00000000E+00  0.00000000E+00
  0.00000000E+00  0.00000000E+00  0.00000000E+00  0.00000000E+00  6.89990666E-02
  3.16423961E-01  7.44308291E-01  1.00000000E+00  0.00000000E+00  0.00000000E+00
  0.00000000E+00  0.00000000E+00  0.00000000E+00  0.00000000E+00  0.00000000E+00
  6.89990666E-02  3.16423961E-01  7.44308291E-01  1.00000000E+00  0.00000000E+00
  0.00000000E+00  0.00000000E+00  0.00000000E+00  0.00000000E+00  0.00000000E+00
  0.00000000E+00  6.89990666E-02  3.16423961E-01  7.44308291E-01  1.00000000E+00
  0.00000000E+00  0.00000000E+00  0.00000000E+00  0.00000000E+00  0.00000000E+00
  0.00000000E+00  0.00000000E+00  6.89990666E-02  3.16423961E-01  7.44308291E-01
  1.00000000E+00  0.00000000E+00  0.00000000E+00  0.00000000E+00  0.00000000E+00
  0.00000000E+00  0.00000000E+00  0.00000000E+00  0.00000000E+00  0.00000000E+00
  0.00000000E+00  0.00000000E+00  0.00000000E+00  0.00000000E+00  0.00000000E+00
  0.00000000E+00  0.00000000E+00  0.00000000E+00  0.00000000E+00  0.00000000E+00
  0.00000000E+00  0.00000000E+00  0.00000000E+00  0.00000000E+00  0.00000000E+00
  0.00000000E+00  0.00000000E+00  0.00000000E+00  0.00000000E+00  0.00000000E+00
  0.00000000E+00  0.00000000E+00  0.00000000E+00  0.00000000E+00  0.00000000E+00
  0.00000000E+00  0.00000000E+00  0.00000000E+00  0.00000000E+00  0.00000000E+00
  0.00000000E+00  0.00000000E+00  0.00000000E+00  0.00000000E+00  0.00000000E+00
  0.00000000E+00  0.00000000E+00  0.00000000E+00  0.00000000E+00  0.00000000E+00
Coordinates of each shell                  R   N=         156
 -4.84822588E+00 -8.61678461E-01 -5.16319629E-02 -4.84822588E+00 -8.61678461E-01
 -5.16319629E-02 -4.84822588E+00 -8.61678461E-01 -5.16319629E-02 -4.84822588E+00
 -8.61678461E-01 -5.16319629E-02 -6.08405438E-01  3.80742926E-01 -8.36126576E-01
 -6.08405438E-01  3.80742926E-01 -8.36126576E-01 -6.08405438E-01  3.80742926E-01
 -8.36126576E-01 -6.08405438E-01  3.80742926E-01 -8.36126576E-01  1.51399071E+00
  2.36016950E+00 -3.96734705E-01  1.51399071E+00  2.36016950E+00 -3.96734705E-01
  1.51399071E+00  2.36016950E+00 -3.96734705E-01  1.51399071E+00  2.36016950E+00
 -3.96734705E-01  4.68893817E-01 -2.13538475E+00  1.39615958E-01  4.68893817E-01
 -2.13538475E+00  1.39615958E-01  4.68893817E-01 -2.13538475E+00  1.39615958E-01
  4.68893817E-01 -2.13538475E+00  1.39615958E-01  3.78185624E+00  8.75773263E-01
  6.72749010E-01  3.78185624E+00  8.75773263E-01  6.72749010E-01  3.78185624E+00
  8.75773263E-01  6.72749010E-01  3.78185624E+00  8.75773263E-01  6.72749010E-01
  3.32210562E+00 -1.84134584E+00 -2.03996794E-01  3.32210562E+00 -1.84134584E+00
 -2.03996794E-01  3.32210562E+00 -1.84134584E+00 -2.03996794E-01  3.32210562E+00
 -1.84134584E+00 -2.03996794E-01 -3.06772696E+00  1.10950453E+00  4.30597843E-01
 -3.06772696E+00  1.10950453E+00  4.30597843E-01 -3.06772696E+00  1.10950453E+00
  4.30597843E-01 -3.06772696E+00  1.10950453E+00  4.30597843E-01 -9.87935918E-01
  1.99900759E-01 -2.86586683E+00 -9.87935918E-01  1.99900759E-01 -2.86586683E+00
  9.08948726E-01  3.86416911E+00  8.94590161E-01  9.08948726E-01  3.86416911E+00
  8.94590161E-01  2.01689895E+00  3.28128515E+00 -2.17948423E+00  2.01689895E+00
  3.28128515E+00 -2.17948423E+00 -3.40502977E-01 -3.76687459E+00 -8.35008174E-01
 -3.40502977E-01 -3.76687459E+00 -8.35008174E-01  3.03062003E-02 -2.34530184E+00
  2.15750084E+00  3.03062003E-02 -2.34530184E+00  2.15750084E+00  3.75448696E+00
  9.33560824E-01  2.74375018E+00  3.75448696E+00  9.33560824E-01  2.74375018E+00
  5.60180898E+00  1.64759949E+00  6.31219468E-02  5.60180898E+00  1.64759949E+00
  6.31219468E-02  3.81619902E+00 -2.03454090E+00 -2.20865706E+00  3.81619902E+00
 -2.03454090E+00 -2.20865706E+00  4.42789509E+00 -3.23770476E+00  8.49449723E-01
  4.42789509E+00 -3.23770476E+00  8.49449723E-01 -3.74936221E+00  2.93045879E+00
 -3.09639574E-01 -3.74936221E+00  2.93045879E+00 -3.09639574E-01 -2.73994323E+00
  1.34025709E+00  2.47436745E+00 -2.73994323E+00  1.34025709E+00  2.47436745E+00
 -6.41727646E+00 -4.16139252E-01  7.92302842E-01 -6.41727646E+00 -4.16139252E-01
  7.92302842E-01
Constraint Structure                       R   N=          57
 -4.84822588E+00 -8.61678461E-01 -5.16319629E-02 -6.08405438E-01  3.80742926E-01
 -8.36126576E-01  1.51399071E+00  2.36016950E+00 -3.96734705E-01  4.68893817E-01
 -2.13538475E+00  1.39615958E-01  3.78185624E+00  8.75773263E-01  6.72749010E-01
  3.32210562E+00 -1.84134584E+00 -2.03996794E-01 -3.06772696E+00  1.10950453E+00
  4.30597843E-01 -9.87935918E-01  1.99900759E-01 -2.86586683E+00  9.08948726E-01
  3.86416911E+00  8.94590161E-01  2.01689895E+00  3.28128515E+00 -2.17948423E+00
 -3.40502977E-01 -3.76687459E+00 -8.35008174E-01  3.03062003E-02 -2.34530184E+00
  2.15750084E+00  3.75448696E+00  9.33560824E-01  2.74375018E+00  5.60180898E+00
  1.64759949E+00  6.31219468E-02  3.81619902E+00 -2.03454090E+00 -2.20865706E+00
  4.42789509E+00 -3.23770476E+00  8.49449723E-01 -3.74936221E+00  2.93045879E+00
 -3.09639574E-01 -2.73994323E+00  1.34025709E+00  2.47436745E+00 -6.41727646E+00
 -4.16139252E-01  7.92302842E-01
Num ILSW                                   I              100
ILSW                                       I   N=         100
           0           1           0           0           2           0
           0           0           0           0           0          -1
           0           0           0           0           0           0
           0           0           0           0           1           0
           1           0           0           0           0           0
           0           0      100000           0          -1           0
           0           0           0           0           0           0
           0           0           0           1           1           0
           0           0           1           0           0           0
           0           0           4          40           0           0
           0           0           0           0           0           0
           0           0           0           0           0           0
           0           0           0           0           0           0
           0           0           0           0           0           0
           0           0           0           0           0           0
           0           0           0           0           0           0
           0           0           0           0
Num RLSW                                   I               40
RLSW                                       R   N=          40
  1.00000000E+00  1.00000000E+00  1.00000000E+00  1.00000000E+00  1.00000000E+00
  0.00000000E+00  0.00000000E+00  1.00000000E+00  0.00000000E+00  0.00000000E+00
  0.00000000E+00  0.00000000E+00  1.00000000E+00  0.00000000E+00  0.00000000E+00
  0.00000000E+00  0.00000000E+00  1.00000000E+00  0.00000000E+00  0.00000000E+00
  0.00000000E+00  0.00000000E+00  1.00000000E+00  0.00000000E+00  0.00000000E+00
  0.00000000E+00  0.00000000E+00  1.00000000E+00  0.00000000E+00  0.00000000E+00
  0.00000000E+00  0.00000000E+00  0.00000000E+00  0.00000000E+00  0.00000000E+00
  0.00000000E+00  0.00000000E+00  0.00000000E+00  1.00000000E+00  1.00000000E+00
MxBond                                     I                4
NBond                                      I   N=          19
           2           4           4           4           4           4
           4           1           1           1           1           1
           1           1           1           1           1           1
           1
IBond                                      I   N=          76
           7          19           0           0           3           4
           7           8           2           5           9          10
           2           6          11          12           3           6
          13          14           4           5          15          16
           1           2          17          18           2           0
           0           0           3           0           0           0
           3           0           0           0           4           0
           0           0           4           0           0           0
           5           0           0           0           5           0
           0           0           6           0           0           0
           6           0           0           0           7           0
           0           0           7           0           0           0
           1           0           0           0
RBond                                      R   N=          76
  1.00000000E+00  1.00000000E+00  0.00000000E+00  0.00000000E+00  1.00000000E+00
  1.00000000E+00  1.00000000E+00  1.00000000E+00  1.00000000E+00  1.00000000E+00
  1.00000000E+00  1.00000000E+00  1.00000000E+00  1.00000000E+00  1.00000000E+00
  1.00000000E+00  1.00000000E+00  1.00000000E+00  1.00000000E+00  1.00000000E+00
  1.00000000E+00  1.00000000E+00  1.00000000E+00  1.00000000E+00  1.00000000E+00
  1.00000000E+00  1.00000000E+00  1.00000000E+00  1.00000000E+00  0.00000000E+00
  0.00000000E+00  0.00000000E+00  1.00000000E+00  0.00000000E+00  0.00000000E+00
  0.00000000E+00  1.00000000E+00  0.00000000E+00  0.00000000E+00  0.00000000E+00
  1.00000000E+00  0.00000000E+00  0.00000000E+00  0.00000000E+00  1.00000000E+00
  0.00000000E+00  0.00000000E+00  0.00000000E+00  1.00000000E+00  0.00000000E+00
  0.00000000E+00  0.00000000E+00  1.00000000E+00  0.00000000E+00  0.00000000E+00
  0.00000000E+00  1.00000000E+00  0.00000000E+00  0.00000000E+00  0.00000000E+00
  1.00000000E+00  0.00000000E+00  0.00000000E+00  0.00000000E+00  1.00000000E+00
  0.00000000E+00  0.00000000E+00  0.00000000E+00  1.00000000E+00  0.00000000E+00
  0.00000000E+00  0.00000000E+00  1.00000000E+00  0.00000000E+00  0.00000000E+00
  0.00000000E+00
Virial Ratio                               R      2.001498358592040E+00
SCF Energy                                 R     -3.090441540528433E+02
MP2 Energy                                 R     -3.100075985604483E+02
Total Energy                               R     -3.100075985604483E+02
Post-SCF wavefunction norm                 R      1.618555413219529E+00
RMS Force                                  R      2.969757776032012E-08
RMS Density                                R      9.158165386212715E-10
External E-field                           R   N=          35
  0.00000000E+00  0.00000000E+00  0.00000000E+00  0.00000000E+00  0.00000000E+00
  0.00000000E+00  0.00000000E+00  0.00000000E+00  0.00000000E+00  0.00000000E+00
  0.00000000E+00  0.00000000E+00  0.00000000E+00  0.00000000E+00  0.00000000E+00
  0.00000000E+00  0.00000000E+00  0.00000000E+00  0.00000000E+00  0.00000000E+00
  0.00000000E+00  0.00000000E+00  0.00000000E+00  0.00000000E+00  0.00000000E+00
  0.00000000E+00  0.00000000E+00  0.00000000E+00  0.00000000E+00  0.00000000E+00
  0.00000000E+00  0.00000000E+00  0.00000000E+00  0.00000000E+00  0.00000000E+00
IOpCl                                      I                0
IROHF                                      I                0
Alpha Orbital Energies                     R   N=         129
 -2.05567284E+01 -1.12709616E+01 -1.12164429E+01 -1.12157069E+01 -1.12138142E+01
 -1.12108083E+01 -1.12065781E+01 -1.34681371E+00 -1.12157922E+00 -9.96328735E-01
 -9.56021659E-01 -8.72445917E-01 -7.77369697E-01 -7.53123152E-01 -6.83558990E-01
 -6.48277751E-01 -6.33718069E-01 -6.17185723E-01 -5.68192856E-01 -5.58885140E-01
 -5.19025807E-01 -4.73819461E-01 -4.68393515E-01 -4.60767381E-01 -4.57922635E-01
 -4.55730703E-01 -4.47179827E-01 -4.28713865E-01  2.23564822E-01  2.29056103E-01
  2.45030692E-01  2.75488504E-01  2.99470520E-01  3.03326220E-01  3.27563208E-01
  3.36046137E-01  3.36964901E-01  3.49543501E-01  3.54436560E-01  3.71986324E-01
  3.78072103E-01  3.83027959E-01  4.10686721E-01  4.57010309E-01  4.68991885E-01
  4.94276108E-01  5.07158872E-01  7.21397018E-01  7.44374768E-01  7.49049419E-01
  7.80621771E-01  7.93125125E-01  8.10378209E-01  8.40288198E-01  8.91671704E-01
  9.34917280E-01  9.40133184E-01  9.42499547E-01  9.59707310E-01  9.66333927E-01
  1.03301742E+00  1.04924339E+00  1.08385200E+00  1.10264363E+00  1.12292562E+00
  1.13352178E+00  1.13962857E+00  1.14400523E+00  1.16102663E+00  1.16603062E+00
  1.18649846E+00  1.19963529E+00  1.20935702E+00  1.22251022E+00  1.23801407E+00
  1.24690662E+00  1.27735684E+00  1.28012338E+00  1.33404831E+00  1.42910224E+00
  1.45077989E+00  1.58188268E+00  1.60916174E+00  1.62639403E+00  1.65044914E+00
  1.80680498E+00  1.87616036E+00  1.90667375E+00  1.91060189E+00  2.00819220E+00
  2.04227523E+00  2.05317736E+00  2.11444988E+00  2.14942073E+00  2.16036830E+00
  2.22142712E+00  2.23639615E+00  2.26326702E+00  2.31636295E+00  2.34305701E+00
  2.36474779E+00  2.37561738E+00  2.39132949E+00  2.40448873E+00  2.45096602E+00
  2.50372491E+00  2.55172850E+00  2.58566819E+00  2.69947768E+00  2.72662039E+00
  2.73614342E+00  2.76811924E+00  2.79061230E+00  2.81918333E+00  2.87209034E+00
  2.90726211E+00  2.95670376E+00  3.00125926E+00  3.03654600E+00  3.11372773E+00
  3.23393449E+00  3.26081215E+00  4.19548612E+00  4.59610666E+00  4.68850340E+00
  4.71291668E+00  4.83818260E+00  4.99773923E+00  5.13237766E+00
Alpha MO coefficients                      R   N=       16641
  9.94658993E-01  2.11551673E-02 -2.93850151E-04  1.04620394E-03  7.12335724E-04
  3.81291993E-03  1.67909072E-04 -5.61142674E-04 -3.78003955E-04 -4.15446353E-03
 -4.05889082E-03 -3.92944635E-03 -1.09992661E-04  6.84007554E-05 -9.99492432E-05
 -6.08516839E-06  1.83858324E-05 -1.35259590E-05 -2.58816577E-05 -1.31178064E-05
  3.21579638E-04  3.15687591E-04  2.13237667E-04  1.36932961E-04 -6.64413141E-05
 -4.83340973E-06 -2.90725670E-05 -7.46702521E-06  1.49944218E-05  4.68079181E-06
  8.29234351E-06  4.70644099E-05  1.09669213E-05  1.00893527E-05  2.52462499E-06
 -4.98170957E-04  6.30045729E-05  1.56028492E-04 -2.78839786E-05  8.20446186E-07
  3.76319775E-06  1.15066469E-05 -3.49404423E-06 -9.88727873E-07  5.50009694E-06
  3.03831451E-06 -2.95332025E-06 -4.72768576E-05  9.56573612E-06  1.70906870E-05
  1.51708868E-04  2.89710461E-04 -9.98152478E-05 -1.54734738E-04  4.49222963E-05
 -1.08458375E-05  3.56965237E-06  4.13113822E-06  9.59980079E-07 -2.29313494E-06
 -3.75197033E-06 -1.95030399E-05 -3.93743397E-06 -1.21496313E-06 -2.86976258E-06
  2.25368938E-04 -9.67453653E-05 -1.26063855E-05 -4.40012743E-05 -3.82423870E-06
 -3.54834428E-06 -1.20439050E-07 -2.35855837E-06  5.04597678E-06  2.39327909E-07
  1.21949359E-05  6.35311840E-05  4.58501118E-06 -1.69376371E-06 -3.05993204E-06
 -4.65086595E-04  1.93067052E-04 -1.99577804E-05  1.95043223E-05 -9.02963901E-06
  1.60079875E-05  2.07172073E-05 -2.67396019E-06  1.81643995E-07 -1.00632889E-06
 -2.95885921E-05  1.84766448E-04 -2.22397370E-04 -2.49199890E-04 -7.64253871E-05
  2.67537046E-04 -1.26275344E-04 -5.84699274E-07  9.91764750E-05  3.81466052E-06
 -4.35829086E-06 -6.49427130E-05  7.16314471E-05  6.94282530E-06  2.11850278E-05
  4.27461377E-05 -4.56178436E-06  1.23029462E-05  2.97839354E-05  1.34814707E-05
 -1.20477973E-06  3.56516731E-05 -1.12387078E-04  3.50344337E-05  6.73746739E-05
 -1.15578636E-05  7.39195620E-06 -9.75554454E-07 -8.15840860E-06  1.93234187E-05
  3.36516832E-05  1.16433514E-05 -7.02189985E-06 -3.72532206E-05 -5.96159287E-05
 -4.72323971E-05 -1.07769697E-04  4.32889514E-04 -2.11647883E-04 -1.61072559E-04
  5.40916462E-05  7.82194522E-05  8.66948849E-05  3.09597400E-05  1.96434819E-03
  9.17808101E-05 -3.85889114E-06 -3.25649181E-05 -4.00093974E-04 -4.76154543E-04
 -1.34926163E-06 -4.68472895E-04 -8.68839173E-05 -1.56966209E-04  5.78253926E-03
  2.98899878E-04 -6.70488684E-05  5.71901009E-07  9.53530281E-06  2.94005169E-03
 -2.32520579E-03  7.77064165E-04  7.74562155E-04 -3.09994956E-04 -1.72981419E-04
 -1.44867186E-04  4.05591372E-05  9.41595507E-05 -2.11747798E-06 -1.21182306E-04
 -2.71862827E-04  9.36505101E-05  1.24746204E-05 -2.99428965E-05  1.34816246E-03
 -7.96305778E-05 -5.26959753E-04  3.10391932E-04 -2.23158859E-05 -3.91260079E-05
 -9.83652227E-05 -5.95923159E-06 -2.95810595E-05  3.87845914E-05 -1.31512013E-04
 -2.40827179E-04  8.43736268E-05 -6.29042744E-05 -2.81144836E-05  4.95992897E-04
 -8.32342645E-04  3.80873108E-04  1.13834570E-04 -9.85493763E-05 -4.40165531E-05
 -6.01804542E-05 -6.88505370E-05 -3.75288076E-05 -2.04696781E-05  5.94571711E-05
  1.49033233E-04 -5.83718370E-05 -4.27247208E-06  4.76990207E-05 -1.06787984E-03