
    -----------------------------------------------------------------------
          Psi4: An Open-Source Ab Initio Electronic Structure Package
                               Psi4 1.3.2 release

                         Git: Rev {HEAD} ecbda83 


    R. M. Parrish, L. A. Burns, D. G. A. Smith, A. C. Simmonett,
    A. E. DePrince III, E. G. Hohenstein, U. Bozkaya, A. Yu. Sokolov,
    R. Di Remigio, R. M. Richard, J. F. Gonthier, A. M. James,
    H. R. McAlexander, A. Kumar, M. Saitow, X. Wang, B. P. Pritchard,
    P. Verma, H. F. Schaefer III, K. Patkowski, R. A. King, E. F. Valeev,
    F. A. Evangelista, J. M. Turney, T. D. Crawford, and C. D. Sherrill,
    J. Chem. Theory Comput. 13(7) pp 3185--3197 (2017).
    (doi: 10.1021/acs.jctc.7b00174)


                         Additional Contributions by
    P. Kraus, H. Kruse, M. H. Lechner, M. C. Schieber, R. A. Shaw,
    A. Alenaizan, R. Galvelis, Z. L. Glick, S. Lehtola, and J. P. Misiewicz

    -----------------------------------------------------------------------


    Psi4 started on: Tuesday, 03 November 2020 12:01PM

    Process ID: 117248
    Host:       node58.bme.utexas.edu
    PSIDATADIR: /home/xy3866/psi4conda/share/psi4
    Memory:     500.0 MiB
    Threads:    8
    
  ==> Input File <==

--------------------------------------------------------------------------
#psi4
#
memory 32 gb

molecule  {
0 1
  O        1.2290155    -1.3738277     0.7818022
  O       -2.8493200    -0.0743410    -0.2921690
  O       -1.2471260     1.2289340     0.6316900
  C        1.6098530     0.5514350    -0.6010430
  C        0.7924890    -0.5949300    -0.0578730
  C       -0.6137295    -0.7554192    -0.6185663
  C        2.9660570     0.6794250     0.0724790
  C       -1.5616300     0.2444870    -0.0131750
  H        1.7167540     0.3993790    -1.6843760
  H        1.0152770     1.4637510    -0.4819620
  H       -0.6366420    -0.6467360    -1.7011060
  H       -0.9720840    -1.7722110    -0.3761960
  H        3.5474250    -0.2360290    -0.0491480
  H        3.5302360     1.5116820    -0.3550310
  H        2.8465530     0.8548240     1.1430380
  H       -3.3901630     0.6286630     0.1252190
units angstrom
no_reorient  #important for SAPT in psi4, default
symmetry c1  #important for SAPT in psi4, default
}

set PROPERTIES_ORIGIN ["COM"]
properties('MP2/aug-cc-pvtz', properties = ['dipole'])
--------------------------------------------------------------------------

  Memory set to  29.802 GiB by Python driver.
    SCF Algorithm Type (re)set to DF.

*** tstart() called on node58.bme.utexas.edu
*** at Tue Nov  3 12:01:03 2020

   => Loading Basis Set <=

    Name: AUG-CC-PVTZ
    Role: ORBITAL
    Keyword: BASIS
    atoms 1-3  entry O          line   327 file /home/xy3866/psi4conda/share/psi4/basis/aug-cc-pvtz.gbs 
    atoms 4-8  entry C          line   235 file /home/xy3866/psi4conda/share/psi4/basis/aug-cc-pvtz.gbs 
    atoms 9-16 entry H          line    36 file /home/xy3866/psi4conda/share/psi4/basis/aug-cc-pvtz.gbs 


         ---------------------------------------------------------
                                   SCF
               by Justin Turney, Rob Parrish, Andy Simmonett
                          and Daniel G. A. Smith
                              RHF Reference
                        8 Threads,  30517 MiB Core
         ---------------------------------------------------------

  ==> Geometry <==

    Molecular point group: c1
    Full point group: C1

    Geometry (in Angstrom), charge = 0, multiplicity = 1:

       Center              X                  Y                   Z               Mass       
    ------------   -----------------  -----------------  -----------------  -----------------
         O            1.227555380135    -1.375670890527     0.782566353090    15.994914619570
         O           -2.850780119865    -0.076184190527    -0.291404846910    15.994914619570
         O           -1.248586119865     1.227090809473     0.632454153090    15.994914619570
         C            1.608392880135     0.549591809473    -0.600278846910    12.000000000000
         C            0.791028880135    -0.596773190527    -0.057108846910    12.000000000000
         C           -0.615189619865    -0.757262390527    -0.617802146910    12.000000000000
         C            2.964596880135     0.677581809473     0.073243153090    12.000000000000
         C           -1.563090119865     0.242643809473    -0.012410846910    12.000000000000
         H            1.715293880135     0.397535809473    -1.683611846910     1.007825032230
         H            1.013816880135     1.461907809473    -0.481197846910     1.007825032230
         H           -0.638102119865    -0.648579190527    -1.700341846910     1.007825032230
         H           -0.973544119865    -1.774054190527    -0.375431846910     1.007825032230
         H            3.545964880135    -0.237872190527    -0.048383846910     1.007825032230
         H            3.528775880135     1.509838809473    -0.354266846910     1.007825032230
         H            2.845092880135     0.852980809473     1.143802153090     1.007825032230
         H           -3.391623119865     0.626819809473     0.125983153090     1.007825032230

  Running in c1 symmetry.

  Rotational constants: A =      0.14231  B =      0.03817  C =      0.03424 [cm^-1]
  Rotational constants: A =   4266.43957  B =   1144.29976  C =   1026.35852 [MHz]
  Nuclear repulsion =  372.304414258946963

  Charge       = 0
  Multiplicity = 1
  Electrons    = 62
  Nalpha       = 31
  Nbeta        = 31

  ==> Algorithm <==

  SCF Algorithm Type is DF.
  DIIS enabled.
  MOM disabled.
  Fractional occupation disabled.
  Guess Type is SAD.
  Energy threshold   = 1.00e-10
  Density threshold  = 1.00e-10
  Integral threshold = 0.00e+00

  ==> Primary Basis <==

  Basis Set: AUG-CC-PVTZ
    Blend: AUG-CC-PVTZ
    Number of shells: 184
    Number of basis function: 552
    Number of Cartesian functions: 640
    Spherical Harmonics?: true
    Max angular momentum: 3

   => Loading Basis Set <=

    Name: (AUG-CC-PVTZ AUX)
    Role: JKFIT
    Keyword: DF_BASIS_SCF
    atoms 1-3  entry O          line   286 file /home/xy3866/psi4conda/share/psi4/basis/aug-cc-pvtz-jkfit.gbs 
    atoms 4-8  entry C          line   162 file /home/xy3866/psi4conda/share/psi4/basis/aug-cc-pvtz-jkfit.gbs 
    atoms 9-16 entry H          line    70 file /home/xy3866/psi4conda/share/psi4/basis/aug-cc-pvtz-jkfit.gbs 

  ==> Pre-Iterations <==

   -------------------------------------------------------
    Irrep   Nso     Nmo     Nalpha   Nbeta   Ndocc  Nsocc
   -------------------------------------------------------
     A        552     552       0       0       0       0
   -------------------------------------------------------
    Total     552     552      31      31      31       0
   -------------------------------------------------------

  ==> Integral Setup <==

  DFHelper Memory: AOs need 2.669 GiB; user supplied 22.352 GiB. Using in-core AOs.

  ==> MemDFJK: Density-Fitted J/K Matrices <==

    J tasked:                   Yes
    K tasked:                   Yes
    wK tasked:                   No
    OpenMP threads:               8
    Memory [MiB]:             22888
    Algorithm:                 Disk
    Schwarz Cutoff:           1E-12
    Mask sparsity (%):       5.3416
    Fitting Condition:        1E-10

   => Auxiliary Basis Set <=

  Basis Set: (AUG-CC-PVTZ AUX)
    Blend: AUG-CC-PVTZ-JKFIT
    Number of shells: 352
    Number of basis function: 1200
    Number of Cartesian functions: 1488
    Spherical Harmonics?: true
    Max angular momentum: 4

  Minimum eigenvalue in the overlap matrix is 6.7456032480E-06.
  Using Symmetric Orthogonalization.

  SCF Guess: Superposition of Atomic Densities via on-the-fly atomic UHF.

  ==> Iterations <==

                           Total Energy        Delta E     RMS |[F,P]|

   @DF-RHF iter SAD:  -417.55465435254450   -4.17555e+02   0.00000e+00 
   @DF-RHF iter   1:  -418.45668146181646   -9.02027e-01   1.44047e-03 DIIS
   @DF-RHF iter   2:  -418.67814085441233   -2.21459e-01   8.98284e-04 DIIS
   @DF-RHF iter   3:  -418.76083269127321   -8.26918e-02   1.68450e-04 DIIS
   @DF-RHF iter   4:  -418.76620647981468   -5.37379e-03   7.27932e-05 DIIS
   @DF-RHF iter   5:  -418.76731345412321   -1.10697e-03   1.60931e-05 DIIS
   @DF-RHF iter   6:  -418.76739793889595   -8.44848e-05   8.36852e-06 DIIS
   @DF-RHF iter   7:  -418.76741730297977   -1.93641e-05   3.00137e-06 DIIS
   @DF-RHF iter   8:  -418.76742111273859   -3.80976e-06   1.08106e-06 DIIS
   @DF-RHF iter   9:  -418.76742161371493   -5.00976e-07   3.40123e-07 DIIS
   @DF-RHF iter  10:  -418.76742164796315   -3.42482e-08   1.21160e-07 DIIS
   @DF-RHF iter  11:  -418.76742165115786   -3.19471e-09   4.15656e-08 DIIS
   @DF-RHF iter  12:  -418.76742165155730   -3.99439e-10   1.21959e-08 DIIS
   @DF-RHF iter  13:  -418.76742165162216   -6.48583e-11   4.27852e-09 DIIS
   @DF-RHF iter  14:  -418.76742165163517   -1.30171e-11   2.42203e-09 DIIS
   @DF-RHF iter  15:  -418.76742165163967   -4.49063e-12   1.00867e-09 DIIS
   @DF-RHF iter  16:  -418.76742165164035   -6.82121e-13   3.36060e-10 DIIS
   @DF-RHF iter  17:  -418.76742165164103   -6.82121e-13   1.06448e-10 DIIS
   @DF-RHF iter  18:  -418.76742165164092    1.13687e-13   4.09225e-11 DIIS
  Energy and wave function converged.


  ==> Post-Iterations <==

    Orbital Energies [Eh]
    ---------------------

    Doubly Occupied:                                                      

       1A    -20.633173     2A    -20.570507     3A    -20.557137  
       4A    -11.413612     5A    -11.344257     6A    -11.271877  
       7A    -11.240470     8A    -11.216613     9A     -1.479813  
      10A     -1.389098    11A     -1.376256    12A     -1.085777  
      13A     -1.041733    14A     -0.901739    15A     -0.839601  
      16A     -0.742877    17A     -0.720180    18A     -0.708075  
      19A     -0.681699    20A     -0.647595    21A     -0.632102  
      22A     -0.626406    23A     -0.598943    24A     -0.577041  
      25A     -0.525115    26A     -0.518269    27A     -0.514728  
      28A     -0.502976    29A     -0.490817    30A     -0.469173  
      31A     -0.424738  

    Virtual:                                                              

      32A      0.023431    33A      0.031565    34A      0.036834  
      35A      0.043409    36A      0.051907    37A      0.055864  
      38A      0.061617    39A      0.068197    40A      0.086616  
      41A      0.092910    42A      0.102827    43A      0.108167  
      44A      0.111837    45A      0.117043    46A      0.121654  
      47A      0.125332    48A      0.129483    49A      0.132756  
      50A      0.135531    51A      0.144015    52A      0.149016  
      53A      0.155100    54A      0.157685    55A      0.161509  
      56A      0.166058    57A      0.168956    58A      0.181587  
      59A      0.189774    60A      0.202464    61A      0.208944  
      62A      0.216417    63A      0.228522    64A      0.229620  
      65A      0.240281    66A      0.244662    67A      0.253856  
      68A      0.260314    69A      0.262638    70A      0.266383  
      71A      0.274795    72A      0.283454    73A      0.288730  
      74A      0.291830    75A      0.300500    76A      0.306249  
      77A      0.308598    78A      0.312911    79A      0.321572  
      80A      0.331108    81A      0.341860    82A      0.346120  
      83A      0.356946    84A      0.361706    85A      0.365747  
      86A      0.370330    87A      0.378574    88A      0.380463  
      89A      0.384170    90A      0.388366    91A      0.395594  
      92A      0.401135    93A      0.407207    94A      0.413596  
      95A      0.416129    96A      0.418323    97A      0.428046  
      98A      0.431473    99A      0.441828   100A      0.448227  
     101A      0.450372   102A      0.459539   103A      0.463504  
     104A      0.469189   105A      0.477341   106A      0.481450  
     107A      0.489651   108A      0.491096   109A      0.500064  
     110A      0.506285   111A      0.510035   112A      0.521067  
     113A      0.526463   114A      0.529057   115A      0.532898  
     116A      0.539941   117A      0.555172   118A      0.556999  
     119A      0.561215   120A      0.569881   121A      0.574244  
     122A      0.581764   123A      0.595917   124A      0.597871  
     125A      0.614498   126A      0.622169   127A      0.634409  
     128A      0.634886   129A      0.645460   130A      0.649645  
     131A      0.653214   132A      0.668152   133A      0.686053  
     134A      0.691858   135A      0.710188   136A      0.715909  
     137A      0.730143   138A      0.741024   139A      0.750258  
     140A      0.771490   141A      0.775761   142A      0.793032  
     143A      0.796100   144A      0.802693   145A      0.812856  
     146A      0.814748   147A      0.816693   148A      0.829421  
     149A      0.833092   150A      0.845530   151A      0.849777  
     152A      0.850941   153A      0.861583   154A      0.866465  
     155A      0.873693   156A      0.883978   157A      0.889180  
     158A      0.892767   159A      0.902204   160A      0.908807  
     161A      0.916189   162A      0.924635   163A      0.933191  
     164A      0.933997   165A      0.937783   166A      0.949925  
     167A      0.955756   168A      0.965484   169A      0.969568  
     170A      0.972823   171A      0.979022   172A      0.986006  
     173A      1.001384   174A      1.007173   175A      1.014267  
     176A      1.024601   177A      1.030316   178A      1.034904  
     179A      1.045266   180A      1.051347   181A      1.062146  
     182A      1.069724   183A      1.072473   184A      1.084343  
     185A      1.091774   186A      1.099981   187A      1.106171  
     188A      1.108372   189A      1.119270   190A      1.121942  
     191A      1.136001   192A      1.139293   193A      1.150478  
     194A      1.164345   195A      1.165998   196A      1.170434  
     197A      1.187315   198A      1.199374   199A      1.204268  
     200A      1.207962   201A      1.216363   202A      1.225822  
     203A      1.229431   204A      1.241449   205A      1.255012  
     206A      1.260019   207A      1.269424   208A      1.283645  
     209A      1.294679   210A      1.309839   211A      1.313937  
     212A      1.319030   213A      1.332999   214A      1.344098  
     215A      1.354622   216A      1.361061   217A      1.374295  
     218A      1.381295   219A      1.387712   220A      1.405533  
     221A      1.414267   222A      1.422410   223A      1.439270  
     224A      1.449087   225A      1.451070   226A      1.466375  
     227A      1.481834   228A      1.489581   229A      1.499202  
     230A      1.516107   231A      1.524915   232A      1.537074  
     233A      1.544607   234A      1.558354   235A      1.560122  
     236A      1.581446   237A      1.590134   238A      1.598410  
     239A      1.606886   240A      1.617328   241A      1.625081  
     242A      1.630176   243A      1.634054   244A      1.656781  
     245A      1.663312   246A      1.668295   247A      1.679248  
     248A      1.687484   249A      1.697330   250A      1.709377  
     251A      1.715516   252A      1.718869   253A      1.727667  
     254A      1.736494   255A      1.744072   256A      1.750173  
     257A      1.760348   258A      1.779732   259A      1.802855  
     260A      1.807321   261A      1.818785   262A      1.821827  
     263A      1.833964   264A      1.845507   265A      1.868667  
     266A      1.877530   267A      1.888290   268A      1.905090  
     269A      1.909473   270A      1.913133   271A      1.935881  
     272A      1.935938   273A      1.952706   274A      1.958654  
     275A      1.970683   276A      1.977790   277A      1.986249  
     278A      2.005813   279A      2.020969   280A      2.038738  
     281A      2.041480   282A      2.057592   283A      2.063206  
     284A      2.088490   285A      2.105806   286A      2.122654  
     287A      2.130576   288A      2.153415   289A      2.171347  
     290A      2.182845   291A      2.211700   292A      2.225039  
     293A      2.246310   294A      2.248861   295A      2.268624  
     296A      2.270884   297A      2.290943   298A      2.303453  
     299A      2.311077   300A      2.336459   301A      2.348796  
     302A      2.353521   303A      2.362382   304A      2.393419  
     305A      2.399020   306A      2.419087   307A      2.425666  
     308A      2.445164   309A      2.473938   310A      2.495472  
     311A      2.509322   312A      2.515520   313A      2.519946  
     314A      2.541246   315A      2.574781   316A      2.586946  
     317A      2.590875   318A      2.606824   319A      2.623903  
     320A      2.642281   321A      2.651919   322A      2.670296  
     323A      2.677072   324A      2.695238   325A      2.719583  
     326A      2.741663   327A      2.757971   328A      2.778696  
     329A      2.784229   330A      2.804255   331A      2.836033  
     332A      2.841014   333A      2.855936   334A      2.885410  
     335A      2.901784   336A      2.920300   337A      2.974349  
     338A      2.985521   339A      3.002734   340A      3.023689  
     341A      3.049864   342A      3.073442   343A      3.095993  
     344A      3.100103   345A      3.118391   346A      3.155301  
     347A      3.168900   348A      3.186080   349A      3.216097  
     350A      3.272424   351A      3.327136   352A      3.344432  
     353A      3.354768   354A      3.375808   355A      3.389082  
     356A      3.413975   357A      3.431429   358A      3.437871  
     359A      3.471284   360A      3.486045   361A      3.500614  
     362A      3.515078   363A      3.535432   364A      3.559131  
     365A      3.570155   366A      3.575674   367A      3.606244  
     368A      3.617029   369A      3.643327   370A      3.649519  
     371A      3.666023   372A      3.677085   373A      3.706352  
     374A      3.717122   375A      3.727935   376A      3.745533  
     377A      3.753052   378A      3.767277   379A      3.774488  
     380A      3.800561   381A      3.804111   382A      3.815181  
     383A      3.818803   384A      3.855642   385A      3.870412  
     386A      3.880549   387A      3.917613   388A      3.930499  
     389A      3.939835   390A      3.953701   391A      3.965535  
     392A      3.971408   393A      3.989681   394A      4.004479  
     395A      4.030202   396A      4.041459   397A      4.044834  
     398A      4.061236   399A      4.074862   400A      4.091289  
     401A      4.099353   402A      4.118228   403A      4.132987  
     404A      4.161172   405A      4.170717   406A      4.184891  
     407A      4.195846   408A      4.218497   409A      4.236084  
     410A      4.248142   411A      4.258846   412A      4.282489  
     413A      4.293674   414A      4.315799   415A      4.327239  
     416A      4.340307   417A      4.355148   418A      4.359363  
     419A      4.387444   420A      4.404016   421A      4.418592  
     422A      4.441391   423A      4.456891   424A      4.486912  
     425A      4.495767   426A      4.513464   427A      4.523663  
     428A      4.531306   429A      4.550663   430A      4.583472  
     431A      4.594329   432A      4.617212   433A      4.633409  
     434A      4.652729   435A      4.669762   436A      4.675938  
     437A      4.715375   438A      4.732133   439A      4.744632  
     440A      4.777449   441A      4.784465   442A      4.817286  
     443A      4.834286   444A      4.847037   445A      4.865937  
     446A      4.870399   447A      4.882740   448A      4.906965  
     449A      4.918513   450A      4.954838   451A      4.969381  
     452A      5.025432   453A      5.035197   454A      5.054707  
     455A      5.072978   456A      5.090570   457A      5.111561  
     458A      5.131119   459A      5.176615   460A      5.185050  
     461A      5.208285   462A      5.227894   463A      5.238357  
     464A      5.248653   465A      5.257777   466A      5.273754  
     467A      5.322855   468A      5.332542   469A      5.391078  
     470A      5.399384   471A      5.416657   472A      5.427567  
     473A      5.436860   474A      5.453169   475A      5.456899  
     476A      5.496993   477A      5.529726   478A      5.554000  
     479A      5.563898   480A      5.580001   481A      5.614667  
     482A      5.625860   483A      5.681011   484A      5.719149  
     485A      5.744509   486A      5.778462   487A      5.829677  
     488A      5.859979   489A      5.895366   490A      5.985906  
     491A      6.017071   492A      6.047203   493A      6.082517  
     494A      6.110531   495A      6.119892   496A      6.167496  
     497A      6.222304   498A      6.231383   499A      6.269250  
     500A      6.341498   501A      6.418348   502A      6.461539  
     503A      6.534249   504A      6.614183   505A      6.735300  
     506A      6.755425   507A      6.757956   508A      6.778225  
     509A      6.794171   510A      6.808246   511A      6.836090  
     512A      6.855313   513A      6.876545   514A      6.888676  
     515A      6.904375   516A      7.010518   517A      7.061024  
     518A      7.082966   519A      7.133137   520A      7.193367  
     521A      7.243006   522A      7.260397   523A      7.266664  
     524A      7.343402   525A      7.366886   526A      7.388909  
     527A      7.406065   528A      7.429142   529A      7.498809  
     530A      7.525206   531A      7.544661   532A      7.556518  
     533A      7.616968   534A      7.649009   535A      7.696712  
     536A      7.708260   537A      7.744102   538A      7.860606  
     539A      7.932381   540A      7.972891   541A      8.022608  
     542A      8.066582   543A      8.234460   544A      8.520043  
     545A     15.159742   546A     15.583683   547A     15.907646  
     548A     16.793527   549A     17.516678   550A     18.382393  
     551A     18.776638   552A     20.402448  

    Final Occupation by Irrep:
              A 
    DOCC [    31 ]

  @DF-RHF Final Energy:  -418.76742165164092

   => Energetics <=

    Nuclear Repulsion Energy =            372.3044142589469629
    One-Electron Energy =               -1310.6588762389699241
    Two-Electron Energy =                 519.5870403283820451
    Total Energy =                       -418.7674216516409160

Computation Completed

*** tstop() called on node58.bme.utexas.edu at Tue Nov  3 12:01:45 2020
Module time:
	user time   =     181.79 seconds =       3.03 minutes
	system time =      25.56 seconds =       0.43 minutes
	total time  =         42 seconds =       0.70 minutes
Total time:
	user time   =     181.79 seconds =       3.03 minutes
	system time =      25.56 seconds =       0.43 minutes
	total time  =         42 seconds =       0.70 minutes
   => Loading Basis Set <=

    Name: (AUG-CC-PVTZ AUX)
    Role: RIFIT
    Keyword: DF_BASIS_MP2
    atoms 1-3  entry O          line   264 file /home/xy3866/psi4conda/share/psi4/basis/aug-cc-pvtz-ri.gbs 
    atoms 4-8  entry C          line   148 file /home/xy3866/psi4conda/share/psi4/basis/aug-cc-pvtz-ri.gbs 
    atoms 9-16 entry H          line    30 file /home/xy3866/psi4conda/share/psi4/basis/aug-cc-pvtz-ri.gbs 


*** tstart() called on node58.bme.utexas.edu
*** at Tue Nov  3 12:01:46 2020


  //>>>>>>>>>>>>>>>>>>>>>>>>>>>>>>>>>>>//
  //               DFMP2               //
  //<<<<<<<<<<<<<<<<<<<<<<<<<<<<<<<<<<<//

	 --------------------------------------------------------
	                          DF-MP2                         
	      2nd-Order Density-Fitted Moller-Plesset Theory     
	              RMP2 Wavefunction,   8 Threads             
	                                                         
	        Rob Parrish, Justin Turney, Andy Simmonett,      
	           Ed Hohenstein, and C. David Sherrill          
	 --------------------------------------------------------

   => Auxiliary Basis Set <=

  Basis Set: (AUG-CC-PVTZ AUX)
    Blend: AUG-CC-PVTZ-RI
    Number of shells: 336
    Number of basis function: 1216
    Number of Cartesian functions: 1528
    Spherical Harmonics?: true
    Max angular momentum: 4

	 --------------------------------------------------------
	                 NBF =   552, NAUX =  1216
	 --------------------------------------------------------
	   CLASS    FOCC     OCC    AOCC    AVIR     VIR    FVIR
	   PAIRS       0      31      31     521     521       0
	 --------------------------------------------------------

  DFHelper Memory: AOs need 2.669 GiB; user supplied 22.352 GiB. Using in-core AOs.


         ------------------------------------------------------------
                                     CPHF                           
                                  Rob Parrish                       
         ------------------------------------------------------------

  ==> Geometry <==

    Molecular point group: c1
    Full point group: C1

    Geometry (in Angstrom), charge = 0, multiplicity = 1:

       Center              X                  Y                   Z               Mass       
    ------------   -----------------  -----------------  -----------------  -----------------
         O            1.227555380135    -1.375670890527     0.782566353090    15.994914619570
         O           -2.850780119865    -0.076184190527    -0.291404846910    15.994914619570
         O           -1.248586119865     1.227090809473     0.632454153090    15.994914619570
         C            1.608392880135     0.549591809473    -0.600278846910    12.000000000000
         C            0.791028880135    -0.596773190527    -0.057108846910    12.000000000000
         C           -0.615189619865    -0.757262390527    -0.617802146910    12.000000000000
         C            2.964596880135     0.677581809473     0.073243153090    12.000000000000
         C           -1.563090119865     0.242643809473    -0.012410846910    12.000000000000
         H            1.715293880135     0.397535809473    -1.683611846910     1.007825032230
         H            1.013816880135     1.461907809473    -0.481197846910     1.007825032230
         H           -0.638102119865    -0.648579190527    -1.700341846910     1.007825032230
         H           -0.973544119865    -1.774054190527    -0.375431846910     1.007825032230
         H            3.545964880135    -0.237872190527    -0.048383846910     1.007825032230
         H            3.528775880135     1.509838809473    -0.354266846910     1.007825032230
         H            2.845092880135     0.852980809473     1.143802153090     1.007825032230
         H           -3.391623119865     0.626819809473     0.125983153090     1.007825032230

  Nuclear repulsion =  372.304414258946963
  Reference energy  = -418.767421651640916

  ==> Basis Set <==

  Basis Set: AUG-CC-PVTZ
    Blend: AUG-CC-PVTZ
    Number of shells: 184
    Number of basis function: 552
    Number of Cartesian functions: 640
    Spherical Harmonics?: true
    Max angular momentum: 3

  ==> CGRSolver (by Rob Parrish) <==

   Number of roots    =         1
   Preconditioning    =    JACOBI
   Convergence cutoff =     1E-06
   Maximum iterations =       100

  ==> CPHFRHamiltonian (by Rob Parrish) <== 

  ==> MemDFJK: Density-Fitted J/K Matrices <==

    J tasked:                   Yes
    K tasked:                   Yes
    wK tasked:                   No
    OpenMP threads:               8
    Memory [MiB]:             22888
    Algorithm:                 Disk
    Schwarz Cutoff:           1E-12
    Mask sparsity (%):       5.3416
    Fitting Condition:        1E-10

   => Auxiliary Basis Set <=

  Basis Set: (AUG-CC-PVTZ AUX)
    Blend: AUG-CC-PVTZ-JKFIT
    Number of shells: 352
    Number of basis function: 1200
    Number of Cartesian functions: 1488
    Spherical Harmonics?: true
    Max angular momentum: 4

  ==> CPHF Iterations <==

  => Iterations <=

             Iter  Converged  Remaining    Residual
  CGR           1          0          1   1.162E-01
  CGR           2          0          1   3.386E-02
  CGR           3          0          1   1.162E-02
  CGR           4          0          1   3.789E-03
  CGR           5          0          1   1.623E-03
  CGR           6          0          1   5.712E-04
  CGR           7          0          1   1.885E-04
  CGR           8          0          1   8.121E-05
  CGR           9          0          1   3.207E-05
  CGR          10          0          1   9.989E-06
  CGR          11          0          1   3.751E-06
  CGR          12          0          1   2.005E-06
  CGR          13          1          0   8.193E-07

    CGRSolver converged.

	-----------------------------------------------------------
	 ==================> DF-MP2 Energies <==================== 
	-----------------------------------------------------------
	 Reference Energy          =    -418.7674216516409160 [Eh]
	 Singles Energy            =      -0.0000000000000000 [Eh]
	 Same-Spin Energy          =      -0.4083071075192650 [Eh]
	 Opposite-Spin Energy      =      -1.2867006802303014 [Eh]
	 Correlation Energy        =      -1.6950077877495664 [Eh]
	 Total Energy              =    -420.4624294393904620 [Eh]
	-----------------------------------------------------------
	 ================> DF-SCS-MP2 Energies <================== 
	-----------------------------------------------------------
	 SCS Same-Spin Scale       =       0.3333333333333333 [-]
	 SCS Opposite-Spin Scale   =       1.2000000000000000 [-]
	 SCS Same-Spin Energy      =      -0.1361023691730883 [Eh]
	 SCS Opposite-Spin Energy  =      -1.5440408162763617 [Eh]
	 SCS Correlation Energy    =      -1.6801431854494500 [Eh]
	 SCS Total Energy          =    -420.4475648370903400 [Eh]
	-----------------------------------------------------------



Properties will be evaluated at  -0.000000,   0.000000,   0.000000 [a0]

Properties computed using the MP2 density matrix

  Nuclear Dipole Moment: [e a0]
     X:     7.1538      Y:     2.0506      Z:    -3.1571

  Electronic Dipole Moment: [e a0]
     X:    -7.6959      Y:    -1.7489      Z:     2.1496

  Dipole Moment: [e a0]
     X:    -0.5421      Y:     0.3017      Z:    -1.0075     Total:     1.1833

  Dipole Moment: [D]
     X:    -1.3780      Y:     0.7669      Z:    -2.5609     Total:     3.0075


*** tstop() called on node58.bme.utexas.edu at Tue Nov  3 12:03:20 2020
Module time:
	user time   =     506.94 seconds =       8.45 minutes
	system time =      29.25 seconds =       0.49 minutes
	total time  =         94 seconds =       1.57 minutes
Total time:
	user time   =     689.97 seconds =      11.50 minutes
	system time =      54.86 seconds =       0.91 minutes
	total time  =        137 seconds =       2.28 minutes

    Psi4 stopped on: Tuesday, 03 November 2020 12:03PM
    Psi4 wall time for execution: 0:02:16.49

*** Psi4 exiting successfully. Buy a developer a beer!
