
    -----------------------------------------------------------------------
          Psi4: An Open-Source Ab Initio Electronic Structure Package
                               Psi4 1.3.2 release

                         Git: Rev {HEAD} ecbda83 


    R. M. Parrish, L. A. Burns, D. G. A. Smith, A. C. Simmonett,
    A. E. DePrince III, E. G. Hohenstein, U. Bozkaya, A. Yu. Sokolov,
    R. Di Remigio, R. M. Richard, J. F. Gonthier, A. M. James,
    H. R. McAlexander, A. Kumar, M. Saitow, X. Wang, B. P. Pritchard,
    P. Verma, H. F. Schaefer III, K. Patkowski, R. A. King, E. F. Valeev,
    F. A. Evangelista, J. M. Turney, T. D. Crawford, and C. D. Sherrill,
    J. Chem. Theory Comput. 13(7) pp 3185--3197 (2017).
    (doi: 10.1021/acs.jctc.7b00174)


                         Additional Contributions by
    P. Kraus, H. Kruse, M. H. Lechner, M. C. Schieber, R. A. Shaw,
    A. Alenaizan, R. Galvelis, Z. L. Glick, S. Lehtola, and J. P. Misiewicz

    -----------------------------------------------------------------------


    Psi4 started on: Tuesday, 03 November 2020 04:17PM

    Process ID: 11446
    Host:       node58.bme.utexas.edu
    PSIDATADIR: /home/xy3866/psi4conda/share/psi4
    Memory:     500.0 MiB
    Threads:    8
    
  ==> Input File <==

--------------------------------------------------------------------------
#psi4
#
memory 32 gb

molecule  {
0 1
  O        1.2197630    -1.3791890     0.7815710
  O       -2.8493200    -0.0743410    -0.2921690
  O       -1.2471260     1.2289340     0.6316900
  C        1.6098530     0.5514350    -0.6010430
  C        0.7924890    -0.5949300    -0.0578730
  C       -0.6155180    -0.7660970    -0.6108670
  C        2.9660570     0.6794250     0.0724790
  C       -1.4361394     0.1104449    -0.0924518
  H        1.7167540     0.3993790    -1.6843760
  H        1.0152770     1.4637510    -0.4819620
  H       -0.6366420    -0.6467360    -1.7011060
  H       -0.9720840    -1.7722110    -0.3761960
  H        3.5474250    -0.2360290    -0.0491480
  H        3.5302360     1.5116820    -0.3550310
  H        2.8465530     0.8548240     1.1430380
  H       -3.3901630     0.6286630     0.1252190
units angstrom
no_reorient  #important for SAPT in psi4, default
symmetry c1  #important for SAPT in psi4, default
}

set PROPERTIES_ORIGIN ["COM"]
properties('MP2/aug-cc-pvtz', properties = ['dipole'])
--------------------------------------------------------------------------

  Memory set to  29.802 GiB by Python driver.
    SCF Algorithm Type (re)set to DF.

*** tstart() called on node58.bme.utexas.edu
*** at Tue Nov  3 16:17:11 2020

   => Loading Basis Set <=

    Name: AUG-CC-PVTZ
    Role: ORBITAL
    Keyword: BASIS
    atoms 1-3  entry O          line   327 file /home/xy3866/psi4conda/share/psi4/basis/aug-cc-pvtz.gbs 
    atoms 4-8  entry C          line   235 file /home/xy3866/psi4conda/share/psi4/basis/aug-cc-pvtz.gbs 
    atoms 9-16 entry H          line    36 file /home/xy3866/psi4conda/share/psi4/basis/aug-cc-pvtz.gbs 


         ---------------------------------------------------------
                                   SCF
               by Justin Turney, Rob Parrish, Andy Simmonett
                          and Daniel G. A. Smith
                              RHF Reference
                        8 Threads,  30517 MiB Core
         ---------------------------------------------------------

  ==> Geometry <==

    Molecular point group: c1
    Full point group: C1

    Geometry (in Angstrom), charge = 0, multiplicity = 1:

       Center              X                  Y                   Z               Mass       
    ------------   -----------------  -----------------  -----------------  -----------------
         O            1.206786612678    -1.365328321131     0.789768567709    15.994914619570
         O           -2.862296387322    -0.060480321131    -0.283971432291    15.994914619570
         O           -1.260102387322     1.242794678869     0.639887567709    15.994914619570
         C            1.596876612678     0.565295678869    -0.592845432291    12.000000000000
         C            0.779512612678    -0.581069321131    -0.049675432291    12.000000000000
         C           -0.628494387322    -0.752236321131    -0.602669432291    12.000000000000
         C            2.953080612678     0.693285678869     0.080676567709    12.000000000000
         C           -1.449115787322     0.124305578869    -0.084254232291    12.000000000000
         H            1.703777612678     0.413239678869    -1.676178432291     1.007825032230
         H            1.002300612678     1.477611678869    -0.473764432291     1.007825032230
         H           -0.649618387322    -0.632875321131    -1.692908432291     1.007825032230
         H           -0.985060387322    -1.758350321131    -0.367998432291     1.007825032230
         H            3.534448612678    -0.222168321131    -0.040950432291     1.007825032230
         H            3.517259612678     1.525542678869    -0.346833432291     1.007825032230
         H            2.833576612678     0.868684678869     1.151235567709     1.007825032230
         H           -3.403139387322     0.642523678869     0.133416567709     1.007825032230

  Running in c1 symmetry.

  Rotational constants: A =      0.14248  B =      0.03861  C =      0.03458 [cm^-1]
  Rotational constants: A =   4271.34298  B =   1157.48928  C =   1036.77568 [MHz]
  Nuclear repulsion =  372.562433420991113

  Charge       = 0
  Multiplicity = 1
  Electrons    = 62
  Nalpha       = 31
  Nbeta        = 31

  ==> Algorithm <==

  SCF Algorithm Type is DF.
  DIIS enabled.
  MOM disabled.
  Fractional occupation disabled.
  Guess Type is SAD.
  Energy threshold   = 1.00e-10
  Density threshold  = 1.00e-10
  Integral threshold = 0.00e+00

  ==> Primary Basis <==

  Basis Set: AUG-CC-PVTZ
    Blend: AUG-CC-PVTZ
    Number of shells: 184
    Number of basis function: 552
    Number of Cartesian functions: 640
    Spherical Harmonics?: true
    Max angular momentum: 3

   => Loading Basis Set <=

    Name: (AUG-CC-PVTZ AUX)
    Role: JKFIT
    Keyword: DF_BASIS_SCF
    atoms 1-3  entry O          line   286 file /home/xy3866/psi4conda/share/psi4/basis/aug-cc-pvtz-jkfit.gbs 
    atoms 4-8  entry C          line   162 file /home/xy3866/psi4conda/share/psi4/basis/aug-cc-pvtz-jkfit.gbs 
    atoms 9-16 entry H          line    70 file /home/xy3866/psi4conda/share/psi4/basis/aug-cc-pvtz-jkfit.gbs 

  ==> Pre-Iterations <==

   -------------------------------------------------------
    Irrep   Nso     Nmo     Nalpha   Nbeta   Ndocc  Nsocc
   -------------------------------------------------------
     A        552     552       0       0       0       0
   -------------------------------------------------------
    Total     552     552      31      31      31       0
   -------------------------------------------------------

  ==> Integral Setup <==

  DFHelper Memory: AOs need 2.670 GiB; user supplied 22.352 GiB. Using in-core AOs.

  ==> MemDFJK: Density-Fitted J/K Matrices <==

    J tasked:                   Yes
    K tasked:                   Yes
    wK tasked:                   No
    OpenMP threads:               8
    Memory [MiB]:             22888
    Algorithm:                 Disk
    Schwarz Cutoff:           1E-12
    Mask sparsity (%):       5.2917
    Fitting Condition:        1E-10

   => Auxiliary Basis Set <=

  Basis Set: (AUG-CC-PVTZ AUX)
    Blend: AUG-CC-PVTZ-JKFIT
    Number of shells: 352
    Number of basis function: 1200
    Number of Cartesian functions: 1488
    Spherical Harmonics?: true
    Max angular momentum: 4

  Minimum eigenvalue in the overlap matrix is 5.4141530767E-06.
  Using Symmetric Orthogonalization.

  SCF Guess: Superposition of Atomic Densities via on-the-fly atomic UHF.

  ==> Iterations <==

                           Total Energy        Delta E     RMS |[F,P]|

   @DF-RHF iter SAD:  -417.46761764187306   -4.17468e+02   0.00000e+00 
   @DF-RHF iter   1:  -418.36309011826620   -8.95472e-01   1.47696e-03 DIIS
   @DF-RHF iter   2:  -418.57676862961938   -2.13679e-01   1.00756e-03 DIIS
   @DF-RHF iter   3:  -418.68137740120255   -1.04609e-01   2.02009e-04 DIIS
   @DF-RHF iter   4:  -418.68828510929154   -6.90771e-03   7.90639e-05 DIIS
   @DF-RHF iter   5:  -418.68967085540987   -1.38575e-03   2.08461e-05 DIIS
   @DF-RHF iter   6:  -418.68978093167993   -1.10076e-04   9.50775e-06 DIIS
   @DF-RHF iter   7:  -418.68980909762951   -2.81659e-05   3.66118e-06 DIIS
   @DF-RHF iter   8:  -418.68981396989074   -4.87226e-06   1.71504e-06 DIIS
   @DF-RHF iter   9:  -418.68981511069597   -1.14081e-06   7.27048e-07 DIIS
   @DF-RHF iter  10:  -418.68981533239065   -2.21695e-07   2.37246e-07 DIIS
   @DF-RHF iter  11:  -418.68981535526439   -2.28737e-08   9.27567e-08 DIIS
   @DF-RHF iter  12:  -418.68981535940952   -4.14514e-09   3.46477e-08 DIIS
   @DF-RHF iter  13:  -418.68981536003628   -6.26756e-10   1.08783e-08 DIIS
   @DF-RHF iter  14:  -418.68981536009437   -5.80940e-11   4.47657e-09 DIIS
   @DF-RHF iter  15:  -418.68981536010244   -8.07177e-12   1.45031e-09 DIIS
   @DF-RHF iter  16:  -418.68981536010335   -9.09495e-13   4.96749e-10 DIIS
   @DF-RHF iter  17:  -418.68981536010403   -6.82121e-13   1.81386e-10 DIIS
   @DF-RHF iter  18:  -418.68981536010358    4.54747e-13   9.00208e-11 DIIS
  Energy and wave function converged.


  ==> Post-Iterations <==

    Orbital Energies [Eh]
    ---------------------

    Doubly Occupied:                                                      

       1A    -20.612801     2A    -20.569554     3A    -20.559342  
       4A    -11.427841     5A    -11.360097     6A    -11.279269  
       7A    -11.248439     8A    -11.222152     9A     -1.424425  
      10A     -1.400823    11A     -1.302257    12A     -1.147502  
      13A     -1.061670    14A     -0.915267    15A     -0.835831  
      16A     -0.750125    17A     -0.732122    18A     -0.699098  
      19A     -0.684177    20A     -0.652448    21A     -0.631141  
      22A     -0.629378    23A     -0.572816    24A     -0.564889  
      25A     -0.533491    26A     -0.526817    27A     -0.522072  
      28A     -0.498914    29A     -0.458823    30A     -0.455924  
      31A     -0.437433  

    Virtual:                                                              

      32A      0.021881    33A      0.032145    34A      0.036855  
      35A      0.041189    36A      0.051497    37A      0.054449  
      38A      0.061825    39A      0.068216    40A      0.082160  
      41A      0.094063    42A      0.096903    43A      0.104437  
      44A      0.107935    45A      0.112774    46A      0.117102  
      47A      0.122596    48A      0.125360    49A      0.127959  
      50A      0.131190    51A      0.135654    52A      0.148000  
      53A      0.153576    54A      0.156093    55A      0.160929  
      56A      0.165002    57A      0.168098    58A      0.183528  
      59A      0.191282    60A      0.202138    61A      0.205846  
      62A      0.215316    63A      0.226782    64A      0.228426  
      65A      0.239479    66A      0.245836    67A      0.252298  
      68A      0.256026    69A      0.262546    70A      0.266484  
      71A      0.269740    72A      0.278931    73A      0.288294  
      74A      0.293273    75A      0.297755    76A      0.305706  
      77A      0.308911    78A      0.310449    79A      0.317792  
      80A      0.327910    81A      0.342065    82A      0.345233  
      83A      0.354660    84A      0.359455    85A      0.361272  
      86A      0.363574    87A      0.371212    88A      0.378439  
      89A      0.382529    90A      0.386555    91A      0.392894  
      92A      0.397879    93A      0.401023    94A      0.411729  
      95A      0.414112    96A      0.416541    97A      0.418369  
      98A      0.430344    99A      0.437007   100A      0.441973  
     101A      0.446645   102A      0.455477   103A      0.457626  
     104A      0.470437   105A      0.472353   106A      0.478764  
     107A      0.484787   108A      0.486064   109A      0.493846  
     110A      0.504745   111A      0.512172   112A      0.519102  
     113A      0.522215   114A      0.529145   115A      0.533610  
     116A      0.542166   117A      0.546223   118A      0.555737  
     119A      0.558132   120A      0.569857   121A      0.572159  
     122A      0.583456   123A      0.590839   124A      0.594142  
     125A      0.610467   126A      0.618932   127A      0.626331  
     128A      0.638499   129A      0.642974   130A      0.650616  
     131A      0.668073   132A      0.671585   133A      0.683317  
     134A      0.690392   135A      0.705272   136A      0.718673  
     137A      0.733364   138A      0.738845   139A      0.761456  
     140A      0.773789   141A      0.790552   142A      0.792834  
     143A      0.800764   144A      0.803239   145A      0.807873  
     146A      0.813220   147A      0.818116   148A      0.824856  
     149A      0.830753   150A      0.835731   151A      0.847989  
     152A      0.848827   153A      0.859359   154A      0.861557  
     155A      0.866790   156A      0.876876   157A      0.882200  
     158A      0.886481   159A      0.902102   160A      0.906319  
     161A      0.913573   162A      0.927832   163A      0.932399  
     164A      0.933663   165A      0.945865   166A      0.952804  
     167A      0.958193   168A      0.961147   169A      0.962956  
     170A      0.978958   171A      0.986185   172A      0.994294  
     173A      0.999399   174A      1.009100   175A      1.012208  
     176A      1.018679   177A      1.024114   178A      1.035363  
     179A      1.044578   180A      1.052366   181A      1.061913  
     182A      1.069944   183A      1.072410   184A      1.083755  
     185A      1.089486   186A      1.098204   187A      1.101473  
     188A      1.106490   189A      1.114753   190A      1.121178  
     191A      1.133525   192A      1.142849   193A      1.147052  
     194A      1.159195   195A      1.168515   196A      1.172246  
     197A      1.184243   198A      1.196522   199A      1.201857  
     200A      1.203917   201A      1.208084   202A      1.222424  
     203A      1.226404   204A      1.229449   205A      1.254190  
     206A      1.256843   207A      1.271532   208A      1.279174  
     209A      1.294866   210A      1.302726   211A      1.309875  
     212A      1.323873   213A      1.331955   214A      1.338147  
     215A      1.358177   216A      1.359512   217A      1.377523  
     218A      1.380305   219A      1.393678   220A      1.409195  
     221A      1.424243   222A      1.431044   223A      1.433843  
     224A      1.451157   225A      1.459452   226A      1.462791  
     227A      1.479365   228A      1.481940   229A      1.496471  
     230A      1.514494   231A      1.526392   232A      1.535897  
     233A      1.549883   234A      1.558956   235A      1.562467  
     236A      1.572745   237A      1.587487   238A      1.601279  
     239A      1.603246   240A      1.618952   241A      1.622240  
     242A      1.635431   243A      1.636323   244A      1.654950  
     245A      1.666417   246A      1.670796   247A      1.681439  
     248A      1.681840   249A      1.702023   250A      1.706822  
     251A      1.711191   252A      1.719712   253A      1.729819  
     254A      1.734029   255A      1.740644   256A      1.750071  
     257A      1.758945   258A      1.787054   259A      1.796656  
     260A      1.804257   261A      1.812092   262A      1.825307  
     263A      1.833574   264A      1.856078   265A      1.870515  
     266A      1.874531   267A      1.881424   268A      1.898693  
     269A      1.909540   270A      1.921651   271A      1.932619  
     272A      1.943504   273A      1.951812   274A      1.961813  
     275A      1.970395   276A      1.988041   277A      1.998676  
     278A      2.000980   279A      2.027095   280A      2.033877  
     281A      2.045903   282A      2.053896   283A      2.067984  
     284A      2.077288   285A      2.083718   286A      2.119784  
     287A      2.143722   288A      2.156838   289A      2.164877  
     290A      2.171072   291A      2.204420   292A      2.216484  
     293A      2.238856   294A      2.252560   295A      2.270189  
     296A      2.278590   297A      2.295272   298A      2.300687  
     299A      2.311341   300A      2.334357   301A      2.344799  
     302A      2.346052   303A      2.370696   304A      2.395091  
     305A      2.401712   306A      2.420652   307A      2.422473  
     308A      2.432377   309A      2.458668   310A      2.476141  
     311A      2.495997   312A      2.524800   313A      2.528922  
     314A      2.543043   315A      2.585522   316A      2.590625  
     317A      2.621932   318A      2.628367   319A      2.633770  
     320A      2.646304   321A      2.657651   322A      2.672591  
     323A      2.684973   324A      2.692771   325A      2.723472  
     326A      2.733674   327A      2.747242   328A      2.770234  
     329A      2.790737   330A      2.807981   331A      2.817262  
     332A      2.845159   333A      2.863541   334A      2.890611  
     335A      2.911940   336A      2.927111   337A      2.957504  
     338A      2.989366   339A      3.022821   340A      3.038110  
     341A      3.052076   342A      3.095447   343A      3.103007  
     344A      3.107353   345A      3.124968   346A      3.151220  
     347A      3.178538   348A      3.181567   349A      3.210661  
     350A      3.290912   351A      3.298812   352A      3.329031  
     353A      3.353748   354A      3.377371   355A      3.384603  
     356A      3.398636   357A      3.407940   358A      3.429819  
     359A      3.459397   360A      3.484501   361A      3.499064  
     362A      3.507135   363A      3.528365   364A      3.547249  
     365A      3.568741   366A      3.575577   367A      3.584728  
     368A      3.602239   369A      3.620029   370A      3.653119  
     371A      3.662258   372A      3.677895   373A      3.693497  
     374A      3.719855   375A      3.736116   376A      3.745560  
     377A      3.752749   378A      3.762470   379A      3.773827  
     380A      3.791853   381A      3.795072   382A      3.798122  
     383A      3.824169   384A      3.860701   385A      3.862548  
     386A      3.885648   387A      3.911849   388A      3.927533  
     389A      3.932306   390A      3.940678   391A      3.957587  
     392A      3.979608   393A      3.987483   394A      4.004666  
     395A      4.026983   396A      4.029758   397A      4.047493  
     398A      4.057510   399A      4.064604   400A      4.088241  
     401A      4.095548   402A      4.116601   403A      4.136624  
     404A      4.151266   405A      4.168397   406A      4.180228  
     407A      4.187664   408A      4.213405   409A      4.234166  
     410A      4.249386   411A      4.256543   412A      4.261122  
     413A      4.269305   414A      4.288811   415A      4.293608  
     416A      4.330921   417A      4.353676   418A      4.381428  
     419A      4.387231   420A      4.403099   421A      4.425303  
     422A      4.447048   423A      4.470377   424A      4.486160  
     425A      4.499069   426A      4.526603   427A      4.537920  
     428A      4.553000   429A      4.555625   430A      4.576370  
     431A      4.606518   432A      4.622533   433A      4.637538  
     434A      4.644131   435A      4.662255   436A      4.692225  
     437A      4.712741   438A      4.727520   439A      4.752663  
     440A      4.770473   441A      4.805006   442A      4.825403  
     443A      4.830158   444A      4.862142   445A      4.864056  
     446A      4.877453   447A      4.887705   448A      4.890935  
     449A      4.919837   450A      4.957841   451A      5.000112  
     452A      5.017571   453A      5.046570   454A      5.054593  
     455A      5.081806   456A      5.102706   457A      5.112216  
     458A      5.124507   459A      5.163980   460A      5.177980  
     461A      5.209335   462A      5.217301   463A      5.238557  
     464A      5.259549   465A      5.286888   466A      5.307130  
     467A      5.331995   468A      5.349094   469A      5.402144  
     470A      5.408472   471A      5.423942   472A      5.440493  
     473A      5.456316   474A      5.471576   475A      5.476107  
     476A      5.515188   477A      5.533535   478A      5.568834  
     479A      5.577709   480A      5.620378   481A      5.630376  
     482A      5.634806   483A      5.692932   484A      5.746646  
     485A      5.773843   486A      5.796276   487A      5.840756  
     488A      5.852156   489A      5.889695   490A      5.989515  
     491A      6.025961   492A      6.078522   493A      6.101009  
     494A      6.111332   495A      6.142194   496A      6.174297  
     497A      6.219074   498A      6.226099   499A      6.262936  
     500A      6.375236   501A      6.448671   502A      6.528184  
     503A      6.531779   504A      6.619250   505A      6.731281  
     506A      6.761106   507A      6.767622   508A      6.778724  
     509A      6.787642   510A      6.801986   511A      6.820859  
     512A      6.847102   513A      6.880876   514A      6.889783  
     515A      6.906193   516A      7.001586   517A      7.022509  
     518A      7.067144   519A      7.120358   520A      7.155137  
     521A      7.168804   522A      7.217269   523A      7.255833  
     524A      7.257321   525A      7.349015   526A      7.389037  
     527A      7.405356   528A      7.426541   529A      7.480116  
     530A      7.497613   531A      7.516706   532A      7.535391  
     533A      7.601375   534A      7.643334   535A      7.668398  
     536A      7.709822   537A      7.735385   538A      7.834093  
     539A      7.921469   540A      7.980240   541A      8.004867  
     542A      8.016087   543A      8.240205   544A      8.464625  
     545A     14.112321   546A     15.111294   547A     15.783616  
     548A     17.404063   549A     18.020914   550A     18.283282  
     551A     18.863459   552A     21.067695  

    Final Occupation by Irrep:
              A 
    DOCC [    31 ]

  @DF-RHF Final Energy:  -418.68981536010358

   => Energetics <=

    Nuclear Repulsion Energy =            372.5624334209911126
    One-Electron Energy =               -1311.0706194476679229
    Two-Electron Energy =                 519.8183706665732871
    Total Energy =                       -418.6898153601035801

Computation Completed

*** tstop() called on node58.bme.utexas.edu at Tue Nov  3 16:17:54 2020
Module time:
	user time   =     182.47 seconds =       3.04 minutes
	system time =      25.49 seconds =       0.42 minutes
	total time  =         43 seconds =       0.72 minutes
Total time:
	user time   =     182.47 seconds =       3.04 minutes
	system time =      25.49 seconds =       0.42 minutes
	total time  =         43 seconds =       0.72 minutes
   => Loading Basis Set <=

    Name: (AUG-CC-PVTZ AUX)
    Role: RIFIT
    Keyword: DF_BASIS_MP2
    atoms 1-3  entry O          line   264 file /home/xy3866/psi4conda/share/psi4/basis/aug-cc-pvtz-ri.gbs 
    atoms 4-8  entry C          line   148 file /home/xy3866/psi4conda/share/psi4/basis/aug-cc-pvtz-ri.gbs 
    atoms 9-16 entry H          line    30 file /home/xy3866/psi4conda/share/psi4/basis/aug-cc-pvtz-ri.gbs 


*** tstart() called on node58.bme.utexas.edu
*** at Tue Nov  3 16:17:54 2020


  //>>>>>>>>>>>>>>>>>>>>>>>>>>>>>>>>>>>//
  //               DFMP2               //
  //<<<<<<<<<<<<<<<<<<<<<<<<<<<<<<<<<<<//

	 --------------------------------------------------------
	                          DF-MP2                         
	      2nd-Order Density-Fitted Moller-Plesset Theory     
	              RMP2 Wavefunction,   8 Threads             
	                                                         
	        Rob Parrish, Justin Turney, Andy Simmonett,      
	           Ed Hohenstein, and C. David Sherrill          
	 --------------------------------------------------------

   => Auxiliary Basis Set <=

  Basis Set: (AUG-CC-PVTZ AUX)
    Blend: AUG-CC-PVTZ-RI
    Number of shells: 336
    Number of basis function: 1216
    Number of Cartesian functions: 1528
    Spherical Harmonics?: true
    Max angular momentum: 4

	 --------------------------------------------------------
	                 NBF =   552, NAUX =  1216
	 --------------------------------------------------------
	   CLASS    FOCC     OCC    AOCC    AVIR     VIR    FVIR
	   PAIRS       0      31      31     521     521       0
	 --------------------------------------------------------

  DFHelper Memory: AOs need 2.670 GiB; user supplied 22.352 GiB. Using in-core AOs.


         ------------------------------------------------------------
                                     CPHF                           
                                  Rob Parrish                       
         ------------------------------------------------------------

  ==> Geometry <==

    Molecular point group: c1
    Full point group: C1

    Geometry (in Angstrom), charge = 0, multiplicity = 1:

       Center              X                  Y                   Z               Mass       
    ------------   -----------------  -----------------  -----------------  -----------------
         O            1.206786612678    -1.365328321131     0.789768567709    15.994914619570
         O           -2.862296387322    -0.060480321131    -0.283971432291    15.994914619570
         O           -1.260102387322     1.242794678869     0.639887567709    15.994914619570
         C            1.596876612678     0.565295678869    -0.592845432291    12.000000000000
         C            0.779512612678    -0.581069321131    -0.049675432291    12.000000000000
         C           -0.628494387322    -0.752236321131    -0.602669432291    12.000000000000
         C            2.953080612678     0.693285678869     0.080676567709    12.000000000000
         C           -1.449115787322     0.124305578869    -0.084254232291    12.000000000000
         H            1.703777612678     0.413239678869    -1.676178432291     1.007825032230
         H            1.002300612678     1.477611678869    -0.473764432291     1.007825032230
         H           -0.649618387322    -0.632875321131    -1.692908432291     1.007825032230
         H           -0.985060387322    -1.758350321131    -0.367998432291     1.007825032230
         H            3.534448612678    -0.222168321131    -0.040950432291     1.007825032230
         H            3.517259612678     1.525542678869    -0.346833432291     1.007825032230
         H            2.833576612678     0.868684678869     1.151235567709     1.007825032230
         H           -3.403139387322     0.642523678869     0.133416567709     1.007825032230

  Nuclear repulsion =  372.562433420991113
  Reference energy  = -418.689815360103580

  ==> Basis Set <==

  Basis Set: AUG-CC-PVTZ
    Blend: AUG-CC-PVTZ
    Number of shells: 184
    Number of basis function: 552
    Number of Cartesian functions: 640
    Spherical Harmonics?: true
    Max angular momentum: 3

  ==> CGRSolver (by Rob Parrish) <==

   Number of roots    =         1
   Preconditioning    =    JACOBI
   Convergence cutoff =     1E-06
   Maximum iterations =       100

  ==> CPHFRHamiltonian (by Rob Parrish) <== 

  ==> MemDFJK: Density-Fitted J/K Matrices <==

    J tasked:                   Yes
    K tasked:                   Yes
    wK tasked:                   No
    OpenMP threads:               8
    Memory [MiB]:             22888
    Algorithm:                 Disk
    Schwarz Cutoff:           1E-12
    Mask sparsity (%):       5.2917
    Fitting Condition:        1E-10

   => Auxiliary Basis Set <=

  Basis Set: (AUG-CC-PVTZ AUX)
    Blend: AUG-CC-PVTZ-JKFIT
    Number of shells: 352
    Number of basis function: 1200
    Number of Cartesian functions: 1488
    Spherical Harmonics?: true
    Max angular momentum: 4

  ==> CPHF Iterations <==

  => Iterations <=

             Iter  Converged  Remaining    Residual
  CGR           1          0          1   1.371E-01
  CGR           2          0          1   4.879E-02
  CGR           3          0          1   2.100E-02
  CGR           4          0          1   9.538E-03
  CGR           5          0          1   4.392E-03
  CGR           6          0          1   1.658E-03
  CGR           7          0          1   6.904E-04
  CGR           8          0          1   2.483E-04
  CGR           9          0          1   8.013E-05
  CGR          10          0          1   2.235E-05
  CGR          11          0          1   6.906E-06
  CGR          12          0          1   3.014E-06
  CGR          13          0          1   1.205E-06
  CGR          14          1          0   4.626E-07

    CGRSolver converged.

	-----------------------------------------------------------
	 ==================> DF-MP2 Energies <==================== 
	-----------------------------------------------------------
	 Reference Energy          =    -418.6898153601035801 [Eh]
	 Singles Energy            =      -0.0000000000000000 [Eh]
	 Same-Spin Energy          =      -0.4145870422431130 [Eh]
	 Opposite-Spin Energy      =      -1.2986890004554874 [Eh]
	 Correlation Energy        =      -1.7132760426986005 [Eh]
	 Total Energy              =    -420.4030914028022039 [Eh]
	-----------------------------------------------------------
	 ================> DF-SCS-MP2 Energies <================== 
	-----------------------------------------------------------
	 SCS Same-Spin Scale       =       0.3333333333333333 [-]
	 SCS Opposite-Spin Scale   =       1.2000000000000000 [-]
	 SCS Same-Spin Energy      =      -0.1381956807477043 [Eh]
	 SCS Opposite-Spin Energy  =      -1.5584268005465849 [Eh]
	 SCS Correlation Energy    =      -1.6966224812942892 [Eh]
	 SCS Total Energy          =    -420.3864378413978784 [Eh]
	-----------------------------------------------------------



Properties will be evaluated at  -0.000000,  -0.000000,   0.000000 [a0]

Properties computed using the MP2 density matrix

  Nuclear Dipole Moment: [e a0]
     X:     7.0672      Y:     2.1686      Z:    -3.1013

  Electronic Dipole Moment: [e a0]
     X:    -7.1818      Y:    -2.1148      Z:     1.9582

  Dipole Moment: [e a0]
     X:    -0.1146      Y:     0.0538      Z:    -1.1430     Total:     1.1500

  Dipole Moment: [D]
     X:    -0.2912      Y:     0.1367      Z:    -2.9052     Total:     2.9230


*** tstop() called on node58.bme.utexas.edu at Tue Nov  3 16:19:53 2020
Module time:
	user time   =     513.20 seconds =       8.55 minutes
	system time =      30.86 seconds =       0.51 minutes
	total time  =        119 seconds =       1.98 minutes
Total time:
	user time   =     696.90 seconds =      11.62 minutes
	system time =      56.42 seconds =       0.94 minutes
	total time  =        162 seconds =       2.70 minutes

    Psi4 stopped on: Tuesday, 03 November 2020 04:19PM
    Psi4 wall time for execution: 0:02:41.92

*** Psi4 exiting successfully. Buy a developer a beer!
