
    -----------------------------------------------------------------------
          Psi4: An Open-Source Ab Initio Electronic Structure Package
                               Psi4 1.3.2 release

                         Git: Rev {HEAD} ecbda83 


    R. M. Parrish, L. A. Burns, D. G. A. Smith, A. C. Simmonett,
    A. E. DePrince III, E. G. Hohenstein, U. Bozkaya, A. Yu. Sokolov,
    R. Di Remigio, R. M. Richard, J. F. Gonthier, A. M. James,
    H. R. McAlexander, A. Kumar, M. Saitow, X. Wang, B. P. Pritchard,
    P. Verma, H. F. Schaefer III, K. Patkowski, R. A. King, E. F. Valeev,
    F. A. Evangelista, J. M. Turney, T. D. Crawford, and C. D. Sherrill,
    J. Chem. Theory Comput. 13(7) pp 3185--3197 (2017).
    (doi: 10.1021/acs.jctc.7b00174)


                         Additional Contributions by
    P. Kraus, H. Kruse, M. H. Lechner, M. C. Schieber, R. A. Shaw,
    A. Alenaizan, R. Galvelis, Z. L. Glick, S. Lehtola, and J. P. Misiewicz

    -----------------------------------------------------------------------


    Psi4 started on: Tuesday, 03 November 2020 02:19PM

    Process ID: 130610
    Host:       node58.bme.utexas.edu
    PSIDATADIR: /home/xy3866/psi4conda/share/psi4
    Memory:     500.0 MiB
    Threads:    8
    
  ==> Input File <==

--------------------------------------------------------------------------
#psi4
#
memory 32 gb

molecule  {
0 1
  O        1.2197630    -1.3791890     0.7815710
  O       -2.8493200    -0.0743410    -0.2921690
  O       -1.2471260     1.2289340     0.6316900
  C        1.6098530     0.5514350    -0.6010430
  C        0.8520793    -0.6113868    -0.0086794
  C       -0.6155180    -0.7660970    -0.6108670
  C        2.9473286     0.6165210     0.1174454
  C       -1.5616300     0.2444870    -0.0131750
  H        1.7167540     0.3993790    -1.6843760
  H        1.0152770     1.4637510    -0.4819620
  H       -0.6366420    -0.6467360    -1.7011060
  H       -0.9720840    -1.7722110    -0.3761960
  H        3.5474250    -0.2360290    -0.0491480
  H        3.5302360     1.5116820    -0.3550310
  H        2.8465530     0.8548240     1.1430380
  H       -3.3901630     0.6286630     0.1252190
units angstrom
no_reorient  #important for SAPT in psi4, default
symmetry c1  #important for SAPT in psi4, default
}

set PROPERTIES_ORIGIN ["COM"]
properties('MP2/aug-cc-pvtz', properties = ['dipole'])
--------------------------------------------------------------------------

  Memory set to  29.802 GiB by Python driver.
    SCF Algorithm Type (re)set to DF.

*** tstart() called on node58.bme.utexas.edu
*** at Tue Nov  3 14:19:21 2020

   => Loading Basis Set <=

    Name: AUG-CC-PVTZ
    Role: ORBITAL
    Keyword: BASIS
    atoms 1-3  entry O          line   327 file /home/xy3866/psi4conda/share/psi4/basis/aug-cc-pvtz.gbs 
    atoms 4-8  entry C          line   235 file /home/xy3866/psi4conda/share/psi4/basis/aug-cc-pvtz.gbs 
    atoms 9-16 entry H          line    36 file /home/xy3866/psi4conda/share/psi4/basis/aug-cc-pvtz.gbs 


         ---------------------------------------------------------
                                   SCF
               by Justin Turney, Rob Parrish, Andy Simmonett
                          and Daniel G. A. Smith
                              RHF Reference
                        8 Threads,  30517 MiB Core
         ---------------------------------------------------------

  ==> Geometry <==

    Molecular point group: c1
    Full point group: C1

    Geometry (in Angstrom), charge = 0, multiplicity = 1:

       Center              X                  Y                   Z               Mass       
    ------------   -----------------  -----------------  -----------------  -----------------
         O            1.215537734108    -1.370982699566     0.771834149513    15.994914619570
         O           -2.853545265892    -0.066134699566    -0.301905850487    15.994914619570
         O           -1.251351265892     1.237140300434     0.621953149513    15.994914619570
         C            1.605627734108     0.559641300434    -0.610779850487    12.000000000000
         C            0.847854034108    -0.603180499566    -0.018416250487    12.000000000000
         C           -0.619743265892    -0.757890699566    -0.620603850487    12.000000000000
         C            2.943103334108     0.624727300434     0.107708549513    12.000000000000
         C           -1.565855265892     0.252693300434    -0.022911850487    12.000000000000
         H            1.712528734108     0.407585300434    -1.694112850487     1.007825032230
         H            1.011051734108     1.471957300434    -0.491698850487     1.007825032230
         H           -0.640867265892    -0.638529699566    -1.710842850487     1.007825032230
         H           -0.976309265892    -1.764004699566    -0.385932850487     1.007825032230
         H            3.543199734108    -0.227822699566    -0.058884850487     1.007825032230
         H            3.526010734108     1.519888300434    -0.364767850487     1.007825032230
         H            2.842327734108     0.863030300434     1.133301149513     1.007825032230
         H           -3.394388265892     0.636869300434     0.115482149513     1.007825032230

  Running in c1 symmetry.

  Rotational constants: A =      0.14313  B =      0.03820  C =      0.03428 [cm^-1]
  Rotational constants: A =   4290.94000  B =   1145.29026  C =   1027.79950 [MHz]
  Nuclear repulsion =  372.937377482686713

  Charge       = 0
  Multiplicity = 1
  Electrons    = 62
  Nalpha       = 31
  Nbeta        = 31

  ==> Algorithm <==

  SCF Algorithm Type is DF.
  DIIS enabled.
  MOM disabled.
  Fractional occupation disabled.
  Guess Type is SAD.
  Energy threshold   = 1.00e-10
  Density threshold  = 1.00e-10
  Integral threshold = 0.00e+00

  ==> Primary Basis <==

  Basis Set: AUG-CC-PVTZ
    Blend: AUG-CC-PVTZ
    Number of shells: 184
    Number of basis function: 552
    Number of Cartesian functions: 640
    Spherical Harmonics?: true
    Max angular momentum: 3

   => Loading Basis Set <=

    Name: (AUG-CC-PVTZ AUX)
    Role: JKFIT
    Keyword: DF_BASIS_SCF
    atoms 1-3  entry O          line   286 file /home/xy3866/psi4conda/share/psi4/basis/aug-cc-pvtz-jkfit.gbs 
    atoms 4-8  entry C          line   162 file /home/xy3866/psi4conda/share/psi4/basis/aug-cc-pvtz-jkfit.gbs 
    atoms 9-16 entry H          line    70 file /home/xy3866/psi4conda/share/psi4/basis/aug-cc-pvtz-jkfit.gbs 

  ==> Pre-Iterations <==

   -------------------------------------------------------
    Irrep   Nso     Nmo     Nalpha   Nbeta   Ndocc  Nsocc
   -------------------------------------------------------
     A        552     552       0       0       0       0
   -------------------------------------------------------
    Total     552     552      31      31      31       0
   -------------------------------------------------------

  ==> Integral Setup <==

  DFHelper Memory: AOs need 2.669 GiB; user supplied 22.352 GiB. Using in-core AOs.

  ==> MemDFJK: Density-Fitted J/K Matrices <==

    J tasked:                   Yes
    K tasked:                   Yes
    wK tasked:                   No
    OpenMP threads:               8
    Memory [MiB]:             22888
    Algorithm:                 Disk
    Schwarz Cutoff:           1E-12
    Mask sparsity (%):       5.3324
    Fitting Condition:        1E-10

   => Auxiliary Basis Set <=

  Basis Set: (AUG-CC-PVTZ AUX)
    Blend: AUG-CC-PVTZ-JKFIT
    Number of shells: 352
    Number of basis function: 1200
    Number of Cartesian functions: 1488
    Spherical Harmonics?: true
    Max angular momentum: 4

  Minimum eigenvalue in the overlap matrix is 6.8583740425E-06.
  Using Symmetric Orthogonalization.

  SCF Guess: Superposition of Atomic Densities via on-the-fly atomic UHF.

  ==> Iterations <==

                           Total Energy        Delta E     RMS |[F,P]|

   @DF-RHF iter SAD:  -417.60410236255115   -4.17604e+02   0.00000e+00 
   @DF-RHF iter   1:  -418.45302137573333   -8.48919e-01   1.43194e-03 DIIS
   @DF-RHF iter   2:  -418.67701573369698   -2.23994e-01   8.56738e-04 DIIS
   @DF-RHF iter   3:  -418.75241720002742   -7.54015e-02   1.58613e-04 DIIS
   @DF-RHF iter   4:  -418.75732072517292   -4.90353e-03   6.99429e-05 DIIS
   @DF-RHF iter   5:  -418.75832643676995   -1.00571e-03   1.53574e-05 DIIS
   @DF-RHF iter   6:  -418.75840339272833   -7.69560e-05   8.01255e-06 DIIS
   @DF-RHF iter   7:  -418.75841998672615   -1.65940e-05   2.73901e-06 DIIS
   @DF-RHF iter   8:  -418.75842300537539   -3.01865e-06   1.06039e-06 DIIS
   @DF-RHF iter   9:  -418.75842339912288   -3.93747e-07   4.18547e-07 DIIS
   @DF-RHF iter  10:  -418.75842345083140   -5.17085e-08   1.16056e-07 DIIS
   @DF-RHF iter  11:  -418.75842345441623   -3.58483e-09   3.50948e-08 DIIS
   @DF-RHF iter  12:  -418.75842345482334   -4.07113e-10   1.33735e-08 DIIS
   @DF-RHF iter  13:  -418.75842345489514   -7.17932e-11   4.50186e-09 DIIS
   @DF-RHF iter  14:  -418.75842345490611   -1.09708e-11   1.98916e-09 DIIS
   @DF-RHF iter  15:  -418.75842345490906   -2.95586e-12   6.96182e-10 DIIS
   @DF-RHF iter  16:  -418.75842345490906    0.00000e+00   2.93042e-10 DIIS
   @DF-RHF iter  17:  -418.75842345490861    4.54747e-13   1.30816e-10 DIIS
   @DF-RHF iter  18:  -418.75842345490884   -2.27374e-13   5.52650e-11 DIIS
  Energy and wave function converged.


  ==> Post-Iterations <==

    Orbital Energies [Eh]
    ---------------------

    Doubly Occupied:                                                      

       1A    -20.628568     2A    -20.565815     3A    -20.562404  
       4A    -11.407662     5A    -11.339434     6A    -11.263156  
       7A    -11.240798     8A    -11.218570     9A     -1.475089  
      10A     -1.435544    11A     -1.372078    12A     -1.076097  
      13A     -1.037074    14A     -0.896834    15A     -0.831644  
      16A     -0.743469    17A     -0.717290    18A     -0.702274  
      19A     -0.681157    20A     -0.649627    21A     -0.641223  
      22A     -0.634135    23A     -0.596737    24A     -0.574538  
      25A     -0.543627    26A     -0.525521    27A     -0.512456  
      28A     -0.505308    29A     -0.493345    30A     -0.467860  
      31A     -0.408082  

    Virtual:                                                              

      32A      0.024415    33A      0.032023    34A      0.037491  
      35A      0.042869    36A      0.051479    37A      0.055720  
      38A      0.062403    39A      0.067023    40A      0.086960  
      41A      0.093426    42A      0.101952    43A      0.108420  
      44A      0.113422    45A      0.116847    46A      0.122891  
      47A      0.127065    48A      0.129998    49A      0.131154  
      50A      0.142480    51A      0.147571    52A      0.148467  
      53A      0.156807    54A      0.157716    55A      0.162010  
      56A      0.168702    57A      0.169791    58A      0.181584  
      59A      0.189812    60A      0.202354    61A      0.209211  
      62A      0.216166    63A      0.228139    64A      0.229537  
      65A      0.241244    66A      0.246720    67A      0.253287  
      68A      0.261048    69A      0.262637    70A      0.265085  
      71A      0.274089    72A      0.282877    73A      0.287474  
      74A      0.292502    75A      0.298065    76A      0.305160  
      77A      0.309150    78A      0.314704    79A      0.319167  
      80A      0.330531    81A      0.342390    82A      0.346791  
      83A      0.358637    84A      0.360436    85A      0.364492  
      86A      0.370358    87A      0.378411    88A      0.381191  
      89A      0.383820    90A      0.389561    91A      0.396350  
      92A      0.400342    93A      0.407624    94A      0.414776  
      95A      0.415990    96A      0.417366    97A      0.428216  
      98A      0.429958    99A      0.439329   100A      0.447202  
     101A      0.451872   102A      0.456154   103A      0.461891  
     104A      0.472123   105A      0.476221   106A      0.484292  
     107A      0.488527   108A      0.494764   109A      0.500684  
     110A      0.506908   111A      0.509390   112A      0.519116  
     113A      0.525489   114A      0.527768   115A      0.535812  
     116A      0.540196   117A      0.555180   118A      0.557888  
     119A      0.561243   120A      0.572792   121A      0.574093  
     122A      0.581287   123A      0.592975   124A      0.600859  
     125A      0.614496   126A      0.621761   127A      0.628256  
     128A      0.634715   129A      0.643465   130A      0.649769  
     131A      0.654796   132A      0.662941   133A      0.682291  
     134A      0.693597   135A      0.711001   136A      0.724309  
     137A      0.733753   138A      0.740768   139A      0.752032  
     140A      0.770790   141A      0.776950   142A      0.793680  
     143A      0.802477   144A      0.805650   145A      0.812886  
     146A      0.814013   147A      0.818465   148A      0.830307  
     149A      0.833594   150A      0.849037   151A      0.851144  
     152A      0.852835   153A      0.861609   154A      0.865728  
     155A      0.874334   156A      0.883715   157A      0.891812  
     158A      0.892134   159A      0.905149   160A      0.911526  
     161A      0.917417   162A      0.921747   163A      0.930005  
     164A      0.933422   165A      0.938978   166A      0.945973  
     167A      0.953224   168A      0.965898   169A      0.970740  
     170A      0.975158   171A      0.983214   172A      0.988533  
     173A      1.003026   174A      1.012777   175A      1.015209  
     176A      1.024047   177A      1.026684   178A      1.034815  
     179A      1.042830   180A      1.051556   181A      1.060080  
     182A      1.071572   183A      1.073022   184A      1.087580  
     185A      1.090740   186A      1.101720   187A      1.108588  
     188A      1.110462   189A      1.120905   190A      1.130956  
     191A      1.140356   192A      1.142977   193A      1.150902  
     194A      1.166184   195A      1.168525   196A      1.171014  
     197A      1.187547   198A      1.197451   199A      1.200963  
     200A      1.206575   201A      1.217531   202A      1.225534  
     203A      1.226724   204A      1.240102   205A      1.252138  
     206A      1.256250   207A      1.273737   208A      1.286888  
     209A      1.291575   210A      1.312335   211A      1.314969  
     212A      1.319610   213A      1.332827   214A      1.346224  
     215A      1.350751   216A      1.365634   217A      1.373801  
     218A      1.382635   219A      1.394283   220A      1.403276  
     221A      1.414697   222A      1.421960   223A      1.439521  
     224A      1.449926   225A      1.455015   226A      1.467293  
     227A      1.483371   228A      1.489439   229A      1.504422  
     230A      1.517373   231A      1.522551   232A      1.537355  
     233A      1.547087   234A      1.553414   235A      1.563637  
     236A      1.580335   237A      1.590300   238A      1.595592  
     239A      1.605563   240A      1.616485   241A      1.628069  
     242A      1.630390   243A      1.639211   244A      1.651886  
     245A      1.666795   246A      1.668908   247A      1.675887  
     248A      1.686790   249A      1.691916   250A      1.708811  
     251A      1.713530   252A      1.718765   253A      1.733405  
     254A      1.736028   255A      1.741697   256A      1.746721  
     257A      1.756826   258A      1.783005   259A      1.799640  
     260A      1.803873   261A      1.816338   262A      1.824957  
     263A      1.828369   264A      1.844845   265A      1.867567  
     266A      1.878231   267A      1.890079   268A      1.902349  
     269A      1.909928   270A      1.919677   271A      1.926403  
     272A      1.938550   273A      1.962265   274A      1.965368  
     275A      1.977379   276A      1.978871   277A      1.987781  
     278A      2.001180   279A      2.020110   280A      2.030247  
     281A      2.037681   282A      2.048777   283A      2.063028  
     284A      2.077477   285A      2.095457   286A      2.114453  
     287A      2.132504   288A      2.162080   289A      2.179984  
     290A      2.188586   291A      2.202315   292A      2.222683  
     293A      2.241035   294A      2.250948   295A      2.262354  
     296A      2.275998   297A      2.295248   298A      2.301493  
     299A      2.312361   300A      2.330945   301A      2.344542  
     302A      2.356162   303A      2.367246   304A      2.391785  
     305A      2.398578   306A      2.417726   307A      2.425012  
     308A      2.449501   309A      2.473079   310A      2.497818  
     311A      2.510193   312A      2.516435   313A      2.521672  
     314A      2.543042   315A      2.564501   316A      2.586806  
     317A      2.593701   318A      2.606807   319A      2.626728  
     320A      2.629361   321A      2.653383   322A      2.667654  
     323A      2.676788   324A      2.693007   325A      2.708440  
     326A      2.744460   327A      2.748084   328A      2.776223  
     329A      2.790706   330A      2.806000   331A      2.824151  
     332A      2.844826   333A      2.857623   334A      2.895583  
     335A      2.899595   336A      2.920607   337A      2.978503  
     338A      2.995810   339A      2.997771   340A      3.030914  
     341A      3.037211   342A      3.075404   343A      3.103476  
     344A      3.113672   345A      3.119572   346A      3.162438  
     347A      3.175943   348A      3.183118   349A      3.200517  
     350A      3.260794   351A      3.321028   352A      3.341602  
     353A      3.347638   354A      3.371971   355A      3.380775  
     356A      3.410773   357A      3.414988   358A      3.436422  
     359A      3.474549   360A      3.486178   361A      3.509389  
     362A      3.519191   363A      3.535127   364A      3.561278  
     365A      3.582527   366A      3.589275   367A      3.600313  
     368A      3.620503   369A      3.638792   370A      3.658274  
     371A      3.666514   372A      3.676345   373A      3.699090  
     374A      3.708362   375A      3.740072   376A      3.747869  
     377A      3.755741   378A      3.761745   379A      3.777277  
     380A      3.804117   381A      3.805931   382A      3.820981  
     383A      3.827025   384A      3.870948   385A      3.878607  
     386A      3.881557   387A      3.910888   388A      3.929042  
     389A      3.936997   390A      3.950544   391A      3.967415  
     392A      3.976054   393A      3.987430   394A      4.001137  
     395A      4.021921   396A      4.041787   397A      4.049147  
     398A      4.058660   399A      4.083539   400A      4.087374  
     401A      4.100989   402A      4.122528   403A      4.141556  
     404A      4.158552   405A      4.175125   406A      4.188763  
     407A      4.196386   408A      4.222066   409A      4.229802  
     410A      4.253376   411A      4.257421   412A      4.287416  
     413A      4.301096   414A      4.308089   415A      4.333092  
     416A      4.344950   417A      4.359302   418A      4.366641  
     419A      4.380350   420A      4.413961   421A      4.415142  
     422A      4.447301   423A      4.456215   424A      4.483743  
     425A      4.492366   426A      4.507978   427A      4.520398  
     428A      4.533367   429A      4.553368   430A      4.585568  
     431A      4.602983   432A      4.613712   433A      4.636932  
     434A      4.650919   435A      4.685092   436A      4.698953  
     437A      4.726500   438A      4.747572   439A      4.761441  
     440A      4.781169   441A      4.782412   442A      4.818302  
     443A      4.826921   444A      4.831175   445A      4.852506  
     446A      4.880800   447A      4.886234   448A      4.930134  
     449A      4.941287   450A      4.970999   451A      4.985944  
     452A      5.002140   453A      5.028613   454A      5.067740  
     455A      5.074600   456A      5.089509   457A      5.116360  
     458A      5.122822   459A      5.161035   460A      5.187891  
     461A      5.208984   462A      5.227716   463A      5.248006  
     464A      5.256123   465A      5.273884   466A      5.278300  
     467A      5.333427   468A      5.362531   469A      5.380790  
     470A      5.388513   471A      5.411134   472A      5.425747  
     473A      5.448721   474A      5.459133   475A      5.462891  
     476A      5.474569   477A      5.521918   478A      5.527624  
     479A      5.561407   480A      5.579222   481A      5.597432  
     482A      5.641043   483A      5.664616   484A      5.694993  
     485A      5.769090   486A      5.778964   487A      5.819408  
     488A      5.879872   489A      5.890996   490A      5.974005  
     491A      6.010048   492A      6.034268   493A      6.092609  
     494A      6.102110   495A      6.116084   496A      6.167792  
     497A      6.212712   498A      6.269737   499A      6.309232  
     500A      6.337499   501A      6.421209   502A      6.431476  
     503A      6.534083   504A      6.607740   505A      6.714018  
     506A      6.757016   507A      6.759807   508A      6.782671  
     509A      6.797658   510A      6.812091   511A      6.837334  
     512A      6.852683   513A      6.878485   514A      6.882203  
     515A      6.908106   516A      7.014088   517A      7.068598  
     518A      7.093662   519A      7.174611   520A      7.197974  
     521A      7.246643   522A      7.265355   523A      7.344942  
     524A      7.362361   525A      7.370318   526A      7.392937  
     527A      7.409907   528A      7.454893   529A      7.515556  
     530A      7.545133   531A      7.559236   532A      7.620892  
     533A      7.634064   534A      7.696382   535A      7.702412  
     536A      7.717936   537A      7.735837   538A      7.864752  
     539A      7.961900   540A      8.002400   541A      8.011623  
     542A      8.069842   543A      8.238527   544A      8.521867  
     545A     15.259500   546A     15.735744   547A     16.699738  
     548A     17.034089   549A     17.510324   550A     18.519547  
     551A     18.826400   552A     20.190569  

    Final Occupation by Irrep:
              A 
    DOCC [    31 ]

  @DF-RHF Final Energy:  -418.75842345490884

   => Energetics <=

    Nuclear Repulsion Energy =            372.9373774826867134
    One-Electron Energy =               -1311.8967674329505826
    Two-Electron Energy =                 520.2009664953550327
    Total Energy =                       -418.7584234549087796

Computation Completed

*** tstop() called on node58.bme.utexas.edu at Tue Nov  3 14:20:07 2020
Module time:
	user time   =     180.57 seconds =       3.01 minutes
	system time =      29.11 seconds =       0.49 minutes
	total time  =         46 seconds =       0.77 minutes
Total time:
	user time   =     180.57 seconds =       3.01 minutes
	system time =      29.11 seconds =       0.49 minutes
	total time  =         46 seconds =       0.77 minutes
   => Loading Basis Set <=

    Name: (AUG-CC-PVTZ AUX)
    Role: RIFIT
    Keyword: DF_BASIS_MP2
    atoms 1-3  entry O          line   264 file /home/xy3866/psi4conda/share/psi4/basis/aug-cc-pvtz-ri.gbs 
    atoms 4-8  entry C          line   148 file /home/xy3866/psi4conda/share/psi4/basis/aug-cc-pvtz-ri.gbs 
    atoms 9-16 entry H          line    30 file /home/xy3866/psi4conda/share/psi4/basis/aug-cc-pvtz-ri.gbs 


*** tstart() called on node58.bme.utexas.edu
*** at Tue Nov  3 14:20:07 2020


  //>>>>>>>>>>>>>>>>>>>>>>>>>>>>>>>>>>>//
  //               DFMP2               //
  //<<<<<<<<<<<<<<<<<<<<<<<<<<<<<<<<<<<//

	 --------------------------------------------------------
	                          DF-MP2                         
	      2nd-Order Density-Fitted Moller-Plesset Theory     
	              RMP2 Wavefunction,   8 Threads             
	                                                         
	        Rob Parrish, Justin Turney, Andy Simmonett,      
	           Ed Hohenstein, and C. David Sherrill          
	 --------------------------------------------------------

   => Auxiliary Basis Set <=

  Basis Set: (AUG-CC-PVTZ AUX)
    Blend: AUG-CC-PVTZ-RI
    Number of shells: 336
    Number of basis function: 1216
    Number of Cartesian functions: 1528
    Spherical Harmonics?: true
    Max angular momentum: 4

	 --------------------------------------------------------
	                 NBF =   552, NAUX =  1216
	 --------------------------------------------------------
	   CLASS    FOCC     OCC    AOCC    AVIR     VIR    FVIR
	   PAIRS       0      31      31     521     521       0
	 --------------------------------------------------------

  DFHelper Memory: AOs need 2.669 GiB; user supplied 22.352 GiB. Using in-core AOs.


         ------------------------------------------------------------
                                     CPHF                           
                                  Rob Parrish                       
         ------------------------------------------------------------

  ==> Geometry <==

    Molecular point group: c1
    Full point group: C1

    Geometry (in Angstrom), charge = 0, multiplicity = 1:

       Center              X                  Y                   Z               Mass       
    ------------   -----------------  -----------------  -----------------  -----------------
         O            1.215537734108    -1.370982699566     0.771834149513    15.994914619570
         O           -2.853545265892    -0.066134699566    -0.301905850487    15.994914619570
         O           -1.251351265892     1.237140300434     0.621953149513    15.994914619570
         C            1.605627734108     0.559641300434    -0.610779850487    12.000000000000
         C            0.847854034108    -0.603180499566    -0.018416250487    12.000000000000
         C           -0.619743265892    -0.757890699566    -0.620603850487    12.000000000000
         C            2.943103334108     0.624727300434     0.107708549513    12.000000000000
         C           -1.565855265892     0.252693300434    -0.022911850487    12.000000000000
         H            1.712528734108     0.407585300434    -1.694112850487     1.007825032230
         H            1.011051734108     1.471957300434    -0.491698850487     1.007825032230
         H           -0.640867265892    -0.638529699566    -1.710842850487     1.007825032230
         H           -0.976309265892    -1.764004699566    -0.385932850487     1.007825032230
         H            3.543199734108    -0.227822699566    -0.058884850487     1.007825032230
         H            3.526010734108     1.519888300434    -0.364767850487     1.007825032230
         H            2.842327734108     0.863030300434     1.133301149513     1.007825032230
         H           -3.394388265892     0.636869300434     0.115482149513     1.007825032230

  Nuclear repulsion =  372.937377482686713
  Reference energy  = -418.758423454908836

  ==> Basis Set <==

  Basis Set: AUG-CC-PVTZ
    Blend: AUG-CC-PVTZ
    Number of shells: 184
    Number of basis function: 552
    Number of Cartesian functions: 640
    Spherical Harmonics?: true
    Max angular momentum: 3

  ==> CGRSolver (by Rob Parrish) <==

   Number of roots    =         1
   Preconditioning    =    JACOBI
   Convergence cutoff =     1E-06
   Maximum iterations =       100

  ==> CPHFRHamiltonian (by Rob Parrish) <== 

  ==> MemDFJK: Density-Fitted J/K Matrices <==

    J tasked:                   Yes
    K tasked:                   Yes
    wK tasked:                   No
    OpenMP threads:               8
    Memory [MiB]:             22888
    Algorithm:                 Disk
    Schwarz Cutoff:           1E-12
    Mask sparsity (%):       5.3324
    Fitting Condition:        1E-10

   => Auxiliary Basis Set <=

  Basis Set: (AUG-CC-PVTZ AUX)
    Blend: AUG-CC-PVTZ-JKFIT
    Number of shells: 352
    Number of basis function: 1200
    Number of Cartesian functions: 1488
    Spherical Harmonics?: true
    Max angular momentum: 4

  ==> CPHF Iterations <==

  => Iterations <=

             Iter  Converged  Remaining    Residual
  CGR           1          0          1   1.129E-01
  CGR           2          0          1   3.126E-02
  CGR           3          0          1   1.080E-02
  CGR           4          0          1   3.140E-03
  CGR           5          0          1   1.264E-03
  CGR           6          0          1   3.652E-04
  CGR           7          0          1   1.425E-04
  CGR           8          0          1   4.325E-05
  CGR           9          0          1   1.775E-05
  CGR          10          0          1   7.434E-06
  CGR          11          0          1   3.048E-06
  CGR          12          0          1   1.056E-06
  CGR          13          1          0   4.155E-07

    CGRSolver converged.

	-----------------------------------------------------------
	 ==================> DF-MP2 Energies <==================== 
	-----------------------------------------------------------
	 Reference Energy          =    -418.7584234549088364 [Eh]
	 Singles Energy            =      -0.0000000000000000 [Eh]
	 Same-Spin Energy          =      -0.4067459936428959 [Eh]
	 Opposite-Spin Energy      =      -1.2833557546008580 [Eh]
	 Correlation Energy        =      -1.6901017482437539 [Eh]
	 Total Energy              =    -420.4485252031525988 [Eh]
	-----------------------------------------------------------
	 ================> DF-SCS-MP2 Energies <================== 
	-----------------------------------------------------------
	 SCS Same-Spin Scale       =       0.3333333333333333 [-]
	 SCS Opposite-Spin Scale   =       1.2000000000000000 [-]
	 SCS Same-Spin Energy      =      -0.1355819978809653 [Eh]
	 SCS Opposite-Spin Energy  =      -1.5400269055210296 [Eh]
	 SCS Correlation Energy    =      -1.6756089034019950 [Eh]
	 SCS Total Energy          =    -420.4340323583108443 [Eh]
	-----------------------------------------------------------



Properties will be evaluated at   0.000000,  -0.000000,   0.000000 [a0]

Properties computed using the MP2 density matrix

  Nuclear Dipole Moment: [e a0]
     X:     7.1330      Y:     2.1261      Z:    -3.2360

  Electronic Dipole Moment: [e a0]
     X:    -7.5216      Y:    -1.8804      Z:     2.3123

  Dipole Moment: [e a0]
     X:    -0.3886      Y:     0.2458      Z:    -0.9237     Total:     1.0318

  Dipole Moment: [D]
     X:    -0.9877      Y:     0.6247      Z:    -2.3478     Total:     2.6226


*** tstop() called on node58.bme.utexas.edu at Tue Nov  3 14:21:40 2020
Module time:
	user time   =     504.88 seconds =       8.41 minutes
	system time =      29.14 seconds =       0.49 minutes
	total time  =         93 seconds =       1.55 minutes
Total time:
	user time   =     686.67 seconds =      11.44 minutes
	system time =      58.33 seconds =       0.97 minutes
	total time  =        139 seconds =       2.32 minutes

    Psi4 stopped on: Tuesday, 03 November 2020 02:21PM
    Psi4 wall time for execution: 0:02:19.45

*** Psi4 exiting successfully. Buy a developer a beer!
