
    -----------------------------------------------------------------------
          Psi4: An Open-Source Ab Initio Electronic Structure Package
                               Psi4 1.3.2 release

                         Git: Rev {HEAD} ecbda83 


    R. M. Parrish, L. A. Burns, D. G. A. Smith, A. C. Simmonett,
    A. E. DePrince III, E. G. Hohenstein, U. Bozkaya, A. Yu. Sokolov,
    R. Di Remigio, R. M. Richard, J. F. Gonthier, A. M. James,
    H. R. McAlexander, A. Kumar, M. Saitow, X. Wang, B. P. Pritchard,
    P. Verma, H. F. Schaefer III, K. Patkowski, R. A. King, E. F. Valeev,
    F. A. Evangelista, J. M. Turney, T. D. Crawford, and C. D. Sherrill,
    J. Chem. Theory Comput. 13(7) pp 3185--3197 (2017).
    (doi: 10.1021/acs.jctc.7b00174)


                         Additional Contributions by
    P. Kraus, H. Kruse, M. H. Lechner, M. C. Schieber, R. A. Shaw,
    A. Alenaizan, R. Galvelis, Z. L. Glick, S. Lehtola, and J. P. Misiewicz

    -----------------------------------------------------------------------


    Psi4 started on: Tuesday, 03 November 2020 03:27PM

    Process ID: 6643
    Host:       node58.bme.utexas.edu
    PSIDATADIR: /home/xy3866/psi4conda/share/psi4
    Memory:     500.0 MiB
    Threads:    8
    
  ==> Input File <==

--------------------------------------------------------------------------
#psi4
#
memory 32 gb

molecule  {
0 1
  O        1.2197630    -1.3791890     0.7815710
  O       -2.8493200    -0.0743410    -0.2921690
  O       -1.2471260     1.2289340     0.6316900
  C        1.6098530     0.5514350    -0.6010430
  C        0.7970019    -0.5927942    -0.0701842
  C       -0.6155180    -0.7660970    -0.6108670
  C        2.9660570     0.6794250     0.0724790
  C       -1.5616300     0.2444870    -0.0131750
  H        1.7167540     0.3993790    -1.6843760
  H        1.0152770     1.4637510    -0.4819620
  H       -0.6271977    -0.6451733    -1.7010759
  H       -0.9720840    -1.7722110    -0.3761960
  H        3.5474250    -0.2360290    -0.0491480
  H        3.5302360     1.5116820    -0.3550310
  H        2.8465530     0.8548240     1.1430380
  H       -3.3901630     0.6286630     0.1252190
units angstrom
no_reorient  #important for SAPT in psi4, default
symmetry c1  #important for SAPT in psi4, default
}

set PROPERTIES_ORIGIN ["COM"]
properties('MP2/aug-cc-pvtz', properties = ['dipole'])
--------------------------------------------------------------------------

  Memory set to  29.802 GiB by Python driver.
    SCF Algorithm Type (re)set to DF.

*** tstart() called on node58.bme.utexas.edu
*** at Tue Nov  3 15:27:46 2020

   => Loading Basis Set <=

    Name: AUG-CC-PVTZ
    Role: ORBITAL
    Keyword: BASIS
    atoms 1-3  entry O          line   327 file /home/xy3866/psi4conda/share/psi4/basis/aug-cc-pvtz.gbs 
    atoms 4-8  entry C          line   235 file /home/xy3866/psi4conda/share/psi4/basis/aug-cc-pvtz.gbs 
    atoms 9-16 entry H          line    36 file /home/xy3866/psi4conda/share/psi4/basis/aug-cc-pvtz.gbs 


         ---------------------------------------------------------
                                   SCF
               by Justin Turney, Rob Parrish, Andy Simmonett
                          and Daniel G. A. Smith
                              RHF Reference
                        8 Threads,  30517 MiB Core
         ---------------------------------------------------------

  ==> Geometry <==

    Molecular point group: c1
    Full point group: C1

    Geometry (in Angstrom), charge = 0, multiplicity = 1:

       Center              X                  Y                   Z               Mass       
    ------------   -----------------  -----------------  -----------------  -----------------
         O            1.219214421423    -1.379423514266     0.782843656660    15.994914619570
         O           -2.849868578577    -0.074575514266    -0.290896343340    15.994914619570
         O           -1.247674578577     1.228699485734     0.632962656660    15.994914619570
         C            1.609304421423     0.551200485734    -0.599770343340    12.000000000000
         C            0.796453321423    -0.593028714266    -0.068911543340    12.000000000000
         C           -0.616066578577    -0.766331514266    -0.609594343340    12.000000000000
         C            2.965508421423     0.679190485734     0.073751656660    12.000000000000
         C           -1.562178578577     0.244252485734    -0.011902343340    12.000000000000
         H            1.716205421423     0.399144485734    -1.683103343340     1.007825032230
         H            1.014728421423     1.463516485734    -0.480689343340     1.007825032230
         H           -0.627746278577    -0.645407814266    -1.699803243340     1.007825032230
         H           -0.972632578577    -1.772445514266    -0.374923343340     1.007825032230
         H            3.546876421423    -0.236263514266    -0.047875343340     1.007825032230
         H            3.529687421423     1.511447485734    -0.353758343340     1.007825032230
         H            2.846004421423     0.854589485734     1.144310656660     1.007825032230
         H           -3.390711578577     0.628428485734     0.126491656660     1.007825032230

  Running in c1 symmetry.

  Rotational constants: A =      0.14192  B =      0.03820  C =      0.03423 [cm^-1]
  Rotational constants: A =   4254.79108  B =   1145.26172  C =   1026.10909 [MHz]
  Nuclear repulsion =  372.185170760876019

  Charge       = 0
  Multiplicity = 1
  Electrons    = 62
  Nalpha       = 31
  Nbeta        = 31

  ==> Algorithm <==

  SCF Algorithm Type is DF.
  DIIS enabled.
  MOM disabled.
  Fractional occupation disabled.
  Guess Type is SAD.
  Energy threshold   = 1.00e-10
  Density threshold  = 1.00e-10
  Integral threshold = 0.00e+00

  ==> Primary Basis <==

  Basis Set: AUG-CC-PVTZ
    Blend: AUG-CC-PVTZ
    Number of shells: 184
    Number of basis function: 552
    Number of Cartesian functions: 640
    Spherical Harmonics?: true
    Max angular momentum: 3

   => Loading Basis Set <=

    Name: (AUG-CC-PVTZ AUX)
    Role: JKFIT
    Keyword: DF_BASIS_SCF
    atoms 1-3  entry O          line   286 file /home/xy3866/psi4conda/share/psi4/basis/aug-cc-pvtz-jkfit.gbs 
    atoms 4-8  entry C          line   162 file /home/xy3866/psi4conda/share/psi4/basis/aug-cc-pvtz-jkfit.gbs 
    atoms 9-16 entry H          line    70 file /home/xy3866/psi4conda/share/psi4/basis/aug-cc-pvtz-jkfit.gbs 

  ==> Pre-Iterations <==

   -------------------------------------------------------
    Irrep   Nso     Nmo     Nalpha   Nbeta   Ndocc  Nsocc
   -------------------------------------------------------
     A        552     552       0       0       0       0
   -------------------------------------------------------
    Total     552     552      31      31      31       0
   -------------------------------------------------------

  ==> Integral Setup <==

  DFHelper Memory: AOs need 2.669 GiB; user supplied 22.352 GiB. Using in-core AOs.

  ==> MemDFJK: Density-Fitted J/K Matrices <==

    J tasked:                   Yes
    K tasked:                   Yes
    wK tasked:                   No
    OpenMP threads:               8
    Memory [MiB]:             22888
    Algorithm:                 Disk
    Schwarz Cutoff:           1E-12
    Mask sparsity (%):       5.3390
    Fitting Condition:        1E-10

   => Auxiliary Basis Set <=

  Basis Set: (AUG-CC-PVTZ AUX)
    Blend: AUG-CC-PVTZ-JKFIT
    Number of shells: 352
    Number of basis function: 1200
    Number of Cartesian functions: 1488
    Spherical Harmonics?: true
    Max angular momentum: 4

  Minimum eigenvalue in the overlap matrix is 6.6932047696E-06.
  Using Symmetric Orthogonalization.

  SCF Guess: Superposition of Atomic Densities via on-the-fly atomic UHF.

  ==> Iterations <==

                           Total Energy        Delta E     RMS |[F,P]|

   @DF-RHF iter SAD:  -417.54550123897224   -4.17546e+02   0.00000e+00 
   @DF-RHF iter   1:  -418.45507950942874   -9.09578e-01   1.44223e-03 DIIS
   @DF-RHF iter   2:  -418.67626472188289   -2.21185e-01   9.04597e-04 DIIS
   @DF-RHF iter   3:  -418.76007571308935   -8.38110e-02   1.69811e-04 DIIS
   @DF-RHF iter   4:  -418.76551707731926   -5.44136e-03   7.32652e-05 DIIS
   @DF-RHF iter   5:  -418.76663958941725   -1.12251e-03   1.62801e-05 DIIS
   @DF-RHF iter   6:  -418.76672539696432   -8.58075e-05   8.45667e-06 DIIS
   @DF-RHF iter   7:  -418.76674529188483   -1.98949e-05   3.05717e-06 DIIS
   @DF-RHF iter   8:  -418.76674921301549   -3.92113e-06   1.15137e-06 DIIS
   @DF-RHF iter   9:  -418.76674975214468   -5.39129e-07   4.13596e-07 DIIS
   @DF-RHF iter  10:  -418.76674979864259   -4.64979e-08   1.35246e-07 DIIS
   @DF-RHF iter  11:  -418.76674980289107   -4.24848e-09   4.03869e-08 DIIS
   @DF-RHF iter  12:  -418.76674980335207   -4.61000e-10   1.29753e-08 DIIS
   @DF-RHF iter  13:  -418.76674980342898   -7.69091e-11   4.86681e-09 DIIS
   @DF-RHF iter  14:  -418.76674980344700   -1.80194e-11   2.74907e-09 DIIS
   @DF-RHF iter  15:  -418.76674980345342   -6.42331e-12   1.09931e-09 DIIS
   @DF-RHF iter  16:  -418.76674980345501   -1.59162e-12   3.66147e-10 DIIS
   @DF-RHF iter  17:  -418.76674980345371    1.30740e-12   1.25265e-10 DIIS
   @DF-RHF iter  18:  -418.76674980345473   -1.02318e-12   5.11953e-11 DIIS
  Energy and wave function converged.


  ==> Post-Iterations <==

    Orbital Energies [Eh]
    ---------------------

    Doubly Occupied:                                                      

       1A    -20.633033     2A    -20.570473     3A    -20.555987  
       4A    -11.413653     5A    -11.344619     6A    -11.271634  
       7A    -11.241773     8A    -11.217572     9A     -1.479624  
      10A     -1.383851    11A     -1.375661    12A     -1.086023  
      13A     -1.042892    14A     -0.903185    15A     -0.840252  
      16A     -0.742364    17A     -0.719846    18A     -0.707585  
      19A     -0.680545    20A     -0.648218    21A     -0.632602  
      22A     -0.625077    23A     -0.598786    24A     -0.576725  
      25A     -0.526172    26A     -0.518045    27A     -0.514403  
      28A     -0.502487    29A     -0.490256    30A     -0.468413  
      31A     -0.425884  

    Virtual:                                                              

      32A      0.023474    33A      0.031452    34A      0.036790  
      35A      0.043409    36A      0.051830    37A      0.055867  
      38A      0.061604    39A      0.068111    40A      0.086507  
      41A      0.092979    42A      0.102930    43A      0.108270  
      44A      0.112095    45A      0.116843    46A      0.121244  
      47A      0.125016    48A      0.129210    49A      0.132790  
      50A      0.134757    51A      0.144328    52A      0.148825  
      53A      0.154968    54A      0.157725    55A      0.161905  
      56A      0.166225    57A      0.169078    58A      0.181477  
      59A      0.189987    60A      0.202596    61A      0.208879  
      62A      0.216474    63A      0.228545    64A      0.229614  
      65A      0.239966    66A      0.244719    67A      0.253655  
      68A      0.260116    69A      0.263157    70A      0.266637  
      71A      0.274373    72A      0.283291    73A      0.288896  
      74A      0.291630    75A      0.299925    76A      0.306688  
      77A      0.308942    78A      0.312875    79A      0.321469  
      80A      0.331193    81A      0.341434    82A      0.346160  
      83A      0.357176    84A      0.361493    85A      0.365812  
      86A      0.369665    87A      0.378261    88A      0.380413  
      89A      0.383609    90A      0.388206    91A      0.395642  
      92A      0.401513    93A      0.406744    94A      0.413188  
      95A      0.416295    96A      0.418279    97A      0.428487  
      98A      0.431654    99A      0.441624   100A      0.448112  
     101A      0.450666   102A      0.459540   103A      0.463103  
     104A      0.468690   105A      0.477383   106A      0.481504  
     107A      0.489319   108A      0.490918   109A      0.499829  
     110A      0.506738   111A      0.509471   112A      0.520903  
     113A      0.525859   114A      0.528962   115A      0.532458  
     116A      0.539760   117A      0.555394   118A      0.556820  
     119A      0.560972   120A      0.569575   121A      0.575044  
     122A      0.581896   123A      0.595887   124A      0.597675  
     125A      0.614635   126A      0.621795   127A      0.633758  
     128A      0.634868   129A      0.645336   130A      0.649480  
     131A      0.653763   132A      0.668653   133A      0.685538  
     134A      0.692437   135A      0.710920   136A      0.717572  
     137A      0.729524   138A      0.739718   139A      0.749777  
     140A      0.771706   141A      0.775801   142A      0.793538  
     143A      0.795261   144A      0.802538   145A      0.812287  
     146A      0.814467   147A      0.816444   148A      0.828489  
     149A      0.832721   150A      0.845222   151A      0.850149  
     152A      0.851199   153A      0.861023   154A      0.866220  
     155A      0.873397   156A      0.883788   157A      0.887936  
     158A      0.892203   159A      0.902410   160A      0.908513  
     161A      0.916409   162A      0.924295   163A      0.933471  
     164A      0.933810   165A      0.938255   166A      0.949600  
     167A      0.954469   168A      0.964945   169A      0.968338  
     170A      0.973054   171A      0.978552   172A      0.985425  
     173A      1.000635   174A      1.008736   175A      1.014292  
     176A      1.024821   177A      1.029874   178A      1.035305  
     179A      1.044966   180A      1.051215   181A      1.061982  
     182A      1.069760   183A      1.072097   184A      1.084437  
     185A      1.090514   186A      1.099796   187A      1.105779  
     188A      1.107734   189A      1.119712   190A      1.121428  
     191A      1.136978   192A      1.140343   193A      1.150516  
     194A      1.164100   195A      1.165858   196A      1.169793  
     197A      1.187389   198A      1.199566   199A      1.202487  
     200A      1.207518   201A      1.215501   202A      1.225983  
     203A      1.229310   204A      1.241565   205A      1.255124  
     206A      1.258784   207A      1.269901   208A      1.283981  
     209A      1.294241   210A      1.309359   211A      1.313922  
     212A      1.318126   213A      1.333151   214A      1.343530  
     215A      1.354535   216A      1.360979   217A      1.374194  
     218A      1.380433   219A      1.388640   220A      1.406246  
     221A      1.414365   222A      1.423846   223A      1.440145  
     224A      1.450718   225A      1.452045   226A      1.465627  
     227A      1.481164   228A      1.490668   229A      1.498809  
     230A      1.515273   231A      1.525757   232A      1.537286  
     233A      1.543207   234A      1.557639   235A      1.559386  
     236A      1.581902   237A      1.590013   238A      1.598246  
     239A      1.605391   240A      1.614476   241A      1.625285  
     242A      1.630304   243A      1.634843   244A      1.657037  
     245A      1.662444   246A      1.668702   247A      1.678414  
     248A      1.686731   249A      1.697061   250A      1.710116  
     251A      1.713801   252A      1.718336   253A      1.727293  
     254A      1.736127   255A      1.745498   256A      1.748732  
     257A      1.761023   258A      1.777636   259A      1.803282  
     260A      1.806746   261A      1.818842   262A      1.821001  
     263A      1.833626   264A      1.845205   265A      1.869684  
     266A      1.878146   267A      1.890051   268A      1.905183  
     269A      1.907516   270A      1.914269   271A      1.936455  
     272A      1.937761   273A      1.950815   274A      1.957605  
     275A      1.970692   276A      1.974996   277A      1.984529  
     278A      2.005765   279A      2.022324   280A      2.039272  
     281A      2.040704   282A      2.057668   283A      2.065173  
     284A      2.089209   285A      2.106098   286A      2.122185  
     287A      2.128726   288A      2.152960   289A      2.170706  
     290A      2.186412   291A      2.213172   292A      2.226350  
     293A      2.244761   294A      2.250305   295A      2.266376  
     296A      2.268330   297A      2.290680   298A      2.303233  
     299A      2.313923   300A      2.336390   301A      2.347653  
     302A      2.352065   303A      2.363618   304A      2.396185  
     305A      2.400030   306A      2.418126   307A      2.425156  
     308A      2.443905   309A      2.472768   310A      2.491981  
     311A      2.507621   312A      2.515953   313A      2.517869  
     314A      2.544300   315A      2.574739   316A      2.587881  
     317A      2.591216   318A      2.606859   319A      2.623471  
     320A      2.643066   321A      2.650479   322A      2.666306  
     323A      2.678564   324A      2.692722   325A      2.719977  
     326A      2.739477   327A      2.759248   328A      2.780351  
     329A      2.782661   330A      2.799470   331A      2.833484  
     332A      2.841751   333A      2.855697   334A      2.886523  
     335A      2.903862   336A      2.920612   337A      2.968051  
     338A      2.992631   339A      2.999971   340A      3.023644  
     341A      3.050411   342A      3.072348   343A      3.094480  
     344A      3.102804   345A      3.117846   346A      3.156696  
     347A      3.168855   348A      3.185820   349A      3.217502  
     350A      3.271887   351A      3.324429   352A      3.343931  
     353A      3.357426   354A      3.370600   355A      3.383601  
     356A      3.411987   357A      3.431533   358A      3.435743  
     359A      3.473040   360A      3.482810   361A      3.500389  
     362A      3.512794   363A      3.539811   364A      3.559879  
     365A      3.570796   366A      3.574455   367A      3.607849  
     368A      3.616877   369A      3.642854   370A      3.649139  
     371A      3.662014   372A      3.676463   373A      3.706520  
     374A      3.714032   375A      3.730345   376A      3.745016  
     377A      3.751580   378A      3.769675   379A      3.774800  
     380A      3.797377   381A      3.802206   382A      3.816185  
     383A      3.820117   384A      3.853581   385A      3.869165  
     386A      3.881278   387A      3.915793   388A      3.927744  
     389A      3.941298   390A      3.952060   391A      3.964796  
     392A      3.968500   393A      3.990041   394A      4.005903  
     395A      4.029392   396A      4.040788   397A      4.044647  
     398A      4.062535   399A      4.074935   400A      4.091109  
     401A      4.101273   402A      4.116325   403A      4.133180  
     404A      4.162405   405A      4.170961   406A      4.182861  
     407A      4.193228   408A      4.217846   409A      4.234847  
     410A      4.247246   411A      4.261659   412A      4.281127  
     413A      4.291602   414A      4.320043   415A      4.325416  
     416A      4.338507   417A      4.354290   418A      4.357407  
     419A      4.385718   420A      4.402139   421A      4.420042  
     422A      4.442368   423A      4.457063   424A      4.485638  
     425A      4.491385   426A      4.513180   427A      4.521247  
     428A      4.528143   429A      4.552575   430A      4.586936  
     431A      4.597292   432A      4.618164   433A      4.635702  
     434A      4.651935   435A      4.668398   436A      4.672252  
     437A      4.708748   438A      4.732540   439A      4.745946  
     440A      4.774018   441A      4.780341   442A      4.820774  
     443A      4.838240   444A      4.843447   445A      4.863920  
     446A      4.869815   447A      4.884066   448A      4.907628  
     449A      4.921451   450A      4.951826   451A      4.969869  
     452A      5.023544   453A      5.031498   454A      5.053122  
     455A      5.068609   456A      5.095469   457A      5.112530  
     458A      5.132528   459A      5.173848   460A      5.190086  
     461A      5.207495   462A      5.231017   463A      5.239871  
     464A      5.248919   465A      5.257628   466A      5.270652  
     467A      5.318897   468A      5.329250   469A      5.387877  
     470A      5.401877   471A      5.417353   472A      5.424394  
     473A      5.436536   474A      5.455918   475A      5.458833  
     476A      5.499173   477A      5.531013   478A      5.556263  
     479A      5.564567   480A      5.578823   481A      5.609276  
     482A      5.626441   483A      5.681211   484A      5.726045  
     485A      5.741900   486A      5.773314   487A      5.833690  
     488A      5.862781   489A      5.901727   490A      5.982076  
     491A      6.015894   492A      6.044261   493A      6.094208  
     494A      6.112369   495A      6.120290   496A      6.169247  
     497A      6.223084   498A      6.231203   499A      6.266117  
     500A      6.343370   501A      6.422394   502A      6.467345  
     503A      6.529749   504A      6.611155   505A      6.734157  
     506A      6.754602   507A      6.756544   508A      6.778442  
     509A      6.794470   510A      6.807033   511A      6.835537  
     512A      6.853264   513A      6.875857   514A      6.887841  
     515A      6.902924   516A      7.010263   517A      7.059526  
     518A      7.080008   519A      7.128406   520A      7.193518  
     521A      7.242726   522A      7.254935   523A      7.261503  
     524A      7.342711   525A      7.366010   526A      7.389005  
     527A      7.405083   528A      7.427342   529A      7.491661  
     530A      7.514850   531A      7.544350   532A      7.555159  
     533A      7.615466   534A      7.646543   535A      7.695523  
     536A      7.707182   537A      7.744057   538A      7.859843  
     539A      7.926477   540A      7.972188   541A      8.023176  
     542A      8.065743   543A      8.233071   544A      8.519697  
     545A     15.122414   546A     15.537939   547A     15.845008  
     548A     16.819666   549A     17.536637   550A     18.378054  
     551A     18.781416   552A     20.376212  

    Final Occupation by Irrep:
              A 
    DOCC [    31 ]

  @DF-RHF Final Energy:  -418.76674980345473

   => Energetics <=

    Nuclear Repulsion Energy =            372.1851707608760194
    One-Electron Energy =               -1310.4285609196826954
    Two-Electron Energy =                 519.4766403553520604
    Total Energy =                       -418.7667498034546725

Computation Completed

*** tstop() called on node58.bme.utexas.edu at Tue Nov  3 15:28:29 2020
Module time:
	user time   =     182.57 seconds =       3.04 minutes
	system time =      25.62 seconds =       0.43 minutes
	total time  =         43 seconds =       0.72 minutes
Total time:
	user time   =     182.57 seconds =       3.04 minutes
	system time =      25.62 seconds =       0.43 minutes
	total time  =         43 seconds =       0.72 minutes
   => Loading Basis Set <=

    Name: (AUG-CC-PVTZ AUX)
    Role: RIFIT
    Keyword: DF_BASIS_MP2
    atoms 1-3  entry O          line   264 file /home/xy3866/psi4conda/share/psi4/basis/aug-cc-pvtz-ri.gbs 
    atoms 4-8  entry C          line   148 file /home/xy3866/psi4conda/share/psi4/basis/aug-cc-pvtz-ri.gbs 
    atoms 9-16 entry H          line    30 file /home/xy3866/psi4conda/share/psi4/basis/aug-cc-pvtz-ri.gbs 


*** tstart() called on node58.bme.utexas.edu
*** at Tue Nov  3 15:28:29 2020


  //>>>>>>>>>>>>>>>>>>>>>>>>>>>>>>>>>>>//
  //               DFMP2               //
  //<<<<<<<<<<<<<<<<<<<<<<<<<<<<<<<<<<<//

	 --------------------------------------------------------
	                          DF-MP2                         
	      2nd-Order Density-Fitted Moller-Plesset Theory     
	              RMP2 Wavefunction,   8 Threads             
	                                                         
	        Rob Parrish, Justin Turney, Andy Simmonett,      
	           Ed Hohenstein, and C. David Sherrill          
	 --------------------------------------------------------

   => Auxiliary Basis Set <=

  Basis Set: (AUG-CC-PVTZ AUX)
    Blend: AUG-CC-PVTZ-RI
    Number of shells: 336
    Number of basis function: 1216
    Number of Cartesian functions: 1528
    Spherical Harmonics?: true
    Max angular momentum: 4

	 --------------------------------------------------------
	                 NBF =   552, NAUX =  1216
	 --------------------------------------------------------
	   CLASS    FOCC     OCC    AOCC    AVIR     VIR    FVIR
	   PAIRS       0      31      31     521     521       0
	 --------------------------------------------------------

  DFHelper Memory: AOs need 2.669 GiB; user supplied 22.352 GiB. Using in-core AOs.


         ------------------------------------------------------------
                                     CPHF                           
                                  Rob Parrish                       
         ------------------------------------------------------------

  ==> Geometry <==

    Molecular point group: c1
    Full point group: C1

    Geometry (in Angstrom), charge = 0, multiplicity = 1:

       Center              X                  Y                   Z               Mass       
    ------------   -----------------  -----------------  -----------------  -----------------
         O            1.219214421423    -1.379423514266     0.782843656660    15.994914619570
         O           -2.849868578577    -0.074575514266    -0.290896343340    15.994914619570
         O           -1.247674578577     1.228699485734     0.632962656660    15.994914619570
         C            1.609304421423     0.551200485734    -0.599770343340    12.000000000000
         C            0.796453321423    -0.593028714266    -0.068911543340    12.000000000000
         C           -0.616066578577    -0.766331514266    -0.609594343340    12.000000000000
         C            2.965508421423     0.679190485734     0.073751656660    12.000000000000
         C           -1.562178578577     0.244252485734    -0.011902343340    12.000000000000
         H            1.716205421423     0.399144485734    -1.683103343340     1.007825032230
         H            1.014728421423     1.463516485734    -0.480689343340     1.007825032230
         H           -0.627746278577    -0.645407814266    -1.699803243340     1.007825032230
         H           -0.972632578577    -1.772445514266    -0.374923343340     1.007825032230
         H            3.546876421423    -0.236263514266    -0.047875343340     1.007825032230
         H            3.529687421423     1.511447485734    -0.353758343340     1.007825032230
         H            2.846004421423     0.854589485734     1.144310656660     1.007825032230
         H           -3.390711578577     0.628428485734     0.126491656660     1.007825032230

  Nuclear repulsion =  372.185170760876019
  Reference energy  = -418.766749803454729

  ==> Basis Set <==

  Basis Set: AUG-CC-PVTZ
    Blend: AUG-CC-PVTZ
    Number of shells: 184
    Number of basis function: 552
    Number of Cartesian functions: 640
    Spherical Harmonics?: true
    Max angular momentum: 3

  ==> CGRSolver (by Rob Parrish) <==

   Number of roots    =         1
   Preconditioning    =    JACOBI
   Convergence cutoff =     1E-06
   Maximum iterations =       100

  ==> CPHFRHamiltonian (by Rob Parrish) <== 

  ==> MemDFJK: Density-Fitted J/K Matrices <==

    J tasked:                   Yes
    K tasked:                   Yes
    wK tasked:                   No
    OpenMP threads:               8
    Memory [MiB]:             22888
    Algorithm:                 Disk
    Schwarz Cutoff:           1E-12
    Mask sparsity (%):       5.3390
    Fitting Condition:        1E-10

   => Auxiliary Basis Set <=

  Basis Set: (AUG-CC-PVTZ AUX)
    Blend: AUG-CC-PVTZ-JKFIT
    Number of shells: 352
    Number of basis function: 1200
    Number of Cartesian functions: 1488
    Spherical Harmonics?: true
    Max angular momentum: 4

  ==> CPHF Iterations <==

  => Iterations <=

             Iter  Converged  Remaining    Residual
  CGR           1          0          1   1.167E-01
  CGR           2          0          1   3.433E-02
  CGR           3          0          1   1.183E-02
  CGR           4          0          1   4.007E-03
  CGR           5          0          1   1.737E-03
  CGR           6          0          1   6.289E-04
  CGR           7          0          1   2.239E-04
  CGR           8          0          1   9.211E-05
  CGR           9          0          1   3.434E-05
  CGR          10          0          1   9.979E-06
  CGR          11          0          1   3.596E-06
  CGR          12          0          1   1.918E-06
  CGR          13          1          0   8.351E-07

    CGRSolver converged.

	-----------------------------------------------------------
	 ==================> DF-MP2 Energies <==================== 
	-----------------------------------------------------------
	 Reference Energy          =    -418.7667498034547293 [Eh]
	 Singles Energy            =      -0.0000000000000000 [Eh]
	 Same-Spin Energy          =      -0.4084944963436911 [Eh]
	 Opposite-Spin Energy      =      -1.2871237144538330 [Eh]
	 Correlation Energy        =      -1.6956182107975240 [Eh]
	 Total Energy              =    -420.4623680142522630 [Eh]
	-----------------------------------------------------------
	 ================> DF-SCS-MP2 Energies <================== 
	-----------------------------------------------------------
	 SCS Same-Spin Scale       =       0.3333333333333333 [-]
	 SCS Opposite-Spin Scale   =       1.2000000000000000 [-]
	 SCS Same-Spin Energy      =      -0.1361648321145637 [Eh]
	 SCS Opposite-Spin Energy  =      -1.5445484573445996 [Eh]
	 SCS Correlation Energy    =      -1.6807132894591632 [Eh]
	 SCS Total Energy          =    -420.4474630929138925 [Eh]
	-----------------------------------------------------------



Properties will be evaluated at   0.000000,  -0.000000,   0.000000 [a0]

Properties computed using the MP2 density matrix

  Nuclear Dipole Moment: [e a0]
     X:     7.1694      Y:     2.0642      Z:    -3.1533

  Electronic Dipole Moment: [e a0]
     X:    -7.6954      Y:    -1.7430      Z:     2.1375

  Dipole Moment: [e a0]
     X:    -0.5260      Y:     0.3212      Z:    -1.0158     Total:     1.1881

  Dipole Moment: [D]
     X:    -1.3369      Y:     0.8164      Z:    -2.5819     Total:     3.0200


*** tstop() called on node58.bme.utexas.edu at Tue Nov  3 15:30:01 2020
Module time:
	user time   =     509.93 seconds =       8.50 minutes
	system time =      27.52 seconds =       0.46 minutes
	total time  =         92 seconds =       1.53 minutes
Total time:
	user time   =     693.81 seconds =      11.56 minutes
	system time =      53.19 seconds =       0.89 minutes
	total time  =        135 seconds =       2.25 minutes

    Psi4 stopped on: Tuesday, 03 November 2020 03:30PM
    Psi4 wall time for execution: 0:02:14.70

*** Psi4 exiting successfully. Buy a developer a beer!
