
    -----------------------------------------------------------------------
          Psi4: An Open-Source Ab Initio Electronic Structure Package
                               Psi4 1.3.2 release

                         Git: Rev {HEAD} ecbda83 


    R. M. Parrish, L. A. Burns, D. G. A. Smith, A. C. Simmonett,
    A. E. DePrince III, E. G. Hohenstein, U. Bozkaya, A. Yu. Sokolov,
    R. Di Remigio, R. M. Richard, J. F. Gonthier, A. M. James,
    H. R. McAlexander, A. Kumar, M. Saitow, X. Wang, B. P. Pritchard,
    P. Verma, H. F. Schaefer III, K. Patkowski, R. A. King, E. F. Valeev,
    F. A. Evangelista, J. M. Turney, T. D. Crawford, and C. D. Sherrill,
    J. Chem. Theory Comput. 13(7) pp 3185--3197 (2017).
    (doi: 10.1021/acs.jctc.7b00174)


                         Additional Contributions by
    P. Kraus, H. Kruse, M. H. Lechner, M. C. Schieber, R. A. Shaw,
    A. Alenaizan, R. Galvelis, Z. L. Glick, S. Lehtola, and J. P. Misiewicz

    -----------------------------------------------------------------------


    Psi4 started on: Tuesday, 03 November 2020 04:10PM

    Process ID: 10761
    Host:       node58.bme.utexas.edu
    PSIDATADIR: /home/xy3866/psi4conda/share/psi4
    Memory:     500.0 MiB
    Threads:    8
    
  ==> Input File <==

--------------------------------------------------------------------------
#psi4
#
memory 32 gb

molecule  {
0 1
  O        1.2197630    -1.3791890     0.7815710
  O       -2.8493200    -0.0743410    -0.2921690
  O       -1.2471260     1.2289340     0.6316900
  C        1.6098530     0.5514350    -0.6010430
  C        0.7924890    -0.5949300    -0.0578730
  C       -0.7080064    -0.7773405    -0.6471918
  C        2.9660570     0.6794250     0.0724790
  C       -1.5616300     0.2444870    -0.0131750
  H        1.7167540     0.3993790    -1.6843760
  H        1.0152770     1.4637510    -0.4819620
  H       -0.6366420    -0.6467360    -1.7011060
  H       -0.9720840    -1.7722110    -0.3761960
  H        3.5474250    -0.2360290    -0.0491480
  H        3.5302360     1.5116820    -0.3550310
  H        2.8465530     0.8548240     1.1430380
  H       -3.3901630     0.6286630     0.1252190
units angstrom
no_reorient  #important for SAPT in psi4, default
symmetry c1  #important for SAPT in psi4, default
}

set PROPERTIES_ORIGIN ["COM"]
properties('MP2/aug-cc-pvtz', properties = ['dipole'])
--------------------------------------------------------------------------

  Memory set to  29.802 GiB by Python driver.
    SCF Algorithm Type (re)set to DF.

*** tstart() called on node58.bme.utexas.edu
*** at Tue Nov  3 16:10:07 2020

   => Loading Basis Set <=

    Name: AUG-CC-PVTZ
    Role: ORBITAL
    Keyword: BASIS
    atoms 1-3  entry O          line   327 file /home/xy3866/psi4conda/share/psi4/basis/aug-cc-pvtz.gbs 
    atoms 4-8  entry C          line   235 file /home/xy3866/psi4conda/share/psi4/basis/aug-cc-pvtz.gbs 
    atoms 9-16 entry H          line    36 file /home/xy3866/psi4conda/share/psi4/basis/aug-cc-pvtz.gbs 


         ---------------------------------------------------------
                                   SCF
               by Justin Turney, Rob Parrish, Andy Simmonett
                          and Daniel G. A. Smith
                              RHF Reference
                        8 Threads,  30517 MiB Core
         ---------------------------------------------------------

  ==> Geometry <==

    Molecular point group: c1
    Full point group: C1

    Geometry (in Angstrom), charge = 0, multiplicity = 1:

       Center              X                  Y                   Z               Mass       
    ------------   -----------------  -----------------  -----------------  -----------------
         O            1.229326964807    -1.378026441982     0.785327070113    15.994914619570
         O           -2.839756035193    -0.073178441982    -0.288412929887    15.994914619570
         O           -1.237562035193     1.230096558018     0.635446070113    15.994914619570
         C            1.619416964807     0.552597558018    -0.597286929887    12.000000000000
         C            0.802052964807    -0.593767441982    -0.054116929887    12.000000000000
         C           -0.698442435193    -0.776177941982    -0.643435729887    12.000000000000
         C            2.975620964807     0.680587558018     0.076235070113    12.000000000000
         C           -1.552066035193     0.245649558018    -0.009418929887    12.000000000000
         H            1.726317964807     0.400541558018    -1.680619929887     1.007825032230
         H            1.024840964807     1.464913558018    -0.478205929887     1.007825032230
         H           -0.627078035193    -0.645573441982    -1.697349929887     1.007825032230
         H           -0.962520035193    -1.771048441982    -0.372439929887     1.007825032230
         H            3.556988964807    -0.234866441982    -0.045391929887     1.007825032230
         H            3.539799964807     1.512844558018    -0.351274929887     1.007825032230
         H            2.856116964807     0.855986558018     1.146794070113     1.007825032230
         H           -3.380599035193     0.629825558018     0.128975070113     1.007825032230

  Running in c1 symmetry.

  Rotational constants: A =      0.14103  B =      0.03804  C =      0.03411 [cm^-1]
  Rotational constants: A =   4227.97901  B =   1140.43284  C =   1022.61211 [MHz]
  Nuclear repulsion =  371.458625328550170

  Charge       = 0
  Multiplicity = 1
  Electrons    = 62
  Nalpha       = 31
  Nbeta        = 31

  ==> Algorithm <==

  SCF Algorithm Type is DF.
  DIIS enabled.
  MOM disabled.
  Fractional occupation disabled.
  Guess Type is SAD.
  Energy threshold   = 1.00e-10
  Density threshold  = 1.00e-10
  Integral threshold = 0.00e+00

  ==> Primary Basis <==

  Basis Set: AUG-CC-PVTZ
    Blend: AUG-CC-PVTZ
    Number of shells: 184
    Number of basis function: 552
    Number of Cartesian functions: 640
    Spherical Harmonics?: true
    Max angular momentum: 3

   => Loading Basis Set <=

    Name: (AUG-CC-PVTZ AUX)
    Role: JKFIT
    Keyword: DF_BASIS_SCF
    atoms 1-3  entry O          line   286 file /home/xy3866/psi4conda/share/psi4/basis/aug-cc-pvtz-jkfit.gbs 
    atoms 4-8  entry C          line   162 file /home/xy3866/psi4conda/share/psi4/basis/aug-cc-pvtz-jkfit.gbs 
    atoms 9-16 entry H          line    70 file /home/xy3866/psi4conda/share/psi4/basis/aug-cc-pvtz-jkfit.gbs 

  ==> Pre-Iterations <==

   -------------------------------------------------------
    Irrep   Nso     Nmo     Nalpha   Nbeta   Ndocc  Nsocc
   -------------------------------------------------------
     A        552     552       0       0       0       0
   -------------------------------------------------------
    Total     552     552      31      31      31       0
   -------------------------------------------------------

  ==> Integral Setup <==

  DFHelper Memory: AOs need 2.668 GiB; user supplied 22.352 GiB. Using in-core AOs.

  ==> MemDFJK: Density-Fitted J/K Matrices <==

    J tasked:                   Yes
    K tasked:                   Yes
    wK tasked:                   No
    OpenMP threads:               8
    Memory [MiB]:             22888
    Algorithm:                 Disk
    Schwarz Cutoff:           1E-12
    Mask sparsity (%):       5.3777
    Fitting Condition:        1E-10

   => Auxiliary Basis Set <=

  Basis Set: (AUG-CC-PVTZ AUX)
    Blend: AUG-CC-PVTZ-JKFIT
    Number of shells: 352
    Number of basis function: 1200
    Number of Cartesian functions: 1488
    Spherical Harmonics?: true
    Max angular momentum: 4

  Minimum eigenvalue in the overlap matrix is 7.9520744773E-06.
  Using Symmetric Orthogonalization.

  SCF Guess: Superposition of Atomic Densities via on-the-fly atomic UHF.

  ==> Iterations <==

                           Total Energy        Delta E     RMS |[F,P]|

   @DF-RHF iter SAD:  -417.49498123182775   -4.17495e+02   0.00000e+00 
   @DF-RHF iter   1:  -418.45309359887119   -9.58112e-01   1.43558e-03 DIIS
   @DF-RHF iter   2:  -418.67127005285363   -2.18176e-01   8.89527e-04 DIIS
   @DF-RHF iter   3:  -418.75196331250083   -8.06933e-02   1.68104e-04 DIIS
   @DF-RHF iter   4:  -418.75726926766743   -5.30596e-03   7.19974e-05 DIIS
   @DF-RHF iter   5:  -418.75835459871456   -1.08533e-03   1.61820e-05 DIIS
   @DF-RHF iter   6:  -418.75843732040886   -8.27217e-05   8.27416e-06 DIIS
   @DF-RHF iter   7:  -418.75845677798173   -1.94576e-05   2.92853e-06 DIIS
   @DF-RHF iter   8:  -418.75846052059757   -3.74262e-06   1.06835e-06 DIIS
   @DF-RHF iter   9:  -418.75846101398406   -4.93386e-07   3.32601e-07 DIIS
   @DF-RHF iter  10:  -418.75846104923028   -3.52462e-08   1.13553e-07 DIIS
   @DF-RHF iter  11:  -418.75846105189828   -2.66800e-09   4.30081e-08 DIIS
   @DF-RHF iter  12:  -418.75846105227612   -3.77838e-10   1.09386e-08 DIIS
   @DF-RHF iter  13:  -418.75846105232392   -4.78053e-11   3.51476e-09 DIIS
   @DF-RHF iter  14:  -418.75846105233114   -7.21911e-12   1.93448e-09 DIIS
   @DF-RHF iter  15:  -418.75846105233370   -2.55795e-12   8.55013e-10 DIIS
   @DF-RHF iter  16:  -418.75846105233364    5.68434e-14   3.37166e-10 DIIS
   @DF-RHF iter  17:  -418.75846105233472   -1.08002e-12   1.42506e-10 DIIS
   @DF-RHF iter  18:  -418.75846105233416    5.68434e-13   5.00853e-11 DIIS
  Energy and wave function converged.


  ==> Post-Iterations <==

    Orbital Energies [Eh]
    ---------------------

    Doubly Occupied:                                                      

       1A    -20.629235     2A    -20.572158     3A    -20.557879  
       4A    -11.411251     5A    -11.348461     6A    -11.268183  
       7A    -11.242297     8A    -11.217702     9A     -1.479258  
      10A     -1.387563    11A     -1.375864    12A     -1.081088  
      13A     -1.044839    14A     -0.899958    15A     -0.837046  
      16A     -0.739414    17A     -0.719161    18A     -0.709443  
      19A     -0.684714    20A     -0.642737    21A     -0.631876  
      22A     -0.616944    23A     -0.603551    24A     -0.584763  
      25A     -0.528927    26A     -0.519248    27A     -0.515305  
      28A     -0.503150    29A     -0.491215    30A     -0.473404  
      31A     -0.413840  

    Virtual:                                                              

      32A      0.023789    33A      0.031688    34A      0.037093  
      35A      0.043202    36A      0.051978    37A      0.055814  
      38A      0.061661    39A      0.068111    40A      0.086507  
      41A      0.092423    42A      0.102682    43A      0.108426  
      44A      0.112864    45A      0.116890    46A      0.121440  
      47A      0.127156    48A      0.129690    49A      0.132792  
      50A      0.137388    51A      0.143410    52A      0.148909  
      53A      0.154594    54A      0.157558    55A      0.161372  
      56A      0.165871    57A      0.168948    58A      0.182177  
      59A      0.189115    60A      0.202741    61A      0.208717  
      62A      0.215481    63A      0.228737    64A      0.230170  
      65A      0.240310    66A      0.244824    67A      0.252373  
      68A      0.259797    69A      0.260670    70A      0.266607  
      71A      0.274198    72A      0.281242    73A      0.289584  
      74A      0.291365    75A      0.298380    76A      0.306382  
      77A      0.310862    78A      0.317015    79A      0.323297  
      80A      0.331546    81A      0.340966    82A      0.347103  
      83A      0.356499    84A      0.361063    85A      0.362145  
      86A      0.369362    87A      0.376295    88A      0.380634  
      89A      0.382529    90A      0.387424    91A      0.396007  
      92A      0.396414    93A      0.402854    94A      0.413721  
      95A      0.416650    96A      0.417743    97A      0.427027  
      98A      0.430746    99A      0.437418   100A      0.448085  
     101A      0.452148   102A      0.459579   103A      0.462032  
     104A      0.469972   105A      0.475843   106A      0.482397  
     107A      0.486258   108A      0.491358   109A      0.500753  
     110A      0.504664   111A      0.509045   112A      0.521536  
     113A      0.523889   114A      0.529263   115A      0.534026  
     116A      0.538931   117A      0.553758   118A      0.558729  
     119A      0.560122   120A      0.567283   121A      0.573225  
     122A      0.580407   123A      0.593498   124A      0.598731  
     125A      0.612628   126A      0.618503   127A      0.633917  
     128A      0.635692   129A      0.645016   130A      0.650226  
     131A      0.653259   132A      0.664963   133A      0.681525  
     134A      0.686598   135A      0.707766   136A      0.720780  
     137A      0.727784   138A      0.738723   139A      0.749027  
     140A      0.774779   141A      0.776544   142A      0.790103  
     143A      0.793883   144A      0.801898   145A      0.810475  
     146A      0.813897   147A      0.816818   148A      0.828980  
     149A      0.831824   150A      0.844706   151A      0.850265  
     152A      0.852480   153A      0.862018   154A      0.866738  
     155A      0.871566   156A      0.882089   157A      0.886460  
     158A      0.895103   159A      0.901129   160A      0.908735  
     161A      0.915481   162A      0.926198   163A      0.929688  
     164A      0.932095   165A      0.941305   166A      0.948908  
     167A      0.953656   168A      0.964969   169A      0.969015  
     170A      0.972009   171A      0.982565   172A      0.986383  
     173A      1.001842   174A      1.008815   175A      1.018476  
     176A      1.024339   177A      1.029791   178A      1.034194  
     179A      1.044530   180A      1.052449   181A      1.060201  
     182A      1.069061   183A      1.070522   184A      1.083871  
     185A      1.087101   186A      1.091726   187A      1.104144  
     188A      1.107978   189A      1.120359   190A      1.126834  
     191A      1.136430   192A      1.140273   193A      1.149932  
     194A      1.163458   195A      1.166950   196A      1.169991  
     197A      1.186259   198A      1.198579   199A      1.203165  
     200A      1.208547   201A      1.215112   202A      1.225351  
     203A      1.232793   204A      1.242862   205A      1.254279  
     206A      1.259982   207A      1.269603   208A      1.285110  
     209A      1.294334   210A      1.304262   211A      1.313809  
     212A      1.316680   213A      1.328309   214A      1.346101  
     215A      1.354888   216A      1.361233   217A      1.375121  
     218A      1.381748   219A      1.387560   220A      1.408635  
     221A      1.417019   222A      1.426088   223A      1.439203  
     224A      1.450330   225A      1.451767   226A      1.463702  
     227A      1.482234   228A      1.494850   229A      1.498011  
     230A      1.514955   231A      1.522737   232A      1.534013  
     233A      1.542654   234A      1.552284   235A      1.558959  
     236A      1.575143   237A      1.583587   238A      1.595254  
     239A      1.599799   240A      1.613417   241A      1.615356  
     242A      1.631123   243A      1.634875   244A      1.653480  
     245A      1.662732   246A      1.666780   247A      1.680696  
     248A      1.683751   249A      1.698096   250A      1.708381  
     251A      1.712877   252A      1.719108   253A      1.726637  
     254A      1.737280   255A      1.742343   256A      1.749879  
     257A      1.762088   258A      1.778384   259A      1.797714  
     260A      1.803865   261A      1.818852   262A      1.820912  
     263A      1.834335   264A      1.845546   265A      1.867993  
     266A      1.874400   267A      1.879123   268A      1.905965  
     269A      1.913759   270A      1.924469   271A      1.933454  
     272A      1.943784   273A      1.947571   274A      1.959972  
     275A      1.969445   276A      1.972297   277A      1.982141  
     278A      2.007946   279A      2.018902   280A      2.031348  
     281A      2.042282   282A      2.052175   283A      2.060733  
     284A      2.080151   285A      2.094921   286A      2.103404  
     287A      2.124211   288A      2.150018   289A      2.159923  
     290A      2.194570   291A      2.213641   292A      2.213845  
     293A      2.236252   294A      2.250585   295A      2.251727  
     296A      2.278064   297A      2.288514   298A      2.309615  
     299A      2.318907   300A      2.330281   301A      2.347557  
     302A      2.352829   303A      2.370038   304A      2.382763  
     305A      2.399490   306A      2.411921   307A      2.419811  
     308A      2.447351   309A      2.468495   310A      2.489764  
     311A      2.500973   312A      2.507418   313A      2.518574  
     314A      2.541397   315A      2.572722   316A      2.584330  
     317A      2.595207   318A      2.602014   319A      2.617251  
     320A      2.638099   321A      2.648768   322A      2.666704  
     323A      2.674289   324A      2.691088   325A      2.696391  
     326A      2.730458   327A      2.755297   328A      2.756123  
     329A      2.781443   330A      2.801609   331A      2.823979  
     332A      2.831283   333A      2.857679   334A      2.877800  
     335A      2.910919   336A      2.916730   337A      2.968035  
     338A      2.987865   339A      3.008574   340A      3.019961  
     341A      3.056676   342A      3.072009   343A      3.087691  
     344A      3.109380   345A      3.124397   346A      3.144809  
     347A      3.164918   348A      3.189972   349A      3.204504  
     350A      3.275327   351A      3.308032   352A      3.328246  
     353A      3.353345   354A      3.368826   355A      3.390403  
     356A      3.403046   357A      3.421891   358A      3.439160  
     359A      3.465289   360A      3.484111   361A      3.496344  
     362A      3.503129   363A      3.535022   364A      3.553662  
     365A      3.567818   366A      3.572099   367A      3.607182  
     368A      3.613643   369A      3.634264   370A      3.646457  
     371A      3.657913   372A      3.670405   373A      3.699563  
     374A      3.718745   375A      3.723690   376A      3.737595  
     377A      3.746427   378A      3.760213   379A      3.778539  
     380A      3.791316   381A      3.797656   382A      3.812093  
     383A      3.829012   384A      3.860883   385A      3.865178  
     386A      3.901773   387A      3.907908   388A      3.917363  
     389A      3.946841   390A      3.951085   391A      3.968563  
     392A      3.979251   393A      3.987727   394A      4.013657  
     395A      4.023001   396A      4.034086   397A      4.045055  
     398A      4.062496   399A      4.073321   400A      4.089468  
     401A      4.102641   402A      4.119612   403A      4.127696  
     404A      4.151279   405A      4.160332   406A      4.178312  
     407A      4.194831   408A      4.215315   409A      4.238810  
     410A      4.247366   411A      4.265683   412A      4.280068  
     413A      4.287554   414A      4.305053   415A      4.320622  
     416A      4.339920   417A      4.366833   418A      4.372237  
     419A      4.378225   420A      4.401230   421A      4.411976  
     422A      4.447659   423A      4.457922   424A      4.480957  
     425A      4.498278   426A      4.503021   427A      4.520546  
     428A      4.534783   429A      4.552133   430A      4.576018  
     431A      4.586342   432A      4.618188   433A      4.630680  
     434A      4.642871   435A      4.657470   436A      4.685826  
     437A      4.694761   438A      4.736302   439A      4.748652  
     440A      4.775537   441A      4.793477   442A      4.813906  
     443A      4.835812   444A      4.840378   445A      4.862705  
     446A      4.868728   447A      4.880070   448A      4.898847  
     449A      4.936325   450A      4.952057   451A      4.979960  
     452A      5.015807   453A      5.024017   454A      5.057787  
     455A      5.078684   456A      5.109121   457A      5.110706  
     458A      5.161718   459A      5.174467   460A      5.189279  
     461A      5.211399   462A      5.219128   463A      5.238953  
     464A      5.252296   465A      5.275889   466A      5.280270  
     467A      5.332529   468A      5.356518   469A      5.396686  
     470A      5.404778   471A      5.422443   472A      5.429047  
     473A      5.445544   474A      5.467890   475A      5.502815  
     476A      5.519591   477A      5.532052   478A      5.557068  
     479A      5.566297   480A      5.603487   481A      5.624470  
     482A      5.626783   483A      5.679597   484A      5.709252  
     485A      5.735740   486A      5.788699   487A      5.813255  
     488A      5.853553   489A      5.887729   490A      5.968230  
     491A      6.027689   492A      6.062917   493A      6.080891  
     494A      6.104458   495A      6.163385   496A      6.195006  
     497A      6.221022   498A      6.235490   499A      6.242151  
     500A      6.305223   501A      6.445427   502A      6.476734  
     503A      6.518183   504A      6.607759   505A      6.732308  
     506A      6.734387   507A      6.754015   508A      6.777996  
     509A      6.790599   510A      6.794482   511A      6.838410  
     512A      6.850588   513A      6.878399   514A      6.886765  
     515A      6.904006   516A      7.014808   517A      7.061665  
     518A      7.082603   519A      7.122747   520A      7.203923  
     521A      7.253727   522A      7.259240   523A      7.268985  
     524A      7.344599   525A      7.380847   526A      7.396051  
     527A      7.415807   528A      7.420561   529A      7.479426  
     530A      7.498947   531A      7.536154   532A      7.564001  
     533A      7.616339   534A      7.631040   535A      7.698281  
     536A      7.707633   537A      7.735761   538A      7.861540  
     539A      7.922679   540A      7.974402   541A      8.016135  
     542A      8.069057   543A      8.270125   544A      8.527823  
     545A     15.149389   546A     15.386073   547A     16.040073  
     548A     16.963963   549A     17.329295   550A     18.444431  
     551A     18.757093   552A     20.359029  

    Final Occupation by Irrep:
              A 
    DOCC [    31 ]

  @DF-RHF Final Energy:  -418.75846105233416

   => Energetics <=

    Nuclear Repulsion Energy =            371.4586253285501698
    One-Electron Energy =               -1308.9732261110891613
    Two-Electron Energy =                 518.7561397302048363
    Total Energy =                       -418.7584610523341553

Computation Completed

*** tstop() called on node58.bme.utexas.edu at Tue Nov  3 16:10:50 2020
Module time:
	user time   =     182.38 seconds =       3.04 minutes
	system time =      25.38 seconds =       0.42 minutes
	total time  =         43 seconds =       0.72 minutes
Total time:
	user time   =     182.38 seconds =       3.04 minutes
	system time =      25.38 seconds =       0.42 minutes
	total time  =         43 seconds =       0.72 minutes
   => Loading Basis Set <=

    Name: (AUG-CC-PVTZ AUX)
    Role: RIFIT
    Keyword: DF_BASIS_MP2
    atoms 1-3  entry O          line   264 file /home/xy3866/psi4conda/share/psi4/basis/aug-cc-pvtz-ri.gbs 
    atoms 4-8  entry C          line   148 file /home/xy3866/psi4conda/share/psi4/basis/aug-cc-pvtz-ri.gbs 
    atoms 9-16 entry H          line    30 file /home/xy3866/psi4conda/share/psi4/basis/aug-cc-pvtz-ri.gbs 


*** tstart() called on node58.bme.utexas.edu
*** at Tue Nov  3 16:10:50 2020


  //>>>>>>>>>>>>>>>>>>>>>>>>>>>>>>>>>>>//
  //               DFMP2               //
  //<<<<<<<<<<<<<<<<<<<<<<<<<<<<<<<<<<<//

	 --------------------------------------------------------
	                          DF-MP2                         
	      2nd-Order Density-Fitted Moller-Plesset Theory     
	              RMP2 Wavefunction,   8 Threads             
	                                                         
	        Rob Parrish, Justin Turney, Andy Simmonett,      
	           Ed Hohenstein, and C. David Sherrill          
	 --------------------------------------------------------

   => Auxiliary Basis Set <=

  Basis Set: (AUG-CC-PVTZ AUX)
    Blend: AUG-CC-PVTZ-RI
    Number of shells: 336
    Number of basis function: 1216
    Number of Cartesian functions: 1528
    Spherical Harmonics?: true
    Max angular momentum: 4

	 --------------------------------------------------------
	                 NBF =   552, NAUX =  1216
	 --------------------------------------------------------
	   CLASS    FOCC     OCC    AOCC    AVIR     VIR    FVIR
	   PAIRS       0      31      31     521     521       0
	 --------------------------------------------------------

  DFHelper Memory: AOs need 2.668 GiB; user supplied 22.352 GiB. Using in-core AOs.


         ------------------------------------------------------------
                                     CPHF                           
                                  Rob Parrish                       
         ------------------------------------------------------------

  ==> Geometry <==

    Molecular point group: c1
    Full point group: C1

    Geometry (in Angstrom), charge = 0, multiplicity = 1:

       Center              X                  Y                   Z               Mass       
    ------------   -----------------  -----------------  -----------------  -----------------
         O            1.229326964807    -1.378026441982     0.785327070113    15.994914619570
         O           -2.839756035193    -0.073178441982    -0.288412929887    15.994914619570
         O           -1.237562035193     1.230096558018     0.635446070113    15.994914619570
         C            1.619416964807     0.552597558018    -0.597286929887    12.000000000000
         C            0.802052964807    -0.593767441982    -0.054116929887    12.000000000000
         C           -0.698442435193    -0.776177941982    -0.643435729887    12.000000000000
         C            2.975620964807     0.680587558018     0.076235070113    12.000000000000
         C           -1.552066035193     0.245649558018    -0.009418929887    12.000000000000
         H            1.726317964807     0.400541558018    -1.680619929887     1.007825032230
         H            1.024840964807     1.464913558018    -0.478205929887     1.007825032230
         H           -0.627078035193    -0.645573441982    -1.697349929887     1.007825032230
         H           -0.962520035193    -1.771048441982    -0.372439929887     1.007825032230
         H            3.556988964807    -0.234866441982    -0.045391929887     1.007825032230
         H            3.539799964807     1.512844558018    -0.351274929887     1.007825032230
         H            2.856116964807     0.855986558018     1.146794070113     1.007825032230
         H           -3.380599035193     0.629825558018     0.128975070113     1.007825032230

  Nuclear repulsion =  371.458625328550170
  Reference energy  = -418.758461052334155

  ==> Basis Set <==

  Basis Set: AUG-CC-PVTZ
    Blend: AUG-CC-PVTZ
    Number of shells: 184
    Number of basis function: 552
    Number of Cartesian functions: 640
    Spherical Harmonics?: true
    Max angular momentum: 3

  ==> CGRSolver (by Rob Parrish) <==

   Number of roots    =         1
   Preconditioning    =    JACOBI
   Convergence cutoff =     1E-06
   Maximum iterations =       100

  ==> CPHFRHamiltonian (by Rob Parrish) <== 

  ==> MemDFJK: Density-Fitted J/K Matrices <==

    J tasked:                   Yes
    K tasked:                   Yes
    wK tasked:                   No
    OpenMP threads:               8
    Memory [MiB]:             22888
    Algorithm:                 Disk
    Schwarz Cutoff:           1E-12
    Mask sparsity (%):       5.3777
    Fitting Condition:        1E-10

   => Auxiliary Basis Set <=

  Basis Set: (AUG-CC-PVTZ AUX)
    Blend: AUG-CC-PVTZ-JKFIT
    Number of shells: 352
    Number of basis function: 1200
    Number of Cartesian functions: 1488
    Spherical Harmonics?: true
    Max angular momentum: 4

  ==> CPHF Iterations <==

  => Iterations <=

             Iter  Converged  Remaining    Residual
  CGR           1          0          1   1.170E-01
  CGR           2          0          1   3.407E-02
  CGR           3          0          1   1.171E-02
  CGR           4          0          1   3.833E-03
  CGR           5          0          1   1.628E-03
  CGR           6          0          1   5.728E-04
  CGR           7          0          1   1.878E-04
  CGR           8          0          1   8.028E-05
  CGR           9          0          1   3.234E-05
  CGR          10          0          1   1.031E-05
  CGR          11          0          1   3.863E-06
  CGR          12          0          1   1.937E-06
  CGR          13          1          0   8.096E-07

    CGRSolver converged.

	-----------------------------------------------------------
	 ==================> DF-MP2 Energies <==================== 
	-----------------------------------------------------------
	 Reference Energy          =    -418.7584610523341553 [Eh]
	 Singles Energy            =      -0.0000000000000000 [Eh]
	 Same-Spin Energy          =      -0.4085784447001163 [Eh]
	 Opposite-Spin Energy      =      -1.2875774386044605 [Eh]
	 Correlation Energy        =      -1.6961558833045767 [Eh]
	 Total Energy              =    -420.4546169356387395 [Eh]
	-----------------------------------------------------------
	 ================> DF-SCS-MP2 Energies <================== 
	-----------------------------------------------------------
	 SCS Same-Spin Scale       =       0.3333333333333333 [-]
	 SCS Opposite-Spin Scale   =       1.2000000000000000 [-]
	 SCS Same-Spin Energy      =      -0.1361928149000388 [Eh]
	 SCS Opposite-Spin Energy  =      -1.5450929263253526 [Eh]
	 SCS Correlation Energy    =      -1.6812857412253912 [Eh]
	 SCS Total Energy          =    -420.4397467935595500 [Eh]
	-----------------------------------------------------------



Properties will be evaluated at   0.000000,   0.000000,  -0.000000 [a0]

Properties computed using the MP2 density matrix

  Nuclear Dipole Moment: [e a0]
     X:     7.2366      Y:     2.0732      Z:    -3.1346

  Electronic Dipole Moment: [e a0]
     X:    -7.6983      Y:    -1.7636      Z:     2.1434

  Dipole Moment: [e a0]
     X:    -0.4617      Y:     0.3096      Z:    -0.9912     Total:     1.1364

  Dipole Moment: [D]
     X:    -1.1735      Y:     0.7868      Z:    -2.5194     Total:     2.8885


*** tstop() called on node58.bme.utexas.edu at Tue Nov  3 16:12:24 2020
Module time:
	user time   =     508.61 seconds =       8.48 minutes
	system time =      29.94 seconds =       0.50 minutes
	total time  =         94 seconds =       1.57 minutes
Total time:
	user time   =     692.23 seconds =      11.54 minutes
	system time =      55.37 seconds =       0.92 minutes
	total time  =        137 seconds =       2.28 minutes

    Psi4 stopped on: Tuesday, 03 November 2020 04:12PM
    Psi4 wall time for execution: 0:02:17.53

*** Psi4 exiting successfully. Buy a developer a beer!
