048_2-Aminopyridine Gaussian SP Calculation on node35.bme.utexas.edu    
Freq      RMP2-FC                                                     6-31G(d)            
Number of atoms                            I               13
Info1-9                                    I   N=           9
          24          23        1002           0           0         100
           6           2           1
Charge                                     I                0
Multiplicity                               I                1
Number of electrons                        I               50
Number of alpha electrons                  I               25
Number of beta electrons                   I               25
Number of basis functions                  I              117
Number of independent functions            I              117
Number of point charges in /Mol/           I                0
Number of translation vectors              I                0
Atomic numbers                             I   N=          13
           7           6           6           6           6           6
           1           1           1           1           7           1
           1
Nuclear charges                            R   N=          13
  7.00000000E+00  6.00000000E+00  6.00000000E+00  6.00000000E+00  6.00000000E+00
  6.00000000E+00  1.00000000E+00  1.00000000E+00  1.00000000E+00  1.00000000E+00
  7.00000000E+00  1.00000000E+00  1.00000000E+00
Current cartesian coordinates              R   N=          39
 -5.63574662E-01 -2.25540333E+00  4.81752645E-03 -1.69878773E+00  1.48433350E-02
 -7.16663596E-03 -3.48065524E-01  2.30350091E+00 -1.87361886E-02  2.27261343E+00
  2.21172473E+00  8.89645769E-03  3.48100020E+00 -1.37615594E-01  1.20681501E-02
  1.97975894E+00 -2.29503160E+00  4.49896382E-03 -1.34809918E+00  4.09798045E+00
 -5.46709582E-02  3.36390058E+00  3.95304198E+00  1.09845374E-02  5.52679304E+00
 -2.89349062E-01  2.57644316E-02  2.83045011E+00 -4.16860338E+00  8.99512948E-03
 -4.32820076E+00 -1.31915858E-02 -1.57413361E-01 -5.20643414E+00  1.42748905E+00
  7.49584274E-01 -5.04329833E+00 -1.72492532E+00  3.30148947E-01
Force Field                                I                0
Int Atom Types                             I   N=          13
           0           0           0           0           0           0
           0           0           0           0           0           0
           0
MM charges                                 R   N=          13
  0.00000000E+00  0.00000000E+00  0.00000000E+00  0.00000000E+00  0.00000000E+00
  0.00000000E+00  0.00000000E+00  0.00000000E+00  0.00000000E+00  0.00000000E+00
  0.00000000E+00  0.00000000E+00  0.00000000E+00
Integer atomic weights                     I   N=          13
          14          12          12          12          12          12
           1           1           1           1          14           1
           1
Real atomic weights                        R   N=          13
  1.40030740E+01  1.20000000E+01  1.20000000E+01  1.20000000E+01  1.20000000E+01
  1.20000000E+01  1.00782504E+00  1.00782504E+00  1.00782504E+00  1.00782504E+00
  1.40030740E+01  1.00782504E+00  1.00782504E+00
Atom fragment info                         I   N=          13
           0           0           0           0           0           0
           0           0           0           0           0           0
           0
Atom residue num                           I   N=          13
           0           0           0           0           0           0
           0           0           0           0           0           0
           0
Nuclear spins                              I   N=          13
           2           0           0           0           0           0
           1           1           1           1           2           1
           1
Nuclear ZEff                               R   N=          13
 -4.55000000E+00 -3.60000000E+00 -3.60000000E+00 -3.60000000E+00 -3.60000000E+00
 -3.60000000E+00 -1.00000000E+00 -1.00000000E+00 -1.00000000E+00 -1.00000000E+00
 -4.55000000E+00 -1.00000000E+00 -1.00000000E+00
Nuclear QMom                               R   N=          13
  2.04400000E+00  0.00000000E+00  0.00000000E+00  0.00000000E+00  0.00000000E+00
  0.00000000E+00  0.00000000E+00  0.00000000E+00  0.00000000E+00  0.00000000E+00
  2.04400000E+00  0.00000000E+00  0.00000000E+00
Nuclear GFac                               R   N=          13
  4.03761000E-01  0.00000000E+00  0.00000000E+00  0.00000000E+00  0.00000000E+00
  0.00000000E+00  2.79284600E+00  2.79284600E+00  2.79284600E+00  2.79284600E+00
  4.03761000E-01  2.79284600E+00  2.79284600E+00
MicOpt                                     I   N=          13
          -1          -1          -1          -1          -1          -1
          -1          -1          -1          -1          -1          -1
          -1
Number of contracted shells                I               40
Number of primitive shells                 I              101
Pure/Cartesian d shells                    I                1
Pure/Cartesian f shells                    I                0
Highest angular momentum                   I                2
Largest degree of contraction              I                6
Shell types                                I   N=          40
           0          -1          -1           2           0          -1
          -1           2           0          -1          -1           2
           0          -1          -1           2           0          -1
          -1           2           0          -1          -1           2
           0           0           0           0           0           0
           0           0           0          -1          -1           2
           0           0           0           0
Number of primitives per shell             I   N=          40
           6           3           1           1           6           3
           1           1           6           3           1           1
           6           3           1           1           6           3
           1           1           6           3           1           1
           3           1           3           1           3           1
           3           1           6           3           1           1
           3           1           3           1
Shell to atom map                          I   N=          40
           1           1           1           1           2           2
           2           2           3           3           3           3
           4           4           4           4           5           5
           5           5           6           6           6           6
           7           7           8           8           9           9
          10          10          11          11          11          11
          12          12          13          13
Primitive exponents                        R   N=         101
  4.17351146E+03  6.27457911E+02  1.42902093E+02  4.02343293E+01  1.28202129E+01
  4.39043701E+00  1.16263619E+01  2.71627981E+00  7.72218397E-01  2.12031498E-01
  8.00000000E-01  3.04752488E+03  4.57369518E+02  1.03948685E+02  2.92101553E+01
  9.28666296E+00  3.16392696E+00  7.86827235E+00  1.88128854E+00  5.44249258E-01
  1.68714478E-01  8.00000000E-01  3.04752488E+03  4.57369518E+02  1.03948685E+02
  2.92101553E+01  9.28666296E+00  3.16392696E+00  7.86827235E+00  1.88128854E+00
  5.44249258E-01  1.68714478E-01  8.00000000E-01  3.04752488E+03  4.57369518E+02
  1.03948685E+02  2.92101553E+01  9.28666296E+00  3.16392696E+00  7.86827235E+00
  1.88128854E+00  5.44249258E-01  1.68714478E-01  8.00000000E-01  3.04752488E+03
  4.57369518E+02  1.03948685E+02  2.92101553E+01  9.28666296E+00  3.16392696E+00
  7.86827235E+00  1.88128854E+00  5.44249258E-01  1.68714478E-01  8.00000000E-01
  3.04752488E+03  4.57369518E+02  1.03948685E+02  2.92101553E+01  9.28666296E+00
  3.16392696E+00  7.86827235E+00  1.88128854E+00  5.44249258E-01  1.68714478E-01
  8.00000000E-01  1.87311370E+01  2.82539436E+00  6.40121692E-01  1.61277759E-01
  1.87311370E+01  2.82539436E+00  6.40121692E-01  1.61277759E-01  1.87311370E+01
  2.82539436E+00  6.40121692E-01  1.61277759E-01  1.87311370E+01  2.82539436E+00
  6.40121692E-01  1.61277759E-01  4.17351146E+03  6.27457911E+02  1.42902093E+02
  4.02343293E+01  1.28202129E+01  4.39043701E+00  1.16263619E+01  2.71627981E+00
  7.72218397E-01  2.12031498E-01  8.00000000E-01  1.87311370E+01  2.82539436E+00
  6.40121692E-01  1.61277759E-01  1.87311370E+01  2.82539436E+00  6.40121692E-01
  1.61277759E-01
Contraction coefficients                   R   N=         101
  1.83477216E-03  1.39946270E-02  6.85865518E-02  2.32240873E-01  4.69069948E-01
  3.60455199E-01 -1.14961182E-01 -1.69117479E-01  1.14585195E+00  1.00000000E+00
  1.00000000E+00  1.83473713E-03  1.40373228E-02  6.88426223E-02  2.32184443E-01
  4.67941348E-01  3.62311985E-01 -1.19332420E-01 -1.60854152E-01  1.14345644E+00
  1.00000000E+00  1.00000000E+00  1.83473713E-03  1.40373228E-02  6.88426223E-02
  2.32184443E-01  4.67941348E-01  3.62311985E-01 -1.19332420E-01 -1.60854152E-01
  1.14345644E+00  1.00000000E+00  1.00000000E+00  1.83473713E-03  1.40373228E-02
  6.88426223E-02  2.32184443E-01  4.67941348E-01  3.62311985E-01 -1.19332420E-01
 -1.60854152E-01  1.14345644E+00  1.00000000E+00  1.00000000E+00  1.83473713E-03
  1.40373228E-02  6.88426223E-02  2.32184443E-01  4.67941348E-01  3.62311985E-01
 -1.19332420E-01 -1.60854152E-01  1.14345644E+00  1.00000000E+00  1.00000000E+00
  1.83473713E-03  1.40373228E-02  6.88426223E-02  2.32184443E-01  4.67941348E-01
  3.62311985E-01 -1.19332420E-01 -1.60854152E-01  1.14345644E+00  1.00000000E+00
  1.00000000E+00  3.34946043E-02  2.34726953E-01  8.13757326E-01  1.00000000E+00
  3.34946043E-02  2.34726953E-01  8.13757326E-01  1.00000000E+00  3.34946043E-02
  2.34726953E-01  8.13757326E-01  1.00000000E+00  3.34946043E-02  2.34726953E-01
  8.13757326E-01  1.00000000E+00  1.83477216E-03  1.39946270E-02  6.85865518E-02
  2.32240873E-01  4.69069948E-01  3.60455199E-01 -1.14961182E-01 -1.69117479E-01
  1.14585195E+00  1.00000000E+00  1.00000000E+00  3.34946043E-02  2.34726953E-01
  8.13757326E-01  1.00000000E+00  3.34946043E-02  2.34726953E-01  8.13757326E-01
  1.00000000E+00
P(S=P) Contraction coefficients            R   N=         101
  0.00000000E+00  0.00000000E+00  0.00000000E+00  0.00000000E+00  0.00000000E+00
  0.00000000E+00  6.75797439E-02  3.23907296E-01  7.40895140E-01  1.00000000E+00
  0.00000000E+00  0.00000000E+00  0.00000000E+00  0.00000000E+00  0.00000000E+00
  0.00000000E+00  0.00000000E+00  6.89990666E-02  3.16423961E-01  7.44308291E-01
  1.00000000E+00  0.00000000E+00  0.00000000E+00  0.00000000E+00  0.00000000E+00
  0.00000000E+00  0.00000000E+00  0.00000000E+00  6.89990666E-02  3.16423961E-01
  7.44308291E-01  1.00000000E+00  0.00000000E+00  0.00000000E+00  0.00000000E+00
  0.00000000E+00  0.00000000E+00  0.00000000E+00  0.00000000E+00  6.89990666E-02
  3.16423961E-01  7.44308291E-01  1.00000000E+00  0.00000000E+00  0.00000000E+00
  0.00000000E+00  0.00000000E+00  0.00000000E+00  0.00000000E+00  0.00000000E+00
  6.89990666E-02  3.16423961E-01  7.44308291E-01  1.00000000E+00  0.00000000E+00
  0.00000000E+00  0.00000000E+00  0.00000000E+00  0.00000000E+00  0.00000000E+00
  0.00000000E+00  6.89990666E-02  3.16423961E-01  7.44308291E-01  1.00000000E+00
  0.00000000E+00  0.00000000E+00  0.00000000E+00  0.00000000E+00  0.00000000E+00
  0.00000000E+00  0.00000000E+00  0.00000000E+00  0.00000000E+00  0.00000000E+00
  0.00000000E+00  0.00000000E+00  0.00000000E+00  0.00000000E+00  0.00000000E+00
  0.00000000E+00  0.00000000E+00  0.00000000E+00  0.00000000E+00  0.00000000E+00
  0.00000000E+00  0.00000000E+00  0.00000000E+00  6.75797439E-02  3.23907296E-01
  7.40895140E-01  1.00000000E+00  0.00000000E+00  0.00000000E+00  0.00000000E+00
  0.00000000E+00  0.00000000E+00  0.00000000E+00  0.00000000E+00  0.00000000E+00
  0.00000000E+00
Coordinates of each shell                  R   N=         120
 -5.63574662E-01 -2.25540333E+00  4.81752645E-03 -5.63574662E-01 -2.25540333E+00
  4.81752645E-03 -5.63574662E-01 -2.25540333E+00  4.81752645E-03 -5.63574662E-01
 -2.25540333E+00  4.81752645E-03 -1.69878773E+00  1.48433350E-02 -7.16663596E-03
 -1.69878773E+00  1.48433350E-02 -7.16663596E-03 -1.69878773E+00  1.48433350E-02
 -7.16663596E-03 -1.69878773E+00  1.48433350E-02 -7.16663596E-03 -3.48065524E-01
  2.30350091E+00 -1.87361886E-02 -3.48065524E-01  2.30350091E+00 -1.87361886E-02
 -3.48065524E-01  2.30350091E+00 -1.87361886E-02 -3.48065524E-01  2.30350091E+00
 -1.87361886E-02  2.27261343E+00  2.21172473E+00  8.89645769E-03  2.27261343E+00
  2.21172473E+00  8.89645769E-03  2.27261343E+00  2.21172473E+00  8.89645769E-03
  2.27261343E+00  2.21172473E+00  8.89645769E-03  3.48100020E+00 -1.37615594E-01
  1.20681501E-02  3.48100020E+00 -1.37615594E-01  1.20681501E-02  3.48100020E+00
 -1.37615594E-01  1.20681501E-02  3.48100020E+00 -1.37615594E-01  1.20681501E-02
  1.97975894E+00 -2.29503160E+00  4.49896382E-03  1.97975894E+00 -2.29503160E+00
  4.49896382E-03  1.97975894E+00 -2.29503160E+00  4.49896382E-03  1.97975894E+00
 -2.29503160E+00  4.49896382E-03 -1.34809918E+00  4.09798045E+00 -5.46709582E-02
 -1.34809918E+00  4.09798045E+00 -5.46709582E-02  3.36390058E+00  3.95304198E+00
  1.09845374E-02  3.36390058E+00  3.95304198E+00  1.09845374E-02  5.52679304E+00
 -2.89349062E-01  2.57644316E-02  5.52679304E+00 -2.89349062E-01  2.57644316E-02
  2.83045011E+00 -4.16860338E+00  8.99512948E-03  2.83045011E+00 -4.16860338E+00
  8.99512948E-03 -4.32820076E+00 -1.31915858E-02 -1.57413361E-01 -4.32820076E+00
 -1.31915858E-02 -1.57413361E-01 -4.32820076E+00 -1.31915858E-02 -1.57413361E-01
 -4.32820076E+00 -1.31915858E-02 -1.57413361E-01 -5.20643414E+00  1.42748905E+00
  7.49584274E-01 -5.20643414E+00  1.42748905E+00  7.49584274E-01 -5.04329833E+00
 -1.72492532E+00  3.30148947E-01 -5.04329833E+00 -1.72492532E+00  3.30148947E-01
Constraint Structure                       R   N=          39
 -5.63574662E-01 -2.25540333E+00  4.81752645E-03 -1.69878773E+00  1.48433350E-02
 -7.16663596E-03 -3.48065524E-01  2.30350091E+00 -1.87361886E-02  2.27261343E+00
  2.21172473E+00  8.89645769E-03  3.48100020E+00 -1.37615594E-01  1.20681501E-02
  1.97975894E+00 -2.29503160E+00  4.49896382E-03 -1.34809918E+00  4.09798045E+00
 -5.46709582E-02  3.36390058E+00  3.95304198E+00  1.09845374E-02  5.52679304E+00
 -2.89349062E-01  2.57644316E-02  2.83045011E+00 -4.16860338E+00  8.99512948E-03
 -4.32820076E+00 -1.31915858E-02 -1.57413361E-01 -5.20643414E+00  1.42748905E+00
  7.49584274E-01 -5.04329833E+00 -1.72492532E+00  3.30148947E-01
Num ILSW                                   I              100
ILSW                                       I   N=         100
           0           1           0           0           2           0
           0           0           0           0           0          -1
           0           0           0           0           0           0
           0           0           0           0           1           0
           1           0           0           0           0           0
           0           0      100000           0          -1           0
           0           0           0           0           0           0
           0           0           0           1           1           0
           0           0           1           0           0           0
           0           0           4          40           0           0
           0           0           0           0           0           0
           0           0           0           0           0           0
           0           0           0           0           0           0
           0           0           0           0           0           0
           0           0           0           0           0           0
           0           0           0           0           0           0
           0           0           0           0
Num RLSW                                   I               40
RLSW                                       R   N=          40
  1.00000000E+00  1.00000000E+00  1.00000000E+00  1.00000000E+00  1.00000000E+00
  0.00000000E+00  0.00000000E+00  1.00000000E+00  0.00000000E+00  0.00000000E+00
  0.00000000E+00  0.00000000E+00  1.00000000E+00  0.00000000E+00  0.00000000E+00
  0.00000000E+00  0.00000000E+00  1.00000000E+00  0.00000000E+00  0.00000000E+00
  0.00000000E+00  0.00000000E+00  1.00000000E+00  0.00000000E+00  0.00000000E+00
  0.00000000E+00  0.00000000E+00  1.00000000E+00  0.00000000E+00  0.00000000E+00
  0.00000000E+00  0.00000000E+00  0.00000000E+00  0.00000000E+00  0.00000000E+00
  0.00000000E+00  0.00000000E+00  0.00000000E+00  1.00000000E+00  1.00000000E+00
MxBond                                     I                3
NBond                                      I   N=          13
           2           3           3           3           3           3
           1           1           1           1           3           1
           1
IBond                                      I   N=          39
           2           6           0           1           3          11
           2           4           7           3           5           8
           4           6           9           1           5          10
           3           0           0           4           0           0
           5           0           0           6           0           0
           2          12          13          11           0           0
          11           0           0
RBond                                      R   N=          39
  1.50000000E+00  1.50000000E+00  0.00000000E+00  1.50000000E+00  1.50000000E+00
  1.50000000E+00  1.50000000E+00  1.50000000E+00  1.00000000E+00  1.50000000E+00
  1.50000000E+00  1.00000000E+00  1.50000000E+00  1.50000000E+00  1.00000000E+00
  1.50000000E+00  1.50000000E+00  1.00000000E+00  1.00000000E+00  0.00000000E+00
  0.00000000E+00  1.00000000E+00  0.00000000E+00  0.00000000E+00  1.00000000E+00
  0.00000000E+00  0.00000000E+00  1.00000000E+00  0.00000000E+00  0.00000000E+00
  1.50000000E+00  1.00000000E+00  1.00000000E+00  1.00000000E+00  0.00000000E+00
  0.00000000E+00  1.00000000E+00  0.00000000E+00  0.00000000E+00
Virial Ratio                               R      2.002535446361455E+00
SCF Energy                                 R     -3.017320403704714E+02
MP2 Energy                                 R     -3.026842950303297E+02
Total Energy                               R     -3.026842950303297E+02
Post-SCF wavefunction norm                 R      1.632352419356146E+00
RMS Force                                  R      3.595469166807349E-06
RMS Density                                R      2.749227104386995E-09
External E-field                           R   N=          35
  0.00000000E+00  0.00000000E+00  0.00000000E+00  0.00000000E+00  0.00000000E+00
  0.00000000E+00  0.00000000E+00  0.00000000E+00  0.00000000E+00  0.00000000E+00
  0.00000000E+00  0.00000000E+00  0.00000000E+00  0.00000000E+00  0.00000000E+00
  0.00000000E+00  0.00000000E+00  0.00000000E+00  0.00000000E+00  0.00000000E+00
  0.00000000E+00  0.00000000E+00  0.00000000E+00  0.00000000E+00  0.00000000E+00
  0.00000000E+00  0.00000000E+00  0.00000000E+00  0.00000000E+00  0.00000000E+00
  0.00000000E+00  0.00000000E+00  0.00000000E+00  0.00000000E+00  0.00000000E+00
IOpCl                                      I                0
IROHF                                      I                0
Alpha Orbital Energies                     R   N=         117
 -1.55678718E+01 -1.55533835E+01 -1.13130593E+01 -1.12732974E+01 -1.12578317E+01
 -1.12314401E+01 -1.12258548E+01 -1.27245781E+00 -1.17803389E+00 -1.07813564E+00
 -1.00111563E+00 -8.56412668E-01 -8.32965007E-01 -7.11491197E-01 -6.93570502E-01
 -6.55546693E-01 -6.16523401E-01 -5.99941019E-01 -5.61977925E-01 -5.55246267E-01
 -5.21567597E-01 -4.53200244E-01 -4.11987841E-01 -3.73641208E-01 -3.05270912E-01
  1.27961584E-01  1.58616919E-01  2.32834650E-01  2.48450904E-01  2.83670606E-01
  3.12545682E-01  3.20846381E-01  3.30318276E-01  3.64774690E-01  4.19232426E-01
  4.62259636E-01  4.96097439E-01  5.18785728E-01  5.42320526E-01  6.56931242E-01
  7.02461012E-01  7.33626726E-01  7.49872330E-01  7.90669324E-01  8.08093682E-01
  8.21995887E-01  8.27991746E-01  8.41338415E-01  8.45298607E-01  9.00024712E-01
  9.03123357E-01  9.12507499E-01  9.41648708E-01  9.71338726E-01  1.03722683E+00
  1.08217628E+00  1.09530648E+00  1.10617878E+00  1.11930244E+00  1.13086067E+00
  1.16681283E+00  1.17692075E+00  1.19689252E+00  1.20598419E+00  1.23112476E+00
  1.24289156E+00  1.28550435E+00  1.31304851E+00  1.34861343E+00  1.41670220E+00
  1.49897294E+00  1.51648294E+00  1.58652536E+00  1.63768851E+00  1.69907578E+00
  1.72258980E+00  1.75781448E+00  1.76803608E+00  1.77682790E+00  1.80336861E+00
  1.97558577E+00  2.08131570E+00  2.09323824E+00  2.10249824E+00  2.20119167E+00
  2.23438502E+00  2.27174476E+00  2.28568681E+00  2.39047283E+00  2.41997159E+00
  2.48701032E+00  2.49640918E+00  2.51486503E+00  2.53906909E+00  2.56446066E+00
  2.65152766E+00  2.65921214E+00  2.78915083E+00  2.80564610E+00  2.83306068E+00
  2.89865366E+00  2.92388972E+00  3.01917402E+00  3.05626091E+00  3.06219359E+00
  3.13343914E+00  3.21583457E+00  3.23549098E+00  3.50135524E+00  3.77632077E+00
  4.26415299E+00  4.48449368E+00  4.54103746E+00  4.60903035E+00  4.67255191E+00
  4.78160244E+00  5.03382763E+00
Alpha MO coefficients                      R   N=       13689
 -8.12758571E-04 -1.46951396E-04  1.95810086E-05 -1.79697755E-05 -1.47594474E-06
  8.32903027E-04  2.52909635E-04  3.93513687E-04 -4.16239649E-05 -6.18395735E-05
  1.15693256E-05 -9.98970485E-05  3.37053588E-05  1.24906991E-06 -1.01522239E-05
  1.96003218E-05  2.99712694E-04 -1.39504981E-04 -3.31160185E-06 -1.48437897E-05
  1.06671089E-03 -2.37125894E-03  2.00898729E-04  1.31959179E-04 -1.71987794E-04
 -6.80486846E-05 -6.65552192E-05  7.57661184E-08 -1.02075920E-05 -4.98388638E-06
 -9.60368756E-06 -5.33536484E-05  4.95114903E-06  3.77561973E-06  1.93623726E-06
  6.83969087E-04  7.28861841E-04 -5.95861014E-04 -4.38491462E-05 -4.64534658E-05
  4.87489223E-05 -4.13162474E-05 -3.77907163E-05  2.07036676E-06  8.60942098E-06
 -6.22906122E-06 -1.95804564E-05  2.95845987E-05  1.84854067E-05  8.59533797E-07
 -5.66250442E-04  1.81249649E-04 -1.43104404E-05  1.68855676E-05 -1.15209624E-06
 -4.30360303E-06 -2.26234433E-05 -6.57882210E-06 -2.12682467E-06  3.18598026E-07
 -6.94156366E-06 -2.94807465E-05  2.30614425E-05  4.47272411E-06  2.90124176E-06
  8.43106376E-05 -1.41735390E-04 -1.34425489E-05 -8.98596273E-06 -8.14138262E-06
 -7.82794172E-07 -1.95603934E-05  2.01434508E-06  5.31583853E-07 -8.41600713E-07
 -1.62518566E-05 -6.60504187E-05  3.44568774E-05 -2.70093662E-05  3.60402882E-06
 -1.10025975E-04 -5.02494781E-05  1.23259324E-04  1.38612884E-06 -7.94354889E-06
 -1.60477296E-05 -3.62664198E-05  2.08152112E-07 -1.14857193E-06 -1.28133271E-06
  4.42255329E-05  2.84730412E-04  1.16982052E-05  4.30428040E-05  8.59448082E-06
  6.11733736E-05  1.18934625E-05  1.04432929E-04  9.94985203E-01  2.51866505E-02
  3.65865071E-04 -8.07673119E-05  1.05798422E-03 -3.49581715E-03 -1.09408714E-03
  4.40679446E-05 -7.73603075E-04 -3.47288933E-03 -3.43236917E-03 -3.27392565E-03
 -1.58347721E-05  1.77405600E-05 -2.93960539E-05  2.99310323E-04  4.26245884E-04
  3.21047220E-04  4.13968574E-04  9.95231319E-01  2.50827229E-02  9.97809191E-04
  1.67627036E-03 -9.71835187E-06 -7.13289387E-03 -1.30967438E-03 -2.90222032E-03
  1.02092755E-05 -2.68362935E-03 -2.81022035E-03 -3.08192789E-03 -1.07827387E-04
 -2.38570149E-07  4.51662296E-08  2.39844675E-05  3.24784701E-04  3.39531840E-05
 -4.95052955E-05 -4.19668722E-07  3.78002101E-03  2.85774293E-03 -1.51871938E-03
  2.18077182E-05 -1.25238621E-04 -4.09331905E-04 -6.58962170E-05  1.99533947E-04
 -2.49575897E-07  5.19354567E-06  3.21965671E-05  1.33687304E-04  2.28727459E-05
  3.83676943E-05 -2.29914739E-06 -2.65669753E-03 -1.65974277E-03  1.62898982E-03
 -2.04634387E-05  7.41378014E-05 -2.87520744E-05  2.99263816E-05  3.11131641E-05
 -1.17819023E-06  9.13946696E-07 -2.81463289E-05 -1.28328245E-04  8.89210611E-06
  6.27814427E-06  8.17826325E-07  3.23009686E-03 -1.10183648E-03 -1.29515068E-03
 -1.75842273E-05 -1.99487073E-05 -2.46801690E-05 -5.42327417E-05 -3.23270999E-06
  1.26110602E-06  1.60799379E-06  4.04926194E-05  1.82616642E-04  2.95473830E-05
  4.27825361E-05 -2.24110230E-07 -3.25076381E-03  2.13278067E-03 -1.27658832E-05
  1.20991565E-05 -1.50272361E-05  5.83893098E-05  4.65230570E-05 -3.33102607E-05
 -1.37616974E-07  8.38891612E-07  1.69581397E-05  2.94796594E-04 -1.08527572E-04
  8.68792489E-06  2.14108671E-07  4.06074117E-03 -1.11309932E-03  2.05902179E-03
 -9.20178465E-07 -5.02867792E-04 -3.19749370E-05 -7.28152200E-05 -1.01102137E-05
 -1.60758485E-09  1.08812363E-06 -9.90166759E-05 -6.20337185E-04  2.94453618E-05
  3.69044578E-04 -6.61996344E-05 -5.28122768E-04  2.94338922E-05  4.69482919E-04
  7.68549116E-04 -9.98911278E-05 -2.43002000E-05  4.97892524E-06 -6.60281192E-06
  1.14969450E-03  2.94097288E-04  3.27857776E-04  8.69879126E-05 -4.64084677E-05
 -2.54433279E-05 -7.55520915E-05  6.53124759E-05  1.68538536E-06  2.54283261E-05
 -5.92871726E-05 -4.12692860E-05  1.67295716E-05 -4.87894455E-05 -2.51472889E-04
  4.82039507E-04 -8.05456405E-05  6.75450213E-05  1.04274844E-05 -2.48372207E-03
  1.18243678E-03 -1.88103883E-03 -4.06369625E-05 -2.93309116E-04 -2.99600875E-04
  2.59573577E-04  2.51398992E-04 -1.28263602E-06 -7.58042501E-07  9.95726678E-01
  2.66694056E-02 -2.21530484E-04 -3.18445472E-04 -7.17032673E-05 -8.35347221E-03
 -1.94535899E-03 -4.88885375E-03  8.97659447E-05 -1.18210047E-03 -1.12644968E-03
 -2.34151223E-03 -1.28018798E-04  4.14383240E-05  6.03847216E-06  6.52647757E-03
  9.69742011E-06  4.35705568E-05  1.05360320E-04 -6.53867433E-06  5.11775537E-03
 -2.59864825E-03 -2.33474416E-03 -7.92411145E-06 -3.93401711E-04 -3.35004957E-04
 -1.40569244E-04 -8.26557948E-05 -1.48635855E-06  6.86862338E-06  2.22243481E-05
 -2.15885833E-04  4.75302296E-05 -4.00546301E-05  1.14779130E-06  1.38415904E-03
 -1.15600603E-03 -1.86059333E-05 -1.27404545E-05  1.53737405E-04  4.66486595E-05
 -4.47359187E-05  2.87110816E-05  2.44783863E-06 -8.86062511E-07 -9.53855511E-05
  1.10202121E-04  4.63765756E-05  7.19510389E-05  4.39668179E-07 -2.35246333E-03
  1.58463476E-03  8.52627690E-04  6.79855816E-06 -2.85232525E-05 -1.51442992E-05
  1.49753385E-05 -4.62762766E-05 -9.26060261E-08  2.15418240E-07 -2.41048174E-04
 -4.37474843E-04 -4.60748028E-05 -9.71021663E-05  1.49205715E-06  2.16870770E-03
 -4.83919039E-05  2.98832849E-03  1.08763141E-05  1.77389374E-04  5.38698271E-05
 -1.26007938E-04 -5.82644673E-05 -3.32241145E-06  2.82342236E-07 -1.55962637E-04
 -9.57896016E-05 -1.55505832E-05  2.58010508E-04 -4.51448690E-05 -3.98288324E-04
  1.64789674E-04  1.03855597E-03 -2.03083846E-04  4.12372195E-04 -9.66628781E-05
 -1.10709580E-05  7.69036871E-06 -6.25840249E-04 -7.57536434E-04  9.43348041E-04
 -1.31122940E-04 -7.08934805E-04 -2.98042899E-05  1.86918708E-04  1.17303069E-04
 -4.71028835E-05  4.61376070E-05 -1.50999385E-05 -1.01966707E-04  1.66166654E-04
  2.13883968E-04 -2.54930412E-04  4.61509990E-04  5.41617422E-05 -3.96933431E-05
 -1.27724012E-07 -1.91530314E-03 -1.65858751E-03 -5.83554314E-04 -4.15431802E-06
 -5.28596882E-04 -1.67575945E-04  2.74104580E-04  7.23847899E-05 -6.79666062E-08
 -1.07048944E-06  1.45787955E-04 -3.77815432E-04 -7.60984622E-05 -6.77197013E-05
 -2.08268612E-07  2.17045925E-03  3.84520932E-03  6.89054789E-04  5.79081854E-05
  8.13937297E-05  1.34857701E-04 -9.44841102E-05 -8.82542626E-05 -7.74843028E-06
 -2.21088735E-06 -1.99719450E-04  1.74260312E-04  4.52046100E-05  4.31950861E-05
  2.27539210E-06 -3.28366500E-03 -8.94708600E-04  2.30027456E-03 -4.58824026E-05
  8.50942600E-06 -5.62754710E-05  4.64524867E-05 -1.13459604E-05 -1.09200284E-06
  3.59954523E-06  2.65664907E-04 -2.59339316E-04 -4.83129868E-05 -7.51601456E-06
  2.22192311E-08  2.66684854E-03 -4.03704551E-04 -1.48308545E-03 -1.76087722E-06
  5.24294682E-05  1.61072483E-04 -4.45031460E-05 -3.01965895E-05 -1.31944084E-09
  1.82998407E-06  1.24629932E-02  3.53739325E-04  7.99309920E-05  1.37424290E-04
  1.22367035E-06  2.25547631E-03  3.97730610E-04 -2.24659663E-03 -9.41691521E-07
 -3.03403848E-04 -4.90773976E-04 -6.81925053E-05 -5.28699998E-05 -2.88627530E-07
 -9.23095098E-07  9.95616962E-01  2.70664610E-02 -6.29750521E-04  2.15773243E-04
  8.87505956E-06 -8.75073392E-03 -1.90677009E-03 -8.85753350E-04 -1.33204319E-05
 -1.21177559E-03 -1.66005706E-03 -2.40449627E-03  1.67043514E-04  1.62767311E-06
 -3.08267946E-07 -9.14639213E-05 -7.09473002E-04  1.70842097E-05  4.25207887E-04
 -1.52040398E-04 -4.51631154E-04 -1.72527592E-04  1.81163486E-03 -3.97831890E-05
 -1.54590097E-04  2.68582707E-05 -2.23623443E-05 -2.34358041E-06  2.21064513E-03
  7.04311744E-04  3.21829852E-05  1.08432298E-04 -6.83525944E-05 -8.12036032E-05
 -4.93775261E-05 -9.43692653E-06 -1.46865821E-06  1.57666330E-05 -9.05898937E-05
  5.82762208E-05  1.70277627E-05 -7.86060530E-05 -5.96926247E-06 -4.20807798E-05
 -1.83228208E-05 -1.90266081E-05  2.03907091E-06  3.36646594E-04  3.38689233E-04
  3.04094424E-06 -1.30401263E-05 -1.65747004E-05 -3.38234406E-05 -2.49642168E-05
  1.19508508E-05  5.36069909E-07 -1.31071145E-06 -1.92300076E-04 -9.36126964E-05
 -2.91191779E-05  3.61703410E-07 -1.34410656E-06 -1.42570241E-03 -5.24098301E-05
 -7.87515942E-04  3.37383494E-05  6.72275807E-05  8.11504002E-05 -3.44117666E-06
  3.77041245E-05 -2.24095093E-06  4.44470498E-08  2.28053504E-02  3.83763669E-04
 -1.78231357E-04  5.14218655E-05 -2.40596897E-06  5.68076142E-03  1.76037232E-03
 -1.27918631E-03  2.07152676E-05 -5.27109368E-04 -3.37161829E-04 -1.88348225E-04
 -3.77755118E-05 -5.07147973E-06  5.27938877E-07  9.95267821E-01  2.75590359E-02