139434                                                                  
Freq      RMP2-FC                                                     6-31G(d)            
Number of atoms                            I               18
Info1-9                                    I   N=           9
          30          28        1002           0           0         100
           6           2           1
Charge                                     I                0
Multiplicity                               I                1
Number of electrons                        I               66
Number of alpha electrons                  I               33
Number of beta electrons                   I               33
Number of basis functions                  I              153
Number of independent functions            I              153
Number of point charges in /Mol/           I                0
Number of translation vectors              I                0
Atomic numbers                             I   N=          18
           8           7           6           6           6           6
           6           6           6           1           1           1
           1           1           1           1           1           1
Nuclear charges                            R   N=          18
  8.00000000E+00  7.00000000E+00  6.00000000E+00  6.00000000E+00  6.00000000E+00
  6.00000000E+00  6.00000000E+00  6.00000000E+00  6.00000000E+00  1.00000000E+00
  1.00000000E+00  1.00000000E+00  1.00000000E+00  1.00000000E+00  1.00000000E+00
  1.00000000E+00  1.00000000E+00  1.00000000E+00
Current cartesian coordinates              R   N=          54
  1.29101036E+00  3.68768205E+00 -3.49832522E-01  6.08731176E-01 -6.05988707E-01
 -5.63084742E-01  3.32224371E+00 -9.36486840E-01 -1.03784716E+00 -2.28853919E-01
  1.90683940E+00 -2.11286799E-01 -9.39846613E-01 -2.66548126E+00 -3.72720005E-01
  4.83844096E+00 -8.15879492E-01  1.40288535E+00 -2.90498984E+00  2.12088865E+00
  2.88480768E-01 -3.46191754E+00 -2.41515503E+00  1.34709004E-01 -4.45060507E+00
  5.30731986E-02  4.70153654E-01  3.56321215E+00 -2.75140308E+00 -1.99575182E+00
  3.89193407E+00  5.76608003E-01 -2.31795833E+00 -3.72512320E-02 -4.48586522E+00
 -6.66643778E-01  4.57054894E+00  1.02652211E+00  2.28815932E+00  4.23736357E+00
 -2.29673576E+00  2.71258979E+00  6.85123645E+00 -1.07052913E+00  1.00443222E+00
 -3.61440446E+00  4.02891221E+00  5.39642913E-01 -4.64708436E+00 -4.08091409E+00
  2.62944364E-01 -6.45158640E+00  3.07077723E-01  8.66589853E-01
Force Field                                I                0
Int Atom Types                             I   N=          18
           0           0           0           0           0           0
           0           0           0           0           0           0
           0           0           0           0           0           0
MM charges                                 R   N=          18
  0.00000000E+00  0.00000000E+00  0.00000000E+00  0.00000000E+00  0.00000000E+00
  0.00000000E+00  0.00000000E+00  0.00000000E+00  0.00000000E+00  0.00000000E+00
  0.00000000E+00  0.00000000E+00  0.00000000E+00  0.00000000E+00  0.00000000E+00
  0.00000000E+00  0.00000000E+00  0.00000000E+00
Integer atomic weights                     I   N=          18
          16          14          12          12          12          12
          12          12          12           1           1           1
           1           1           1           1           1           1
Real atomic weights                        R   N=          18
  1.59949146E+01  1.40030740E+01  1.20000000E+01  1.20000000E+01  1.20000000E+01
  1.20000000E+01  1.20000000E+01  1.20000000E+01  1.20000000E+01  1.00782504E+00
  1.00782504E+00  1.00782504E+00  1.00782504E+00  1.00782504E+00  1.00782504E+00
  1.00782504E+00  1.00782504E+00  1.00782504E+00
Atom fragment info                         I   N=          18
           0           0           0           0           0           0
           0           0           0           0           0           0
           0           0           0           0           0           0
Atom residue num                           I   N=          18
           0           0           0           0           0           0
           0           0           0           0           0           0
           0           0           0           0           0           0
Nuclear spins                              I   N=          18
           0           2           0           0           0           0
           0           0           0           1           1           1
           1           1           1           1           1           1
Nuclear ZEff                               R   N=          18
 -5.60000000E+00 -4.55000000E+00 -3.60000000E+00 -3.60000000E+00 -3.60000000E+00
 -3.60000000E+00 -3.60000000E+00 -3.60000000E+00 -3.60000000E+00 -1.00000000E+00
 -1.00000000E+00 -1.00000000E+00 -1.00000000E+00 -1.00000000E+00 -1.00000000E+00
 -1.00000000E+00 -1.00000000E+00 -1.00000000E+00
Nuclear QMom                               R   N=          18
  0.00000000E+00  2.04400000E+00  0.00000000E+00  0.00000000E+00  0.00000000E+00
  0.00000000E+00  0.00000000E+00  0.00000000E+00  0.00000000E+00  0.00000000E+00
  0.00000000E+00  0.00000000E+00  0.00000000E+00  0.00000000E+00  0.00000000E+00
  0.00000000E+00  0.00000000E+00  0.00000000E+00
Nuclear GFac                               R   N=          18
  0.00000000E+00  4.03761000E-01  0.00000000E+00  0.00000000E+00  0.00000000E+00
  0.00000000E+00  0.00000000E+00  0.00000000E+00  0.00000000E+00  2.79284600E+00
  2.79284600E+00  2.79284600E+00  2.79284600E+00  2.79284600E+00  2.79284600E+00
  2.79284600E+00  2.79284600E+00  2.79284600E+00
MicOpt                                     I   N=          18
          -1          -1          -1          -1          -1          -1
          -1          -1          -1          -1          -1          -1
          -1          -1          -1          -1          -1          -1
Number of contracted shells                I               54
Number of primitive shells                 I              135
Pure/Cartesian d shells                    I                1
Pure/Cartesian f shells                    I                0
Highest angular momentum                   I                2
Largest degree of contraction              I                6
Shell types                                I   N=          54
           0          -1          -1           2           0          -1
          -1           2           0          -1          -1           2
           0          -1          -1           2           0          -1
          -1           2           0          -1          -1           2
           0          -1          -1           2           0          -1
          -1           2           0          -1          -1           2
           0           0           0           0           0           0
           0           0           0           0           0           0
           0           0           0           0           0           0
Number of primitives per shell             I   N=          54
           6           3           1           1           6           3
           1           1           6           3           1           1
           6           3           1           1           6           3
           1           1           6           3           1           1
           6           3           1           1           6           3
           1           1           6           3           1           1
           3           1           3           1           3           1
           3           1           3           1           3           1
           3           1           3           1           3           1
Shell to atom map                          I   N=          54
           1           1           1           1           2           2
           2           2           3           3           3           3
           4           4           4           4           5           5
           5           5           6           6           6           6
           7           7           7           7           8           8
           8           8           9           9           9           9
          10          10          11          11          12          12
          13          13          14          14          15          15
          16          16          17          17          18          18
Primitive exponents                        R   N=         135
  5.48467166E+03  8.25234946E+02  1.88046958E+02  5.29645000E+01  1.68975704E+01
  5.79963534E+00  1.55396162E+01  3.59993359E+00  1.01376175E+00  2.70005823E-01
  8.00000000E-01  4.17351146E+03  6.27457911E+02  1.42902093E+02  4.02343293E+01
  1.28202129E+01  4.39043701E+00  1.16263619E+01  2.71627981E+00  7.72218397E-01
  2.12031498E-01  8.00000000E-01  3.04752488E+03  4.57369518E+02  1.03948685E+02
  2.92101553E+01  9.28666296E+00  3.16392696E+00  7.86827235E+00  1.88128854E+00
  5.44249258E-01  1.68714478E-01  8.00000000E-01  3.04752488E+03  4.57369518E+02
  1.03948685E+02  2.92101553E+01  9.28666296E+00  3.16392696E+00  7.86827235E+00
  1.88128854E+00  5.44249258E-01  1.68714478E-01  8.00000000E-01  3.04752488E+03
  4.57369518E+02  1.03948685E+02  2.92101553E+01  9.28666296E+00  3.16392696E+00
  7.86827235E+00  1.88128854E+00  5.44249258E-01  1.68714478E-01  8.00000000E-01
  3.04752488E+03  4.57369518E+02  1.03948685E+02  2.92101553E+01  9.28666296E+00
  3.16392696E+00  7.86827235E+00  1.88128854E+00  5.44249258E-01  1.68714478E-01
  8.00000000E-01  3.04752488E+03  4.57369518E+02  1.03948685E+02  2.92101553E+01
  9.28666296E+00  3.16392696E+00  7.86827235E+00  1.88128854E+00  5.44249258E-01
  1.68714478E-01  8.00000000E-01  3.04752488E+03  4.57369518E+02  1.03948685E+02
  2.92101553E+01  9.28666296E+00  3.16392696E+00  7.86827235E+00  1.88128854E+00
  5.44249258E-01  1.68714478E-01  8.00000000E-01  3.04752488E+03  4.57369518E+02
  1.03948685E+02  2.92101553E+01  9.28666296E+00  3.16392696E+00  7.86827235E+00
  1.88128854E+00  5.44249258E-01  1.68714478E-01  8.00000000E-01  1.87311370E+01
  2.82539436E+00  6.40121692E-01  1.61277759E-01  1.87311370E+01  2.82539436E+00
  6.40121692E-01  1.61277759E-01  1.87311370E+01  2.82539436E+00  6.40121692E-01
  1.61277759E-01  1.87311370E+01  2.82539436E+00  6.40121692E-01  1.61277759E-01
  1.87311370E+01  2.82539436E+00  6.40121692E-01  1.61277759E-01  1.87311370E+01
  2.82539436E+00  6.40121692E-01  1.61277759E-01  1.87311370E+01  2.82539436E+00
  6.40121692E-01  1.61277759E-01  1.87311370E+01  2.82539436E+00  6.40121692E-01
  1.61277759E-01  1.87311370E+01  2.82539436E+00  6.40121692E-01  1.61277759E-01
Contraction coefficients                   R   N=         135
  1.83107443E-03  1.39501722E-02  6.84450781E-02  2.32714336E-01  4.70192898E-01
  3.58520853E-01 -1.10777550E-01 -1.48026263E-01  1.13076702E+00  1.00000000E+00
  1.00000000E+00  1.83477216E-03  1.39946270E-02  6.85865518E-02  2.32240873E-01
  4.69069948E-01  3.60455199E-01 -1.14961182E-01 -1.69117479E-01  1.14585195E+00
  1.00000000E+00  1.00000000E+00  1.83473713E-03  1.40373228E-02  6.88426223E-02
  2.32184443E-01  4.67941348E-01  3.62311985E-01 -1.19332420E-01 -1.60854152E-01
  1.14345644E+00  1.00000000E+00  1.00000000E+00  1.83473713E-03  1.40373228E-02
  6.88426223E-02  2.32184443E-01  4.67941348E-01  3.62311985E-01 -1.19332420E-01
 -1.60854152E-01  1.14345644E+00  1.00000000E+00  1.00000000E+00  1.83473713E-03
  1.40373228E-02  6.88426223E-02  2.32184443E-01  4.67941348E-01  3.62311985E-01
 -1.19332420E-01 -1.60854152E-01  1.14345644E+00  1.00000000E+00  1.00000000E+00
  1.83473713E-03  1.40373228E-02  6.88426223E-02  2.32184443E-01  4.67941348E-01
  3.62311985E-01 -1.19332420E-01 -1.60854152E-01  1.14345644E+00  1.00000000E+00
  1.00000000E+00  1.83473713E-03  1.40373228E-02  6.88426223E-02  2.32184443E-01
  4.67941348E-01  3.62311985E-01 -1.19332420E-01 -1.60854152E-01  1.14345644E+00
  1.00000000E+00  1.00000000E+00  1.83473713E-03  1.40373228E-02  6.88426223E-02
  2.32184443E-01  4.67941348E-01  3.62311985E-01 -1.19332420E-01 -1.60854152E-01
  1.14345644E+00  1.00000000E+00  1.00000000E+00  1.83473713E-03  1.40373228E-02
  6.88426223E-02  2.32184443E-01  4.67941348E-01  3.62311985E-01 -1.19332420E-01
 -1.60854152E-01  1.14345644E+00  1.00000000E+00  1.00000000E+00  3.34946043E-02
  2.34726953E-01  8.13757326E-01  1.00000000E+00  3.34946043E-02  2.34726953E-01
  8.13757326E-01  1.00000000E+00  3.34946043E-02  2.34726953E-01  8.13757326E-01
  1.00000000E+00  3.34946043E-02  2.34726953E-01  8.13757326E-01  1.00000000E+00
  3.34946043E-02  2.34726953E-01  8.13757326E-01  1.00000000E+00  3.34946043E-02
  2.34726953E-01  8.13757326E-01  1.00000000E+00  3.34946043E-02  2.34726953E-01
  8.13757326E-01  1.00000000E+00  3.34946043E-02  2.34726953E-01  8.13757326E-01
  1.00000000E+00  3.34946043E-02  2.34726953E-01  8.13757326E-01  1.00000000E+00
P(S=P) Contraction coefficients            R   N=         135
  0.00000000E+00  0.00000000E+00  0.00000000E+00  0.00000000E+00  0.00000000E+00
  0.00000000E+00  7.08742682E-02  3.39752839E-01  7.27158577E-01  1.00000000E+00
  0.00000000E+00  0.00000000E+00  0.00000000E+00  0.00000000E+00  0.00000000E+00
  0.00000000E+00  0.00000000E+00  6.75797439E-02  3.23907296E-01  7.40895140E-01
  1.00000000E+00  0.00000000E+00  0.00000000E+00  0.00000000E+00  0.00000000E+00
  0.00000000E+00  0.00000000E+00  0.00000000E+00  6.89990666E-02  3.16423961E-01
  7.44308291E-01  1.00000000E+00  0.00000000E+00  0.00000000E+00  0.00000000E+00
  0.00000000E+00  0.00000000E+00  0.00000000E+00  0.00000000E+00  6.89990666E-02
  3.16423961E-01  7.44308291E-01  1.00000000E+00  0.00000000E+00  0.00000000E+00
  0.00000000E+00  0.00000000E+00  0.00000000E+00  0.00000000E+00  0.00000000E+00
  6.89990666E-02  3.16423961E-01  7.44308291E-01  1.00000000E+00  0.00000000E+00
  0.00000000E+00  0.00000000E+00  0.00000000E+00  0.00000000E+00  0.00000000E+00
  0.00000000E+00  6.89990666E-02  3.16423961E-01  7.44308291E-01  1.00000000E+00
  0.00000000E+00  0.00000000E+00  0.00000000E+00  0.00000000E+00  0.00000000E+00
  0.00000000E+00  0.00000000E+00  6.89990666E-02  3.16423961E-01  7.44308291E-01
  1.00000000E+00  0.00000000E+00  0.00000000E+00  0.00000000E+00  0.00000000E+00
  0.00000000E+00  0.00000000E+00  0.00000000E+00  6.89990666E-02  3.16423961E-01
  7.44308291E-01  1.00000000E+00  0.00000000E+00  0.00000000E+00  0.00000000E+00
  0.00000000E+00  0.00000000E+00  0.00000000E+00  0.00000000E+00  6.89990666E-02
  3.16423961E-01  7.44308291E-01  1.00000000E+00  0.00000000E+00  0.00000000E+00
  0.00000000E+00  0.00000000E+00  0.00000000E+00  0.00000000E+00  0.00000000E+00
  0.00000000E+00  0.00000000E+00  0.00000000E+00  0.00000000E+00  0.00000000E+00
  0.00000000E+00  0.00000000E+00  0.00000000E+00  0.00000000E+00  0.00000000E+00
  0.00000000E+00  0.00000000E+00  0.00000000E+00  0.00000000E+00  0.00000000E+00
  0.00000000E+00  0.00000000E+00  0.00000000E+00  0.00000000E+00  0.00000000E+00
  0.00000000E+00  0.00000000E+00  0.00000000E+00  0.00000000E+00  0.00000000E+00
  0.00000000E+00  0.00000000E+00  0.00000000E+00  0.00000000E+00  0.00000000E+00
Coordinates of each shell                  R   N=         162
  1.29101036E+00  3.68768205E+00 -3.49832522E-01  1.29101036E+00  3.68768205E+00
 -3.49832522E-01  1.29101036E+00  3.68768205E+00 -3.49832522E-01  1.29101036E+00
  3.68768205E+00 -3.49832522E-01  6.08731176E-01 -6.05988707E-01 -5.63084742E-01
  6.08731176E-01 -6.05988707E-01 -5.63084742E-01  6.08731176E-01 -6.05988707E-01
 -5.63084742E-01  6.08731176E-01 -6.05988707E-01 -5.63084742E-01  3.32224371E+00
 -9.36486840E-01 -1.03784716E+00  3.32224371E+00 -9.36486840E-01 -1.03784716E+00
  3.32224371E+00 -9.36486840E-01 -1.03784716E+00  3.32224371E+00 -9.36486840E-01
 -1.03784716E+00 -2.28853919E-01  1.90683940E+00 -2.11286799E-01 -2.28853919E-01
  1.90683940E+00 -2.11286799E-01 -2.28853919E-01  1.90683940E+00 -2.11286799E-01
 -2.28853919E-01  1.90683940E+00 -2.11286799E-01 -9.39846613E-01 -2.66548126E+00
 -3.72720005E-01 -9.39846613E-01 -2.66548126E+00 -3.72720005E-01 -9.39846613E-01
 -2.66548126E+00 -3.72720005E-01 -9.39846613E-01 -2.66548126E+00 -3.72720005E-01
  4.83844096E+00 -8.15879492E-01  1.40288535E+00  4.83844096E+00 -8.15879492E-01
  1.40288535E+00  4.83844096E+00 -8.15879492E-01  1.40288535E+00  4.83844096E+00
 -8.15879492E-01  1.40288535E+00 -2.90498984E+00  2.12088865E+00  2.88480768E-01
 -2.90498984E+00  2.12088865E+00  2.88480768E-01 -2.90498984E+00  2.12088865E+00
  2.88480768E-01 -2.90498984E+00  2.12088865E+00  2.88480768E-01 -3.46191754E+00
 -2.41515503E+00  1.34709004E-01 -3.46191754E+00 -2.41515503E+00  1.34709004E-01
 -3.46191754E+00 -2.41515503E+00  1.34709004E-01 -3.46191754E+00 -2.41515503E+00
  1.34709004E-01 -4.45060507E+00  5.30731986E-02  4.70153654E-01 -4.45060507E+00
  5.30731986E-02  4.70153654E-01 -4.45060507E+00  5.30731986E-02  4.70153654E-01
 -4.45060507E+00  5.30731986E-02  4.70153654E-01  3.56321215E+00 -2.75140308E+00
 -1.99575182E+00  3.56321215E+00 -2.75140308E+00 -1.99575182E+00  3.89193407E+00
  5.76608003E-01 -2.31795833E+00  3.89193407E+00  5.76608003E-01 -2.31795833E+00
 -3.72512320E-02 -4.48586522E+00 -6.66643778E-01 -3.72512320E-02 -4.48586522E+00
 -6.66643778E-01  4.57054894E+00  1.02652211E+00  2.28815932E+00  4.57054894E+00
  1.02652211E+00  2.28815932E+00  4.23736357E+00 -2.29673576E+00  2.71258979E+00
  4.23736357E+00 -2.29673576E+00  2.71258979E+00  6.85123645E+00 -1.07052913E+00
  1.00443222E+00  6.85123645E+00 -1.07052913E+00  1.00443222E+00 -3.61440446E+00
  4.02891221E+00  5.39642913E-01 -3.61440446E+00  4.02891221E+00  5.39642913E-01
 -4.64708436E+00 -4.08091409E+00  2.62944364E-01 -4.64708436E+00 -4.08091409E+00
  2.62944364E-01 -6.45158640E+00  3.07077723E-01  8.66589853E-01 -6.45158640E+00
  3.07077723E-01  8.66589853E-01
Constraint Structure                       R   N=          54
  1.29101036E+00  3.68768205E+00 -3.49832522E-01  6.08731176E-01 -6.05988707E-01
 -5.63084742E-01  3.32224371E+00 -9.36486840E-01 -1.03784716E+00 -2.28853919E-01
  1.90683940E+00 -2.11286799E-01 -9.39846613E-01 -2.66548126E+00 -3.72720005E-01
  4.83844096E+00 -8.15879492E-01  1.40288535E+00 -2.90498984E+00  2.12088865E+00
  2.88480768E-01 -3.46191754E+00 -2.41515503E+00  1.34709004E-01 -4.45060507E+00
  5.30731986E-02  4.70153654E-01  3.56321215E+00 -2.75140308E+00 -1.99575182E+00
  3.89193407E+00  5.76608003E-01 -2.31795833E+00 -3.72512320E-02 -4.48586522E+00
 -6.66643778E-01  4.57054894E+00  1.02652211E+00  2.28815932E+00  4.23736357E+00
 -2.29673576E+00  2.71258979E+00  6.85123645E+00 -1.07052913E+00  1.00443222E+00
 -3.61440446E+00  4.02891221E+00  5.39642913E-01 -4.64708436E+00 -4.08091409E+00
  2.62944364E-01 -6.45158640E+00  3.07077723E-01  8.66589853E-01
Num ILSW                                   I              100
ILSW                                       I   N=         100
           0           1           0           0           2           0
           0           0           0           0           0          -1
           0           0           0           0           0           0
           0           0           0           0           1           0
           1           0           0           0           0           0
           0           0      100000           0          -1           0
           0           0           0           0           0           0
           0           0           0           1           1           0
           0           0           1           0           0           0
           0           0           4          40           0           0
           0           0           0           0           0           0
           0           0           0           0           0           0
           0           0           0           0           0           0
           0           0           0           0           0           0
           0           0           0           0           0           0
           0           0           0           0           0           0
           0           0           0           0
Num RLSW                                   I               40
RLSW                                       R   N=          40
  1.00000000E+00  1.00000000E+00  1.00000000E+00  1.00000000E+00  1.00000000E+00
  0.00000000E+00  0.00000000E+00  1.00000000E+00  0.00000000E+00  0.00000000E+00
  0.00000000E+00  0.00000000E+00  1.00000000E+00  0.00000000E+00  0.00000000E+00
  0.00000000E+00  0.00000000E+00  1.00000000E+00  0.00000000E+00  0.00000000E+00
  0.00000000E+00  0.00000000E+00  1.00000000E+00  0.00000000E+00  0.00000000E+00
  0.00000000E+00  0.00000000E+00  1.00000000E+00  0.00000000E+00  0.00000000E+00
  0.00000000E+00  0.00000000E+00  0.00000000E+00  0.00000000E+00  0.00000000E+00
  0.00000000E+00  0.00000000E+00  0.00000000E+00  1.00000000E+00  1.00000000E+00
MxBond                                     I                4
NBond                                      I   N=          18
           1           3           4           3           3           4
           3           3           3           1           1           1
           1           1           1           1           1           1
IBond                                      I   N=          72
           4           0           0           0           3           4
           5           0           2           6          10          11
           1           2           7           0           2           8
          12           0           3          13          14          15
           4           9          16           0           5           9
          17           0           7           8          18           0
           3           0           0           0           3           0
           0           0           5           0           0           0
           6           0           0           0           6           0
           0           0           6           0           0           0
           7           0           0           0           8           0
           0           0           9           0           0           0
RBond                                      R   N=          72
  2.00000000E+00  0.00000000E+00  0.00000000E+00  0.00000000E+00  1.00000000E+00
  1.00000000E+00  1.00000000E+00  0.00000000E+00  1.00000000E+00  1.00000000E+00
  1.00000000E+00  1.00000000E+00  2.00000000E+00  1.00000000E+00  1.00000000E+00
  0.00000000E+00  1.00000000E+00  2.00000000E+00  1.00000000E+00  0.00000000E+00
  1.00000000E+00  1.00000000E+00  1.00000000E+00  1.00000000E+00  1.00000000E+00
  2.00000000E+00  1.00000000E+00  0.00000000E+00  2.00000000E+00  1.00000000E+00
  1.00000000E+00  0.00000000E+00  2.00000000E+00  1.00000000E+00  1.00000000E+00
  0.00000000E+00  1.00000000E+00  0.00000000E+00  0.00000000E+00  0.00000000E+00
  1.00000000E+00  0.00000000E+00  0.00000000E+00  0.00000000E+00  1.00000000E+00
  0.00000000E+00  0.00000000E+00  0.00000000E+00  1.00000000E+00  0.00000000E+00
  0.00000000E+00  0.00000000E+00  1.00000000E+00  0.00000000E+00  0.00000000E+00
  0.00000000E+00  1.00000000E+00  0.00000000E+00  0.00000000E+00  0.00000000E+00
  1.00000000E+00  0.00000000E+00  0.00000000E+00  0.00000000E+00  1.00000000E+00
  0.00000000E+00  0.00000000E+00  0.00000000E+00  1.00000000E+00  0.00000000E+00
  0.00000000E+00  0.00000000E+00
Virial Ratio                               R      2.002406073569589E+00
SCF Energy                                 R     -3.996298849599738E+02
MP2 Energy                                 R     -4.008642789747080E+02
Total Energy                               R     -4.008642789747080E+02
Post-SCF wavefunction norm                 R      1.684287433136158E+00
RMS Force                                  R      1.845436207156912E-06
RMS Density                                R      3.405060902077563E-09
External E-field                           R   N=          35
  0.00000000E+00  0.00000000E+00  0.00000000E+00  0.00000000E+00  0.00000000E+00
  0.00000000E+00  0.00000000E+00  0.00000000E+00  0.00000000E+00  0.00000000E+00
  0.00000000E+00  0.00000000E+00  0.00000000E+00  0.00000000E+00  0.00000000E+00
  0.00000000E+00  0.00000000E+00  0.00000000E+00  0.00000000E+00  0.00000000E+00
  0.00000000E+00  0.00000000E+00  0.00000000E+00  0.00000000E+00  0.00000000E+00
  0.00000000E+00  0.00000000E+00  0.00000000E+00  0.00000000E+00  0.00000000E+00
  0.00000000E+00  0.00000000E+00  0.00000000E+00  0.00000000E+00  0.00000000E+00
IOpCl                                      I                0
IROHF                                      I                0
Alpha Orbital Energies                     R   N=         153
 -2.05080119E+01 -1.56270671E+01 -1.13484941E+01 -1.13083478E+01 -1.12728302E+01
 -1.12689711E+01 -1.12391610E+01 -1.12338217E+01 -1.12201089E+01 -1.36350813E+00
 -1.27404119E+00 -1.11512896E+00 -1.02825837E+00 -1.01488912E+00 -8.92398057E-01
 -8.66741768E-01 -8.21211238E-01 -7.10879546E-01 -6.95515904E-01 -6.63586672E-01
 -6.35960656E-01 -6.09579637E-01 -6.04950220E-01 -5.98393722E-01 -5.56056135E-01
 -5.34449493E-01 -5.25775663E-01 -5.22353637E-01 -5.02907724E-01 -4.68101621E-01
 -4.12038032E-01 -4.02334758E-01 -3.01139495E-01  1.01254327E-01  1.70421190E-01
  2.21279714E-01  2.46177293E-01  2.74493063E-01  2.98144705E-01  3.03977197E-01
  3.12314681E-01  3.23752266E-01  3.30436144E-01  3.38066068E-01  3.43814915E-01
  3.59554038E-01  4.07656644E-01  4.35894476E-01  4.66017362E-01  4.82116036E-01
  5.13940279E-01  5.20644527E-01  6.33034933E-01  6.83908347E-01  6.93905272E-01
  7.20102077E-01  7.40112518E-01  7.43969074E-01  7.55748266E-01  7.76128138E-01
  8.02625779E-01  8.17186920E-01  8.20043469E-01  8.28769675E-01  8.59365340E-01
  8.74516635E-01  9.06246730E-01  9.17913812E-01  9.45421604E-01  9.78350527E-01
  1.02296867E+00  1.03974845E+00  1.05643078E+00  1.08730949E+00  1.09421230E+00
  1.11341710E+00  1.14719447E+00  1.15267037E+00  1.16580634E+00  1.16717182E+00
  1.18174456E+00  1.19390541E+00  1.20741464E+00  1.23105488E+00  1.23701572E+00
  1.25517064E+00  1.30317102E+00  1.31490261E+00  1.37893221E+00  1.40080536E+00
  1.40483736E+00  1.47587326E+00  1.48297574E+00  1.50904126E+00  1.61538211E+00
  1.63286670E+00  1.66296036E+00  1.68675407E+00  1.69787397E+00  1.70897339E+00
  1.73971676E+00  1.76174873E+00  1.77758623E+00  1.95775164E+00  1.99844611E+00
  2.04974682E+00  2.09839832E+00  2.13226324E+00  2.13776550E+00  2.17875461E+00
  2.19932600E+00  2.21083165E+00  2.22893941E+00  2.25209380E+00  2.28840031E+00
  2.31042738E+00  2.33994987E+00  2.38421200E+00  2.39179222E+00  2.41733099E+00
  2.45485278E+00  2.48645094E+00  2.52625950E+00  2.56949951E+00  2.57886361E+00
  2.62307699E+00  2.64311204E+00  2.67486409E+00  2.71902733E+00  2.73118975E+00
  2.78670542E+00  2.90313257E+00  2.91572116E+00  2.95992626E+00  2.99846776E+00
  3.02810858E+00  3.04638661E+00  3.05230283E+00  3.15269771E+00  3.19679943E+00
  3.21029441E+00  3.38506343E+00  3.56540263E+00  3.77077881E+00  4.44163345E+00
  4.49516810E+00  4.53657252E+00  4.62795616E+00  4.66007801E+00  4.72464902E+00
  4.86578137E+00  4.94084173E+00  5.15456582E+00
Alpha MO coefficients                      R   N=       23409
  9.94692016E-01  2.09766676E-02 -9.59591110E-04 -1.18083542E-03  7.73438567E-05
  4.37831908E-03  9.31504425E-05  7.59132564E-05 -2.56247756E-06 -3.81828710E-03
 -3.78253117E-03 -4.07199899E-03  1.22347783E-04 -4.25429500E-05  1.17674543E-06
 -1.13071973E-05 -3.79029397E-05  3.72374323E-06 -4.70193212E-05 -6.40995411E-06
  1.93729628E-04 -5.73982536E-05  1.47504578E-04  3.81372630E-05  2.34774999E-05
 -8.52861923E-05 -4.74586184E-05 -6.55498390E-05 -1.80027418E-05  8.46168937E-06
 -2.49432082E-06  8.44709266E-06  6.22489606E-06  3.87164492E-06  1.19808193E-05
  1.33373948E-04  4.51306541E-05 -6.25191703E-05 -7.90015801E-05 -2.67232836E-05
 -1.43795001E-05 -6.47902012E-06  7.27699790E-06  6.25434653E-06 -1.42514307E-06
 -3.77223893E-06  5.40007443E-04  1.18407826E-05  2.66247804E-05 -3.00286270E-06
 -4.79660951E-04 -2.63946811E-04 -2.45783214E-04  2.93045208E-05 -3.51941533E-04
 -4.42844581E-04 -5.99033433E-05 -3.95135968E-04  2.99698153E-05  3.76866062E-05
  6.24182473E-06  2.95917993E-05  1.46514295E-05  2.14595673E-05 -2.50560804E-06
 -1.82978103E-04  1.63500161E-04 -1.39589773E-04 -4.37003471E-05  3.07563131E-05
 -7.84979289E-07  1.33802635E-05  2.83439588E-05 -3.05892801E-06 -7.85965427E-06
 -1.70178131E-06 -1.33042880E-05 -6.84316364E-06 -3.30700593E-07 -1.11273846E-05
  1.06408919E-04 -1.92855078E-06  5.47358068E-05  5.75736769E-05  2.78098837E-06
  2.12778129E-06 -5.55118407E-06 -5.32752798E-07 -2.88508476E-06 -5.58040917E-06
 -3.27006005E-06 -1.14469043E-05  2.44189893E-06 -1.74936325E-05 -1.56486890E-06
  1.17195732E-04  6.27590466E-06 -1.11082381E-04 -8.42307174E-06 -9.85313761E-06
  1.45898018E-06 -2.11402534E-05 -8.27606366E-05 -9.12747849E-06  1.70593366E-05
 -7.11522988E-07 -3.96509036E-06  4.37131919E-06  8.45369471E-06 -2.27765426E-07
  2.78148496E-04  1.00424665E-04  7.71000649E-05 -1.45087139E-05 -5.68061197E-06
 -3.73130358E-07  3.02076852E-06  1.16809313E-05  2.84260924E-06 -2.68124249E-06
  5.40667139E-06  3.16906862E-05  1.06385044E-05  1.48874802E-05 -1.41959210E-06
 -2.32890249E-04 -1.72017501E-04  9.70927501E-06  3.37816743E-05 -1.16470160E-05
  2.95306714E-05  1.01279162E-05  9.07479946E-06  5.47682385E-06 -7.80253145E-07
 -1.31859622E-05 -6.63005096E-05  1.79753699E-05 -1.23623728E-04 -8.46345902E-06
 -6.92909564E-05  2.49326252E-05 -1.51555956E-04 -7.22783551E-06 -5.69010906E-06
 -6.96785245E-06  3.29307673E-06  3.62718140E-06  1.93978930E-05 -1.73144508E-06
  2.10578040E-05 -2.27364439E-06 -5.40412172E-05 -3.35436856E-05 -1.87468785E-04