
    -----------------------------------------------------------------------
          Psi4: An Open-Source Ab Initio Electronic Structure Package
                               Psi4 1.3.2 release

                         Git: Rev {HEAD} ecbda83 


    R. M. Parrish, L. A. Burns, D. G. A. Smith, A. C. Simmonett,
    A. E. DePrince III, E. G. Hohenstein, U. Bozkaya, A. Yu. Sokolov,
    R. Di Remigio, R. M. Richard, J. F. Gonthier, A. M. James,
    H. R. McAlexander, A. Kumar, M. Saitow, X. Wang, B. P. Pritchard,
    P. Verma, H. F. Schaefer III, K. Patkowski, R. A. King, E. F. Valeev,
    F. A. Evangelista, J. M. Turney, T. D. Crawford, and C. D. Sherrill,
    J. Chem. Theory Comput. 13(7) pp 3185--3197 (2017).
    (doi: 10.1021/acs.jctc.7b00174)


                         Additional Contributions by
    P. Kraus, H. Kruse, M. H. Lechner, M. C. Schieber, R. A. Shaw,
    A. Alenaizan, R. Galvelis, Z. L. Glick, S. Lehtola, and J. P. Misiewicz

    -----------------------------------------------------------------------


    Psi4 started on: Monday, 09 November 2020 09:39AM

    Process ID: 11864
    Host:       node59.bme.utexas.edu
    PSIDATADIR: /home/xy3866/psi4conda/share/psi4
    Memory:     500.0 MiB
    Threads:    8
    
  ==> Input File <==

--------------------------------------------------------------------------
#psi4
#
memory 32 gb

molecule  {
0 1
  O        1.0848120    -0.4327500    -0.0000380
  O       -1.0848130    -0.4327500    -0.0000360
  O       -0.0000001     1.5813229    -0.0999790
  C        2.3404510     0.2903800     0.0000000
  C       -2.3404490     0.2903790     0.0000040
  C        3.4330320    -0.7534130     0.0000320
  C       -3.4330330    -0.7534120     0.0000290
  C        0.0000010     0.3626890    -0.0000340
  H        2.3799910     0.9319240    -0.8843590
  H        2.3799380     0.9319250     0.8843600
  H       -2.3799400     0.9319200     0.8843670
  H       -2.3799890     0.9319290    -0.8843510
  H        4.4117640    -0.2654940     0.0000570
  H        3.3582860    -1.3857500     0.8869440
  H        3.3583340    -1.3857540    -0.8868810
  H       -4.4117630    -0.2654900     0.0000540
  H       -3.3583340    -1.3857510    -0.8868860
  H       -3.3582920    -1.3857530     0.8869380
units angstrom
no_reorient  #important for SAPT in psi4, default
symmetry c1  #important for SAPT in psi4, default
}

set PROPERTIES_ORIGIN ["COM"]
properties('MP2/aug-cc-pvtz', properties = ['dipole'])
--------------------------------------------------------------------------

  Memory set to  29.802 GiB by Python driver.
    SCF Algorithm Type (re)set to DF.

*** tstart() called on node59.bme.utexas.edu
*** at Mon Nov  9 09:39:57 2020

   => Loading Basis Set <=

    Name: AUG-CC-PVTZ
    Role: ORBITAL
    Keyword: BASIS
    atoms 1-3  entry O          line   327 file /home/xy3866/psi4conda/share/psi4/basis/aug-cc-pvtz.gbs 
    atoms 4-8  entry C          line   235 file /home/xy3866/psi4conda/share/psi4/basis/aug-cc-pvtz.gbs 
    atoms 9-18 entry H          line    36 file /home/xy3866/psi4conda/share/psi4/basis/aug-cc-pvtz.gbs 


         ---------------------------------------------------------
                                   SCF
               by Justin Turney, Rob Parrish, Andy Simmonett
                          and Daniel G. A. Smith
                              RHF Reference
                        8 Threads,  30517 MiB Core
         ---------------------------------------------------------

  ==> Geometry <==

    Molecular point group: c1
    Full point group: C1

    Geometry (in Angstrom), charge = 0, multiplicity = 1:

       Center              X                  Y                   Z               Mass       
    ------------   -----------------  -----------------  -----------------  -----------------
         O            1.084811988426    -0.452437357230     0.013511735055    15.994914619570
         O           -1.084813011574    -0.452437357230     0.013513735055    15.994914619570
         O           -0.000000111574     1.561635542770    -0.086429264945    15.994914619570
         C            2.340450988426     0.270692642770     0.013549735055    12.000000000000
         C           -2.340449011574     0.270691642770     0.013553735055    12.000000000000
         C            3.433031988426    -0.773100357230     0.013581735055    12.000000000000
         C           -3.433033011574    -0.773099357230     0.013578735055    12.000000000000
         C            0.000000988426     0.343001642770     0.013515735055    12.000000000000
         H            2.379990988426     0.912236642770    -0.870809264945     1.007825032230
         H            2.379937988426     0.912237642770     0.897909735055     1.007825032230
         H           -2.379940011574     0.912232642770     0.897916735055     1.007825032230
         H           -2.379989011574     0.912241642770    -0.870801264945     1.007825032230
         H            4.411763988426    -0.285181357230     0.013606735055     1.007825032230
         H            3.358285988426    -1.405437357230     0.900493735055     1.007825032230
         H            3.358333988426    -1.405441357230    -0.873331264945     1.007825032230
         H           -4.411763011574    -0.285177357230     0.013603735055     1.007825032230
         H           -3.358334011574    -1.405438357230    -0.873336264945     1.007825032230
         H           -3.358292011574    -1.405440357230     0.900487735055     1.007825032230

  Running in c1 symmetry.

  Rotational constants: A =      0.20808  B =      0.02979  C =      0.02658 [cm^-1]
  Rotational constants: A =   6238.19598  B =    893.09924  C =    796.94747 [MHz]
  Nuclear repulsion =  391.796037535461096

  Charge       = 0
  Multiplicity = 1
  Electrons    = 64
  Nalpha       = 32
  Nbeta        = 32

  ==> Algorithm <==

  SCF Algorithm Type is DF.
  DIIS enabled.
  MOM disabled.
  Fractional occupation disabled.
  Guess Type is SAD.
  Energy threshold   = 1.00e-10
  Density threshold  = 1.00e-10
  Integral threshold = 0.00e+00

  ==> Primary Basis <==

  Basis Set: AUG-CC-PVTZ
    Blend: AUG-CC-PVTZ
    Number of shells: 202
    Number of basis function: 598
    Number of Cartesian functions: 690
    Spherical Harmonics?: true
    Max angular momentum: 3

   => Loading Basis Set <=

    Name: (AUG-CC-PVTZ AUX)
    Role: JKFIT
    Keyword: DF_BASIS_SCF
    atoms 1-3  entry O          line   286 file /home/xy3866/psi4conda/share/psi4/basis/aug-cc-pvtz-jkfit.gbs 
    atoms 4-8  entry C          line   162 file /home/xy3866/psi4conda/share/psi4/basis/aug-cc-pvtz-jkfit.gbs 
    atoms 9-18 entry H          line    70 file /home/xy3866/psi4conda/share/psi4/basis/aug-cc-pvtz-jkfit.gbs 

  ==> Pre-Iterations <==

   -------------------------------------------------------
    Irrep   Nso     Nmo     Nalpha   Nbeta   Ndocc  Nsocc
   -------------------------------------------------------
     A        598     598       0       0       0       0
   -------------------------------------------------------
    Total     598     598      32      32      32       0
   -------------------------------------------------------

  ==> Integral Setup <==

  DFHelper Memory: AOs need 3.199 GiB; user supplied 22.352 GiB. Using in-core AOs.

  ==> MemDFJK: Density-Fitted J/K Matrices <==

    J tasked:                   Yes
    K tasked:                   Yes
    wK tasked:                   No
    OpenMP threads:               8
    Memory [MiB]:             22888
    Algorithm:                 Disk
    Schwarz Cutoff:           1E-12
    Mask sparsity (%):      10.1386
    Fitting Condition:        1E-10

   => Auxiliary Basis Set <=

  Basis Set: (AUG-CC-PVTZ AUX)
    Blend: AUG-CC-PVTZ-JKFIT
    Number of shells: 380
    Number of basis function: 1292
    Number of Cartesian functions: 1598
    Spherical Harmonics?: true
    Max angular momentum: 4

  Minimum eigenvalue in the overlap matrix is 7.0803931263E-06.
  Using Symmetric Orthogonalization.

  SCF Guess: Superposition of Atomic Densities via on-the-fly atomic UHF.

  ==> Iterations <==

                           Total Energy        Delta E     RMS |[F,P]|

   @DF-RHF iter SAD:  -418.73680256334825   -4.18737e+02   0.00000e+00 
   @DF-RHF iter   1:  -419.64837646005981   -9.11574e-01   1.28508e-03 DIIS
   @DF-RHF iter   2:  -419.85969671518205   -2.11320e-01   7.50887e-04 DIIS
   @DF-RHF iter   3:  -419.93100588918935   -7.13092e-02   1.35376e-04 DIIS
   @DF-RHF iter   4:  -419.93496395977945   -3.95807e-03   5.57901e-05 DIIS
   @DF-RHF iter   5:  -419.93559267369955   -6.28714e-04   1.40072e-05 DIIS
   @DF-RHF iter   6:  -419.93564370632816   -5.10326e-05   5.63631e-06 DIIS
   @DF-RHF iter   7:  -419.93565369723598   -9.99091e-06   1.73083e-06 DIIS
   @DF-RHF iter   8:  -419.93565518123506   -1.48400e-06   7.27328e-07 DIIS
   @DF-RHF iter   9:  -419.93565543877548   -2.57540e-07   2.27524e-07 DIIS
   @DF-RHF iter  10:  -419.93565546583369   -2.70582e-08   6.22055e-08 DIIS
   @DF-RHF iter  11:  -419.93565546758333   -1.74964e-09   1.78196e-08 DIIS
   @DF-RHF iter  12:  -419.93565546769491   -1.11584e-10   4.72309e-09 DIIS
   @DF-RHF iter  13:  -419.93565546770282   -7.90124e-12   1.20057e-09 DIIS
   @DF-RHF iter  14:  -419.93565546770373   -9.09495e-13   3.68007e-10 DIIS
   @DF-RHF iter  15:  -419.93565546770458   -8.52651e-13   1.14368e-10 DIIS
   @DF-RHF iter  16:  -419.93565546770492   -3.41061e-13   3.69316e-11 DIIS
  Energy and wave function converged.


  ==> Post-Iterations <==

    Orbital Energies [Eh]
    ---------------------

    Doubly Occupied:                                                      

       1A    -20.607532     2A    -20.607508     3A    -20.544846  
       4A    -11.430171     5A    -11.292048     6A    -11.292047  
       7A    -11.225655     8A    -11.225654     9A     -1.496170  
      10A     -1.394707    11A     -1.355024    12A     -1.056834  
      13A     -1.026308    14A     -0.893231    15A     -0.845267  
      16A     -0.791645    17A     -0.744201    18A     -0.706989  
      19A     -0.690455    20A     -0.662444    21A     -0.598871  
      22A     -0.597972    23A     -0.590277    24A     -0.555444  
      25A     -0.541936    26A     -0.537451    27A     -0.519108  
      28A     -0.515704    29A     -0.506861    30A     -0.469187  
      31A     -0.467110    32A     -0.464186  

    Virtual:                                                              

      33A      0.029694    34A      0.031393    35A      0.039193  
      36A      0.040827    37A      0.049199    38A      0.049542  
      39A      0.051434    40A      0.062772    41A      0.065912  
      42A      0.076507    43A      0.096950    44A      0.097837  
      45A      0.109109    46A      0.115400    47A      0.118823  
      48A      0.122616    49A      0.125480    50A      0.130492  
      51A      0.132018    52A      0.136143    53A      0.142164  
      54A      0.144503    55A      0.156366    56A      0.162917  
      57A      0.169874    58A      0.172608    59A      0.176014  
      60A      0.202292    61A      0.205655    62A      0.208228  
      63A      0.211473    64A      0.219222    65A      0.225386  
      66A      0.225671    67A      0.231656    68A      0.238161  
      69A      0.248985    70A      0.250506    71A      0.252135  
      72A      0.267385    73A      0.268022    74A      0.280439  
      75A      0.286657    76A      0.289002    77A      0.303175  
      78A      0.310502    79A      0.311720    80A      0.319262  
      81A      0.325319    82A      0.336045    83A      0.337835  
      84A      0.338334    85A      0.342366    86A      0.348245  
      87A      0.351492    88A      0.352878    89A      0.355781  
      90A      0.361417    91A      0.371987    92A      0.377450  
      93A      0.380808    94A      0.393052    95A      0.393384  
      96A      0.393588    97A      0.395987    98A      0.403576  
      99A      0.412240   100A      0.417462   101A      0.419185  
     102A      0.422883   103A      0.427084   104A      0.440093  
     105A      0.444039   106A      0.445998   107A      0.452923  
     108A      0.453995   109A      0.460263   110A      0.463163  
     111A      0.465925   112A      0.466513   113A      0.467781  
     114A      0.470051   115A      0.476011   116A      0.480515  
     117A      0.483760   118A      0.492466   119A      0.498178  
     120A      0.517564   121A      0.520608   122A      0.524724  
     123A      0.526483   124A      0.531769   125A      0.535781  
     126A      0.541638   127A      0.542655   128A      0.552243  
     129A      0.555827   130A      0.562425   131A      0.581386  
     132A      0.587841   133A      0.588803   134A      0.598965  
     135A      0.608377   136A      0.611336   137A      0.615863  
     138A      0.624059   139A      0.636679   140A      0.651243  
     141A      0.654408   142A      0.664893   143A      0.685112  
     144A      0.686943   145A      0.702716   146A      0.724609  
     147A      0.731198   148A      0.745807   149A      0.748314  
     150A      0.768690   151A      0.773313   152A      0.777395  
     153A      0.784223   154A      0.799006   155A      0.805834  
     156A      0.809937   157A      0.816698   158A      0.829154  
     159A      0.835013   160A      0.841120   161A      0.848687  
     162A      0.849174   163A      0.852777   164A      0.856618  
     165A      0.857038   166A      0.881399   167A      0.881400  
     168A      0.884285   169A      0.894387   170A      0.903729  
     171A      0.907316   172A      0.907506   173A      0.912151  
     174A      0.916073   175A      0.924417   176A      0.936420  
     177A      0.936953   178A      0.949725   179A      0.949813  
     180A      0.952704   181A      0.952806   182A      0.967935  
     183A      0.972195   184A      0.977213   185A      0.980468  
     186A      0.993188   187A      0.997819   188A      1.006192  
     189A      1.012373   190A      1.014944   191A      1.024537  
     192A      1.027587   193A      1.030549   194A      1.047944  
     195A      1.050829   196A      1.080122   197A      1.080546  
     198A      1.085401   199A      1.089101   200A      1.096703  
     201A      1.108864   202A      1.111267   203A      1.115255  
     204A      1.121096   205A      1.123791   206A      1.127855  
     207A      1.145409   208A      1.149121   209A      1.151873  
     210A      1.152086   211A      1.157755   212A      1.167806  
     213A      1.180665   214A      1.189105   215A      1.193531  
     216A      1.196720   217A      1.202237   218A      1.206785  
     219A      1.235263   220A      1.236707   221A      1.238027  
     222A      1.247800   223A      1.253835   224A      1.259283  
     225A      1.286426   226A      1.286557   227A      1.300154  
     228A      1.303439   229A      1.303957   230A      1.306149  
     231A      1.310358   232A      1.315256   233A      1.341496  
     234A      1.358345   235A      1.364443   236A      1.368473  
     237A      1.371990   238A      1.382229   239A      1.391509  
     240A      1.401142   241A      1.403641   242A      1.432273  
     243A      1.445267   244A      1.454845   245A      1.459515  
     246A      1.467464   247A      1.491815   248A      1.506665  
     249A      1.512511   250A      1.521195   251A      1.541164  
     252A      1.545378   253A      1.554284   254A      1.569939  
     255A      1.586540   256A      1.589881   257A      1.608280  
     258A      1.624400   259A      1.626317   260A      1.629147  
     261A      1.630866   262A      1.637634   263A      1.642358  
     264A      1.646687   265A      1.661698   266A      1.665041  
     267A      1.680580   268A      1.681445   269A      1.687529  
     270A      1.695274   271A      1.697387   272A      1.702238  
     273A      1.707262   274A      1.708493   275A      1.722600  
     276A      1.723992   277A      1.730989   278A      1.745051  
     279A      1.762921   280A      1.766365   281A      1.774933  
     282A      1.780025   283A      1.784360   284A      1.792630  
     285A      1.792900   286A      1.809837   287A      1.826395  
     288A      1.833161   289A      1.845648   290A      1.848033  
     291A      1.864958   292A      1.865462   293A      1.883517  
     294A      1.887999   295A      1.904597   296A      1.910810  
     297A      1.924872   298A      1.948028   299A      1.956690  
     300A      1.976394   301A      1.979605   302A      1.997232  
     303A      2.015678   304A      2.036396   305A      2.042885  
     306A      2.045341   307A      2.050402   308A      2.059196  
     309A      2.072153   310A      2.102779   311A      2.121319  
     312A      2.145672   313A      2.152448   314A      2.161141  
     315A      2.185141   316A      2.188001   317A      2.210332  
     318A      2.216479   319A      2.227211   320A      2.242965  
     321A      2.244382   322A      2.246314   323A      2.279346  
     324A      2.290316   325A      2.315864   326A      2.317512  
     327A      2.332162   328A      2.335945   329A      2.364625  
     330A      2.378282   331A      2.387331   332A      2.416228  
     333A      2.423522   334A      2.426725   335A      2.453588  
     336A      2.465530   337A      2.466963   338A      2.482908  
     339A      2.490923   340A      2.522725   341A      2.555952  
     342A      2.575877   343A      2.596852   344A      2.625158  
     345A      2.657623   346A      2.664021   347A      2.680136  
     348A      2.681063   349A      2.693983   350A      2.697632  
     351A      2.717627   352A      2.722410   353A      2.729727  
     354A      2.747196   355A      2.801410   356A      2.821621  
     357A      2.822575   358A      2.848186   359A      2.883940  
     360A      2.917348   361A      2.936472   362A      2.940613  
     363A      2.949741   364A      2.956311   365A      3.020314  
     366A      3.029009   367A      3.038697   368A      3.064497  
     369A      3.095688   370A      3.126254   371A      3.144142  
     372A      3.173882   373A      3.187837   374A      3.226538  
     375A      3.226872   376A      3.273060   377A      3.276747  
     378A      3.290249   379A      3.338886   380A      3.395086  
     381A      3.411834   382A      3.420921   383A      3.429911  
     384A      3.439913   385A      3.452652   386A      3.464972  
     387A      3.478616   388A      3.503035   389A      3.526948  
     390A      3.563448   391A      3.566243   392A      3.604183  
     393A      3.612613   394A      3.615318   395A      3.617366  
     396A      3.640921   397A      3.653531   398A      3.676594  
     399A      3.683260   400A      3.685976   401A      3.697980  
     402A      3.703622   403A      3.717392   404A      3.733088  
     405A      3.736008   406A      3.752597   407A      3.786312  
     408A      3.799574   409A      3.802321   410A      3.818291  
     411A      3.820529   412A      3.832311   413A      3.834693  
     414A      3.849155   415A      3.857263   416A      3.877919  
     417A      3.878589   418A      3.891079   419A      3.906060  
     420A      3.913529   421A      3.933741   422A      3.942873  
     423A      3.969157   424A      3.971071   425A      3.987655  
     426A      3.998744   427A      4.003851   428A      4.018499  
     429A      4.023676   430A      4.043091   431A      4.048515  
     432A      4.055154   433A      4.093789   434A      4.127830  
     435A      4.150531   436A      4.155693   437A      4.171601  
     438A      4.182237   439A      4.197817   440A      4.207169  
     441A      4.209417   442A      4.212986   443A      4.221597  
     444A      4.226953   445A      4.242918   446A      4.279517  
     447A      4.285234   448A      4.286928   449A      4.311575  
     450A      4.332884   451A      4.346384   452A      4.384354  
     453A      4.392151   454A      4.403734   455A      4.417187  
     456A      4.435661   457A      4.448376   458A      4.468796  
     459A      4.490204   460A      4.504917   461A      4.510800  
     462A      4.532325   463A      4.537462   464A      4.573164  
     465A      4.591517   466A      4.619820   467A      4.632819  
     468A      4.648171   469A      4.688954   470A      4.690290  
     471A      4.705273   472A      4.726489   473A      4.734044  
     474A      4.784702   475A      4.822261   476A      4.833317  
     477A      4.836969   478A      4.842646   479A      4.859127  
     480A      4.867679   481A      4.883672   482A      4.892282  
     483A      4.898893   484A      4.921739   485A      4.955934  
     486A      4.978153   487A      4.990508   488A      5.003690  
     489A      5.016606   490A      5.031028   491A      5.044842  
     492A      5.067002   493A      5.079857   494A      5.106117  
     495A      5.130329   496A      5.133609   497A      5.133849  
     498A      5.163421   499A      5.168508   500A      5.170119  
     501A      5.172085   502A      5.198380   503A      5.214709  
     504A      5.251834   505A      5.290318   506A      5.315071  
     507A      5.317965   508A      5.323737   509A      5.393598  
     510A      5.398158   511A      5.406561   512A      5.419395  
     513A      5.429859   514A      5.441414   515A      5.447688  
     516A      5.477688   517A      5.512711   518A      5.527206  
     519A      5.556352   520A      5.586408   521A      5.622382  
     522A      5.643612   523A      5.678923   524A      5.741922  
     525A      5.746958   526A      5.771048   527A      5.780958  
     528A      5.795943   529A      5.797574   530A      5.823858  
     531A      5.957443   532A      6.002632   533A      6.006808  
     534A      6.013051   535A      6.013252   536A      6.056713  
     537A      6.124733   538A      6.146281   539A      6.162457  
     540A      6.190061   541A      6.215540   542A      6.223189  
     543A      6.269456   544A      6.300468   545A      6.385252  
     546A      6.429447   547A      6.570890   548A      6.620088  
     549A      6.700100   550A      6.707073   551A      6.780212  
     552A      6.782572   553A      6.792341   554A      6.828586  
     555A      6.865474   556A      6.888002   557A      6.899770  
     558A      6.905558   559A      6.952460   560A      6.965869  
     561A      7.014690   562A      7.027597   563A      7.077423  
     564A      7.117243   565A      7.203691   566A      7.237808  
     567A      7.252819   568A      7.304164   569A      7.317893  
     570A      7.356151   571A      7.389928   572A      7.425334  
     573A      7.488254   574A      7.517196   575A      7.591102  
     576A      7.611033   577A      7.628575   578A      7.677949  
     579A      7.698888   580A      7.721243   581A      7.848230  
     582A      7.926038   583A      7.929434   584A      7.975554  
     585A      8.100541   586A      8.247343   587A      8.264325  
     588A      8.480021   589A      8.589430   590A      8.625331  
     591A     14.741875   592A     15.038142   593A     16.236040  
     594A     17.733039   595A     17.909654   596A     18.366257  
     597A     18.697685   598A     19.847026  

    Final Occupation by Irrep:
              A 
    DOCC [    32 ]

  @DF-RHF Final Energy:  -419.93565546770492

   => Energetics <=

    Nuclear Repulsion Energy =            391.7960375354610960
    One-Electron Energy =               -1350.9576980994697806
    Two-Electron Energy =                 539.2260050963037656
    Total Energy =                       -419.9356554677049189

Computation Completed

*** tstop() called on node59.bme.utexas.edu at Mon Nov  9 09:40:43 2020
Module time:
	user time   =     209.69 seconds =       3.49 minutes
	system time =      26.25 seconds =       0.44 minutes
	total time  =         46 seconds =       0.77 minutes
Total time:
	user time   =     209.69 seconds =       3.49 minutes
	system time =      26.25 seconds =       0.44 minutes
	total time  =         46 seconds =       0.77 minutes
   => Loading Basis Set <=

    Name: (AUG-CC-PVTZ AUX)
    Role: RIFIT
    Keyword: DF_BASIS_MP2
    atoms 1-3  entry O          line   264 file /home/xy3866/psi4conda/share/psi4/basis/aug-cc-pvtz-ri.gbs 
    atoms 4-8  entry C          line   148 file /home/xy3866/psi4conda/share/psi4/basis/aug-cc-pvtz-ri.gbs 
    atoms 9-18 entry H          line    30 file /home/xy3866/psi4conda/share/psi4/basis/aug-cc-pvtz-ri.gbs 


*** tstart() called on node59.bme.utexas.edu
*** at Mon Nov  9 09:40:43 2020


  //>>>>>>>>>>>>>>>>>>>>>>>>>>>>>>>>>>>//
  //               DFMP2               //
  //<<<<<<<<<<<<<<<<<<<<<<<<<<<<<<<<<<<//

	 --------------------------------------------------------
	                          DF-MP2                         
	      2nd-Order Density-Fitted Moller-Plesset Theory     
	              RMP2 Wavefunction,   8 Threads             
	                                                         
	        Rob Parrish, Justin Turney, Andy Simmonett,      
	           Ed Hohenstein, and C. David Sherrill          
	 --------------------------------------------------------

   => Auxiliary Basis Set <=

  Basis Set: (AUG-CC-PVTZ AUX)
    Blend: AUG-CC-PVTZ-RI
    Number of shells: 364
    Number of basis function: 1308
    Number of Cartesian functions: 1638
    Spherical Harmonics?: true
    Max angular momentum: 4

	 --------------------------------------------------------
	                 NBF =   598, NAUX =  1308
	 --------------------------------------------------------
	   CLASS    FOCC     OCC    AOCC    AVIR     VIR    FVIR
	   PAIRS       0      32      32     566     566       0
	 --------------------------------------------------------

  DFHelper Memory: AOs need 3.199 GiB; user supplied 22.352 GiB. Using in-core AOs.


         ------------------------------------------------------------
                                     CPHF                           
                                  Rob Parrish                       
         ------------------------------------------------------------

  ==> Geometry <==

    Molecular point group: c1
    Full point group: C1

    Geometry (in Angstrom), charge = 0, multiplicity = 1:

       Center              X                  Y                   Z               Mass       
    ------------   -----------------  -----------------  -----------------  -----------------
         O            1.084811988426    -0.452437357230     0.013511735055    15.994914619570
         O           -1.084813011574    -0.452437357230     0.013513735055    15.994914619570
         O           -0.000000111574     1.561635542770    -0.086429264945    15.994914619570
         C            2.340450988426     0.270692642770     0.013549735055    12.000000000000
         C           -2.340449011574     0.270691642770     0.013553735055    12.000000000000
         C            3.433031988426    -0.773100357230     0.013581735055    12.000000000000
         C           -3.433033011574    -0.773099357230     0.013578735055    12.000000000000
         C            0.000000988426     0.343001642770     0.013515735055    12.000000000000
         H            2.379990988426     0.912236642770    -0.870809264945     1.007825032230
         H            2.379937988426     0.912237642770     0.897909735055     1.007825032230
         H           -2.379940011574     0.912232642770     0.897916735055     1.007825032230
         H           -2.379989011574     0.912241642770    -0.870801264945     1.007825032230
         H            4.411763988426    -0.285181357230     0.013606735055     1.007825032230
         H            3.358285988426    -1.405437357230     0.900493735055     1.007825032230
         H            3.358333988426    -1.405441357230    -0.873331264945     1.007825032230
         H           -4.411763011574    -0.285177357230     0.013603735055     1.007825032230
         H           -3.358334011574    -1.405438357230    -0.873336264945     1.007825032230
         H           -3.358292011574    -1.405440357230     0.900487735055     1.007825032230

  Nuclear repulsion =  391.796037535461096
  Reference energy  = -419.935655467704919

  ==> Basis Set <==

  Basis Set: AUG-CC-PVTZ
    Blend: AUG-CC-PVTZ
    Number of shells: 202
    Number of basis function: 598
    Number of Cartesian functions: 690
    Spherical Harmonics?: true
    Max angular momentum: 3

  ==> CGRSolver (by Rob Parrish) <==

   Number of roots    =         1
   Preconditioning    =    JACOBI
   Convergence cutoff =     1E-06
   Maximum iterations =       100

  ==> CPHFRHamiltonian (by Rob Parrish) <== 

  ==> MemDFJK: Density-Fitted J/K Matrices <==

    J tasked:                   Yes
    K tasked:                   Yes
    wK tasked:                   No
    OpenMP threads:               8
    Memory [MiB]:             22888
    Algorithm:                 Disk
    Schwarz Cutoff:           1E-12
    Mask sparsity (%):      10.1386
    Fitting Condition:        1E-10

   => Auxiliary Basis Set <=

  Basis Set: (AUG-CC-PVTZ AUX)
    Blend: AUG-CC-PVTZ-JKFIT
    Number of shells: 380
    Number of basis function: 1292
    Number of Cartesian functions: 1598
    Spherical Harmonics?: true
    Max angular momentum: 4

  ==> CPHF Iterations <==

  => Iterations <=

             Iter  Converged  Remaining    Residual
  CGR           1          0          1   1.006E-01
  CGR           2          0          1   2.763E-02
  CGR           3          0          1   1.038E-02
  CGR           4          0          1   3.247E-03
  CGR           5          0          1   1.074E-03
  CGR           6          0          1   2.277E-04
  CGR           7          0          1   7.229E-05
  CGR           8          0          1   2.184E-05
  CGR           9          0          1   5.765E-06
  CGR          10          0          1   2.022E-06
  CGR          11          1          0   6.323E-07

    CGRSolver converged.

	-----------------------------------------------------------
	 ==================> DF-MP2 Energies <==================== 
	-----------------------------------------------------------
	 Reference Energy          =    -419.9356554677049189 [Eh]
	 Singles Energy            =      -0.0000000000000000 [Eh]
	 Same-Spin Energy          =      -0.4058952277614875 [Eh]
	 Opposite-Spin Energy      =      -1.3129006071863274 [Eh]
	 Correlation Energy        =      -1.7187958349478150 [Eh]
	 Total Energy              =    -421.6544513026527170 [Eh]
	-----------------------------------------------------------
	 ================> DF-SCS-MP2 Energies <================== 
	-----------------------------------------------------------
	 SCS Same-Spin Scale       =       0.3333333333333333 [-]
	 SCS Opposite-Spin Scale   =       1.2000000000000000 [-]
	 SCS Same-Spin Energy      =      -0.1352984092538291 [Eh]
	 SCS Opposite-Spin Energy  =      -1.5754807286235928 [Eh]
	 SCS Correlation Energy    =      -1.7107791378774220 [Eh]
	 SCS Total Energy          =    -421.6464346055823285 [Eh]
	-----------------------------------------------------------



Properties will be evaluated at  -0.000000,  -0.000000,  -0.000000 [a0]

Properties computed using the MP2 density matrix

  Nuclear Dipole Moment: [e a0]
     X:    -0.0000      Y:    -2.3810      Z:     0.1270

  Electronic Dipole Moment: [e a0]
     X:     0.0000      Y:     2.1730      Z:    -0.0643

  Dipole Moment: [e a0]
     X:     0.0000      Y:    -0.2079      Z:     0.0627     Total:     0.2172

  Dipole Moment: [D]
     X:     0.0000      Y:    -0.5285      Z:     0.1593     Total:     0.5520


*** tstop() called on node59.bme.utexas.edu at Mon Nov  9 09:42:25 2020
Module time:
	user time   =     621.52 seconds =      10.36 minutes
	system time =      28.55 seconds =       0.48 minutes
	total time  =        102 seconds =       1.70 minutes
Total time:
	user time   =     832.49 seconds =      13.87 minutes
	system time =      54.91 seconds =       0.92 minutes
	total time  =        148 seconds =       2.47 minutes

    Psi4 stopped on: Monday, 09 November 2020 09:42AM
    Psi4 wall time for execution: 0:02:28.45

*** Psi4 exiting successfully. Buy a developer a beer!
