
    -----------------------------------------------------------------------
          Psi4: An Open-Source Ab Initio Electronic Structure Package
                               Psi4 1.4a3.dev225 

                         Git: Rev {master} 7105e37 


    D. G. A. Smith, L. A. Burns, A. C. Simmonett, R. M. Parrish,
    M. C. Schieber, R. Galvelis, P. Kraus, H. Kruse, R. Di Remigio,
    A. Alenaizan, A. M. James, S. Lehtola, J. P. Misiewicz, M. Scheurer,
    R. A. Shaw, J. B. Schriber, Y. Xie, Z. L. Glick, D. A. Sirianni,
    J. S. O'Brien, J. M. Waldrop, A. Kumar, E. G. Hohenstein,
    B. P. Pritchard, B. R. Brooks, H. F. Schaefer III, A. Yu. Sokolov,
    K. Patkowski, A. E. DePrince III, U. Bozkaya, R. A. King,
    F. A. Evangelista, J. M. Turney, T. D. Crawford, C. D. Sherrill,
    J. Chem. Phys. 152(18) 184108 (2020). https://doi.org/10.1063/5.0006002

                            Additional Code Authors
    E. T. Seidl, C. L. Janssen, E. F. Valeev, M. L. Leininger,
    J. F. Gonthier, R. M. Richard, H. R. McAlexander, M. Saitow, X. Wang,
    P. Verma, and M. H. Lechner

             Previous Authors, Complete List of Code Contributors,
                       and Citations for Specific Modules
    https://github.com/psi4/psi4/blob/master/codemeta.json
    https://github.com/psi4/psi4/graphs/contributors
    http://psicode.org/psi4manual/master/introduction.html#citing-psifour

    -----------------------------------------------------------------------


    Psi4 started on: Saturday, 20 March 2021 11:30AM

    Process ID: 158572
    Host:       c446-101.stampede2.tacc.utexas.edu
    PSIDATADIR: /home1/07844/xy3866/miniconda3/envs/p4env/share/psi4
    Memory:     500.0 MiB
    Threads:    32
    
  ==> Input File <==

--------------------------------------------------------------------------
#psi4
#
memory 32 gb

molecule  {
0 1
  O        0.6058420     1.9734460    -0.2200840
  N       -1.4635990     1.0552220     0.1204360
  C        0.3766720    -0.4191730    -0.2885420
  C        1.8447340    -0.6003330    -0.5373460
  C       -0.0912220     0.9510960    -0.1351610
  C       -0.5056070    -1.4668030    -0.1721790
  C        2.6774180    -0.3153160     0.7169370
  C       -1.8875120    -1.2656950     0.0948440
  C       -2.3418770     0.0139190     0.2382100
  H        2.0261970    -1.6222750    -0.8897120
  H        2.1501830     0.0866220    -1.3340180
  H       -0.1325060    -2.4831380    -0.2931490
  H        3.7430730    -0.4588370     0.5145620
  H        2.3896250    -0.9874320     1.5306780
  H        2.5223080     0.7158110     1.0392930
  H       -1.7708273     1.9668984     0.2180982
  H       -2.5740470    -2.0997260     0.1840740
  H       -3.3752970     0.2746480     0.4421650
units angstrom
no_reorient  #important for SAPT in psi4, default
symmetry c1  #important for SAPT in psi4, default
}

set PROPERTIES_ORIGIN ["COM"]
properties('MP2/aug-cc-pvtz', properties = ['dipole'])
--------------------------------------------------------------------------

  Memory set to  29.802 GiB by Python driver.
    SCF Algorithm Type (re)set to DF.

*** tstart() called on c446-101.stampede2.tacc.utexas.edu
*** at Sat Mar 20 11:30:37 2021

   => Loading Basis Set <=

    Name: AUG-CC-PVTZ
    Role: ORBITAL
    Keyword: BASIS
    atoms 1     entry O          line   331 file /home1/07844/xy3866/miniconda3/envs/p4env/share/psi4/basis/aug-cc-pvtz.gbs 
    atoms 2     entry N          line   285 file /home1/07844/xy3866/miniconda3/envs/p4env/share/psi4/basis/aug-cc-pvtz.gbs 
    atoms 3-9   entry C          line   239 file /home1/07844/xy3866/miniconda3/envs/p4env/share/psi4/basis/aug-cc-pvtz.gbs 
    atoms 10-18 entry H          line    40 file /home1/07844/xy3866/miniconda3/envs/p4env/share/psi4/basis/aug-cc-pvtz.gbs 


         ---------------------------------------------------------
                                   SCF
               by Justin Turney, Rob Parrish, Andy Simmonett
                          and Daniel G. A. Smith
                              RHF Reference
                       32 Threads,  30517 MiB Core
         ---------------------------------------------------------

  ==> Geometry <==

    Molecular point group: c1
    Full point group: C1

    Geometry (in Angstrom), charge = 0, multiplicity = 1:

       Center              X                  Y                   Z               Mass       
    ------------   -----------------  -----------------  -----------------  -----------------
         O            0.645783644119     1.937122218666    -0.208630577900    15.994914619570
         N           -1.423657355881     1.018898218666     0.131889422100    14.003074004430
         C            0.416613644119    -0.455496781334    -0.277088577900    12.000000000000
         C            1.884675644119    -0.636656781334    -0.525892577900    12.000000000000
         C           -0.051280355881     0.914772218666    -0.123707577900    12.000000000000
         C           -0.465665355881    -1.503126781334    -0.160725577900    12.000000000000
         C            2.717359644119    -0.351639781334     0.728390422100    12.000000000000
         C           -1.847570355881    -1.302018781334     0.106297422100    12.000000000000
         C           -2.301935355881    -0.022404781334     0.249663422100    12.000000000000
         H            2.066138644119    -1.658598781334    -0.878258577900     1.007825032230
         H            2.190124644119     0.050298218666    -1.322564577900     1.007825032230
         H           -0.092564355881    -2.519461781334    -0.281695577900     1.007825032230
         H            3.783014644119    -0.495160781334     0.526015422100     1.007825032230
         H            2.429566644119    -1.023755781334     1.542131422100     1.007825032230
         H            2.562249644119     0.679487218666     1.050746422100     1.007825032230
         H           -1.730885655881     1.930574618666     0.229551622100     1.007825032230
         H           -2.534105355881    -2.136049781334     0.195527422100     1.007825032230
         H           -3.335355355881     0.238324218666     0.453618422100     1.007825032230

  Running in c1 symmetry.

  Rotational constants: A =      0.09378  B =      0.04787  C =      0.03422 [cm^-1]
  Rotational constants: A =   2811.34346  B =   1435.23962  C =   1025.83180 [MHz]
  Nuclear repulsion =  432.933217045565868

  Charge       = 0
  Multiplicity = 1
  Electrons    = 66
  Nalpha       = 33
  Nbeta        = 33

  ==> Algorithm <==

  SCF Algorithm Type is DF.
  DIIS enabled.
  MOM disabled.
  Fractional occupation disabled.
  Guess Type is SAD.
  Energy threshold   = 1.00e-10
  Density threshold  = 1.00e-10
  Integral threshold = 1.00e-12

  ==> Primary Basis <==

  Basis Set: AUG-CC-PVTZ
    Blend: AUG-CC-PVTZ
    Number of shells: 207
    Number of basis functions: 621
    Number of Cartesian functions: 720
    Spherical Harmonics?: true
    Max angular momentum: 3

   => Loading Basis Set <=

    Name: (AUG-CC-PVTZ AUX)
    Role: JKFIT
    Keyword: DF_BASIS_SCF
    atoms 1     entry O          line   286 file /home1/07844/xy3866/miniconda3/envs/p4env/share/psi4/basis/aug-cc-pvtz-jkfit.gbs 
    atoms 2     entry N          line   224 file /home1/07844/xy3866/miniconda3/envs/p4env/share/psi4/basis/aug-cc-pvtz-jkfit.gbs 
    atoms 3-9   entry C          line   162 file /home1/07844/xy3866/miniconda3/envs/p4env/share/psi4/basis/aug-cc-pvtz-jkfit.gbs 
    atoms 10-18 entry H          line    70 file /home1/07844/xy3866/miniconda3/envs/p4env/share/psi4/basis/aug-cc-pvtz-jkfit.gbs 

  ==> Integral Setup <==

  DFHelper Memory: AOs need 3.789 GiB; user supplied 22.352 GiB. Using in-core AOs.

  ==> MemDFJK: Density-Fitted J/K Matrices <==

    J tasked:                   Yes
    K tasked:                   Yes
    wK tasked:                   No
    OpenMP threads:              32
    Memory [MiB]:             22888
    Algorithm:                 Core
    Schwarz Cutoff:           1E-12
    Mask sparsity (%):       7.0356
    Fitting Condition:        1E-10

   => Auxiliary Basis Set <=

  Basis Set: (AUG-CC-PVTZ AUX)
    Blend: AUG-CC-PVTZ-JKFIT
    Number of shells: 396
    Number of basis functions: 1350
    Number of Cartesian functions: 1674
    Spherical Harmonics?: true
    Max angular momentum: 4

  Minimum eigenvalue in the overlap matrix is 1.7915553760E-06.
  Reciprocal condition number of the overlap matrix is 9.2455547293E-08.
    Using symmetric orthogonalization.

  ==> Pre-Iterations <==

  SCF Guess: Superposition of Atomic Densities via on-the-fly atomic UHF (no occupation information).

   -------------------------
    Irrep   Nso     Nmo    
   -------------------------
     A        621     621 
   -------------------------
    Total     621     621
   -------------------------

  ==> Iterations <==

                           Total Energy        Delta E     RMS |[F,P]|

   @DF-RHF iter SAD:  -399.17020868552817   -3.99170e+02   0.00000e+00 
   @DF-RHF iter   1:  -399.48221023076690   -3.12002e-01   1.18300e-03 DIIS
   @DF-RHF iter   2:  -399.70944849698014   -2.27238e-01   6.46890e-04 DIIS
   @DF-RHF iter   3:  -399.77393553694259   -6.44870e-02   1.36565e-04 DIIS
   @DF-RHF iter   4:  -399.77816102467875   -4.22549e-03   6.33780e-05 DIIS
   @DF-RHF iter   5:  -399.77907513089758   -9.14106e-04   1.21091e-05 DIIS
   @DF-RHF iter   6:  -399.77918835129498   -1.13220e-04   6.48063e-06 DIIS
   @DF-RHF iter   7:  -399.77921980035626   -3.14491e-05   3.28827e-06 DIIS
   @DF-RHF iter   8:  -399.77922882737630   -9.02702e-06   1.08808e-06 DIIS
   @DF-RHF iter   9:  -399.77922975139796   -9.24022e-07   4.05967e-07 DIIS
   @DF-RHF iter  10:  -399.77922984671079   -9.53128e-08   1.34441e-07 DIIS
   @DF-RHF iter  11:  -399.77922985818185   -1.14711e-08   6.30701e-08 DIIS
   @DF-RHF iter  12:  -399.77922986072986   -2.54801e-09   2.51683e-08 DIIS
   @DF-RHF iter  13:  -399.77922986120802   -4.78167e-10   1.08450e-08 DIIS
   @DF-RHF iter  14:  -399.77922986129118   -8.31619e-11   4.94821e-09 DIIS
   @DF-RHF iter  15:  -399.77922986130636   -1.51772e-11   1.75319e-09 DIIS
   @DF-RHF iter  16:  -399.77922986130949   -3.12639e-12   6.71241e-10 DIIS
   @DF-RHF iter  17:  -399.77922986130869    7.95808e-13   2.69577e-10 DIIS
   @DF-RHF iter  18:  -399.77922986130977   -1.08002e-12   7.46393e-11 DIIS
  Energy and wave function converged.


  ==> Post-Iterations <==

    Orbital Energies [Eh]
    ---------------------

    Doubly Occupied:                                                      

       1A    -20.510472     2A    -15.621569     3A    -11.353281  
       4A    -11.309625     5A    -11.266242     6A    -11.245182  
       7A    -11.242965     8A    -11.224273     9A    -11.205768  
      10A     -1.371925    11A     -1.275473    12A     -1.119675  
      13A     -1.056193    14A     -0.993849    15A     -0.891663  
      16A     -0.871223    17A     -0.819052    18A     -0.743424  
      19A     -0.704139    20A     -0.675003    21A     -0.626592  
      22A     -0.612737    23A     -0.603598    24A     -0.590898  
      25A     -0.565282    26A     -0.547641    27A     -0.514763  
      28A     -0.495996    29A     -0.486505    30A     -0.474438  
      31A     -0.422761    32A     -0.411982    33A     -0.306858  

    Virtual:                                                              

      34A      0.021151    35A      0.028598    36A      0.036419  
      37A      0.044647    38A      0.046848    39A      0.052295  
      40A      0.061885    41A      0.068332    42A      0.069595  
      43A      0.074698    44A      0.079879    45A      0.094152  
      46A      0.102586    47A      0.104542    48A      0.107226  
      49A      0.111874    50A      0.115292    51A      0.120902  
      52A      0.125883    53A      0.127683    54A      0.129952  
      55A      0.136786    56A      0.141658    57A      0.143595  
      58A      0.145201    59A      0.152628    60A      0.157486  
      61A      0.161687    62A      0.168089    63A      0.174307  
      64A      0.178714    65A      0.181534    66A      0.187743  
      67A      0.196888    68A      0.209258    69A      0.219866  
      70A      0.234088    71A      0.234647    72A      0.240848  
      73A      0.246706    74A      0.250932    75A      0.261945  
      76A      0.268745    77A      0.272835    78A      0.276436  
      79A      0.279375    80A      0.284348    81A      0.288641  
      82A      0.293447    83A      0.298254    84A      0.303136  
      85A      0.309722    86A      0.313123    87A      0.317960  
      88A      0.321521    89A      0.332129    90A      0.335318  
      91A      0.343504    92A      0.344596    93A      0.348261  
      94A      0.360723    95A      0.366199    96A      0.371254  
      97A      0.377499    98A      0.379572    99A      0.384946  
     100A      0.387576   101A      0.395198   102A      0.407510  
     103A      0.409710   104A      0.414774   105A      0.422869  
     106A      0.426612   107A      0.428644   108A      0.433963  
     109A      0.437299   110A      0.442632   111A      0.447706  
     112A      0.454494   113A      0.458386   114A      0.461769  
     115A      0.467501   116A      0.470455   117A      0.475192  
     118A      0.477974   119A      0.481491   120A      0.482344  
     121A      0.491030   122A      0.498474   123A      0.504229  
     124A      0.508838   125A      0.510134   126A      0.512895  
     127A      0.518594   128A      0.520997   129A      0.526644  
     130A      0.528397   131A      0.537098   132A      0.538336  
     133A      0.544691   134A      0.547572   135A      0.558874  
     136A      0.571826   137A      0.580134   138A      0.585549  
     139A      0.594168   140A      0.599051   141A      0.600962  
     142A      0.605894   143A      0.609102   144A      0.626602  
     145A      0.638261   146A      0.642741   147A      0.645796  
     148A      0.648731   149A      0.664429   150A      0.667293  
     151A      0.674674   152A      0.680454   153A      0.687323  
     154A      0.702896   155A      0.704698   156A      0.719827  
     157A      0.726142   158A      0.736044   159A      0.750840  
     160A      0.751125   161A      0.757182   162A      0.762932  
     163A      0.772838   164A      0.780682   165A      0.798671  
     166A      0.803473   167A      0.809902   168A      0.819920  
     169A      0.828423   170A      0.829833   171A      0.841092  
     172A      0.848595   173A      0.854886   174A      0.858431  
     175A      0.865118   176A      0.867594   177A      0.875304  
     178A      0.878509   179A      0.881507   180A      0.893444  
     181A      0.896168   182A      0.910722   183A      0.914650  
     184A      0.928115   185A      0.935506   186A      0.939085  
     187A      0.941645   188A      0.949608   189A      0.950914  
     190A      0.960182   191A      0.963408   192A      0.971698  
     193A      0.975459   194A      0.980890   195A      0.989780  
     196A      0.995677   197A      0.998498   198A      1.003526  
     199A      1.008948   200A      1.019587   201A      1.028565  
     202A      1.033098   203A      1.038683   204A      1.041055  
     205A      1.043017   206A      1.056426   207A      1.066366  
     208A      1.073619   209A      1.075026   210A      1.083696  
     211A      1.089302   212A      1.092242   213A      1.097396  
     214A      1.101269   215A      1.111191   216A      1.122558  
     217A      1.127372   218A      1.133863   219A      1.144252  
     220A      1.151086   221A      1.156884   222A      1.159708  
     223A      1.171892   224A      1.175618   225A      1.176514  
     226A      1.185981   227A      1.195715   228A      1.197209  
     229A      1.201421   230A      1.206028   231A      1.210170  
     232A      1.224372   233A      1.234114   234A      1.236914  
     235A      1.242857   236A      1.246687   237A      1.255796  
     238A      1.262129   239A      1.272099   240A      1.280765  
     241A      1.294984   242A      1.297424   243A      1.310132  
     244A      1.317520   245A      1.324912   246A      1.339676  
     247A      1.347182   248A      1.361136   249A      1.368802  
     250A      1.378525   251A      1.382920   252A      1.388253  
     253A      1.402366   254A      1.416590   255A      1.422149  
     256A      1.435478   257A      1.439211   258A      1.444921  
     259A      1.452275   260A      1.458717   261A      1.472255  
     262A      1.482160   263A      1.488110   264A      1.493463  
     265A      1.499807   266A      1.510269   267A      1.518784  
     268A      1.522578   269A      1.541309   270A      1.550164  
     271A      1.566226   272A      1.570564   273A      1.574866  
     274A      1.592223   275A      1.599424   276A      1.612178  
     277A      1.618922   278A      1.626208   279A      1.633503  
     280A      1.648642   281A      1.654187   282A      1.667362  
     283A      1.681379   284A      1.685042   285A      1.691562  
     286A      1.698075   287A      1.706009   288A      1.711958  
     289A      1.722310   290A      1.742979   291A      1.745237  
     292A      1.749892   293A      1.761945   294A      1.769567  
     295A      1.779039   296A      1.782227   297A      1.789437  
     298A      1.800977   299A      1.820009   300A      1.824846  
     301A      1.835644   302A      1.846389   303A      1.849528  
     304A      1.852246   305A      1.876742   306A      1.878879  
     307A      1.886234   308A      1.889636   309A      1.906981  
     310A      1.921256   311A      1.931161   312A      1.937706  
     313A      1.948187   314A      1.955957   315A      1.981103  
     316A      1.995780   317A      2.002603   318A      2.005631  
     319A      2.021816   320A      2.029140   321A      2.042728  
     322A      2.051244   323A      2.065250   324A      2.074607  
     325A      2.082869   326A      2.085580   327A      2.100753  
     328A      2.105041   329A      2.115932   330A      2.141071  
     331A      2.157525   332A      2.159586   333A      2.172141  
     334A      2.178482   335A      2.182294   336A      2.195535  
     337A      2.204981   338A      2.225463   339A      2.240375  
     340A      2.250722   341A      2.253360   342A      2.272003  
     343A      2.282884   344A      2.283862   345A      2.293782  
     346A      2.304998   347A      2.309828   348A      2.327413  
     349A      2.352817   350A      2.365528   351A      2.382316  
     352A      2.396738   353A      2.405838   354A      2.423215  
     355A      2.444321   356A      2.448236   357A      2.460771  
     358A      2.477045   359A      2.504276   360A      2.514899  
     361A      2.526642   362A      2.541988   363A      2.545985  
     364A      2.553075   365A      2.566421   366A      2.590969  
     367A      2.617971   368A      2.630988   369A      2.645452  
     370A      2.670931   371A      2.706678   372A      2.712274  
     373A      2.738368   374A      2.749086   375A      2.751694  
     376A      2.766402   377A      2.769994   378A      2.795849  
     379A      2.819444   380A      2.832007   381A      2.858663  
     382A      2.883739   383A      2.912055   384A      2.964595  
     385A      2.993668   386A      3.035771   387A      3.044379  
     388A      3.066185   389A      3.076058   390A      3.109552  
     391A      3.154611   392A      3.162605   393A      3.224042  
     394A      3.241137   395A      3.253029   396A      3.268138  
     397A      3.289136   398A      3.299364   399A      3.319163  
     400A      3.336923   401A      3.353759   402A      3.384733  
     403A      3.392319   404A      3.412229   405A      3.438779  
     406A      3.450906   407A      3.456668   408A      3.483447  
     409A      3.494462   410A      3.510051   411A      3.517894  
     412A      3.522628   413A      3.534872   414A      3.552301  
     415A      3.564739   416A      3.575099   417A      3.588024  
     418A      3.592407   419A      3.607835   420A      3.626629  
     421A      3.640328   422A      3.652805   423A      3.655201  
     424A      3.666872   425A      3.692536   426A      3.711033  
     427A      3.718491   428A      3.726708   429A      3.740992  
     430A      3.747186   431A      3.766327   432A      3.773542  
     433A      3.796284   434A      3.798945   435A      3.806152  
     436A      3.829060   437A      3.835042   438A      3.845516  
     439A      3.866489   440A      3.869107   441A      3.877410  
     442A      3.886724   443A      3.897640   444A      3.906465  
     445A      3.925447   446A      3.932281   447A      3.945546  
     448A      3.956259   449A      3.974228   450A      3.978905  
     451A      3.999832   452A      4.010846   453A      4.016307  
     454A      4.031814   455A      4.034607   456A      4.050466  
     457A      4.064849   458A      4.076414   459A      4.089340  
     460A      4.099275   461A      4.107725   462A      4.115596  
     463A      4.135449   464A      4.146049   465A      4.161555  
     466A      4.172617   467A      4.178793   468A      4.188765  
     469A      4.202964   470A      4.214053   471A      4.234434  
     472A      4.255763   473A      4.271519   474A      4.275775  
     475A      4.286424   476A      4.290445   477A      4.318133  
     478A      4.319674   479A      4.331056   480A      4.332194  
     481A      4.353069   482A      4.361016   483A      4.375448  
     484A      4.386623   485A      4.404890   486A      4.409356  
     487A      4.426902   488A      4.434434   489A      4.460390  
     490A      4.487363   491A      4.497872   492A      4.520037  
     493A      4.530720   494A      4.548267   495A      4.556287  
     496A      4.571724   497A      4.596371   498A      4.605923  
     499A      4.609364   500A      4.642673   501A      4.677207  
     502A      4.694705   503A      4.704625   504A      4.724743  
     505A      4.736908   506A      4.737585   507A      4.753560  
     508A      4.773643   509A      4.792240   510A      4.812483  
     511A      4.815478   512A      4.849013   513A      4.857295  
     514A      4.874326   515A      4.886357   516A      4.895332  
     517A      4.908485   518A      4.919808   519A      4.934118  
     520A      4.975018   521A      4.992360   522A      5.006543  
     523A      5.014238   524A      5.025928   525A      5.043054  
     526A      5.050696   527A      5.053653   528A      5.087951  
     529A      5.097251   530A      5.119637   531A      5.131449  
     532A      5.144076   533A      5.158864   534A      5.181270  
     535A      5.204545   536A      5.217334   537A      5.233492  
     538A      5.248710   539A      5.269404   540A      5.275065  
     541A      5.283000   542A      5.315110   543A      5.327197  
     544A      5.336940   545A      5.358910   546A      5.400755  
     547A      5.416372   548A      5.446477   549A      5.458770  
     550A      5.506453   551A      5.531143   552A      5.549247  
     553A      5.551174   554A      5.557748   555A      5.574871  
     556A      5.603232   557A      5.617196   558A      5.652927  
     559A      5.657114   560A      5.681726   561A      5.688526  
     562A      5.714373   563A      5.717414   564A      5.738589  
     565A      5.800160   566A      5.829355   567A      5.846597  
     568A      5.856736   569A      5.892489   570A      5.918338  
     571A      5.964049   572A      6.014569   573A      6.034317  
     574A      6.075954   575A      6.090432   576A      6.104058  
     577A      6.143485   578A      6.215019   579A      6.235891  
     580A      6.243161   581A      6.268440   582A      6.274265  
     583A      6.292454   584A      6.306456   585A      6.343567  
     586A      6.506376   587A      6.559960   588A      6.591315  
     589A      6.636463   590A      6.709618   591A      6.774530  
     592A      6.792983   593A      6.814765   594A      6.826388  
     595A      6.870543   596A      6.882186   597A      6.934839  
     598A      6.970747   599A      7.024772   600A      7.075272  
     601A      7.119826   602A      7.203602   603A      7.232143  
     604A      7.315545   605A      7.461247   606A      7.484604  
     607A      7.669947   608A      7.791160   609A      7.842172  
     610A      7.895972   611A      8.002414   612A      8.084052  
     613A     15.940001   614A     16.364768   615A     16.776111  
     616A     18.011151   617A     18.499534   618A     19.148286  
     619A     19.623664   620A     20.255526   621A     20.885312  

    Final Occupation by Irrep:
              A 
    DOCC [    33 ]

  @DF-RHF Final Energy:  -399.77922986130977

   => Energetics <=

    Nuclear Repulsion Energy =            432.9332170455658684
    One-Electron Energy =               -1401.1027953120083112
    Two-Electron Energy =                 568.3903484051326132
    Total Energy =                       -399.7792298613097728

Computation Completed

*** tstop() called on c446-101.stampede2.tacc.utexas.edu at Sat Mar 20 11:31:10 2021
Module time:
	user time   =     570.72 seconds =       9.51 minutes
	system time =      44.71 seconds =       0.75 minutes
	total time  =         33 seconds =       0.55 minutes
Total time:
	user time   =     570.72 seconds =       9.51 minutes
	system time =      44.71 seconds =       0.75 minutes
	total time  =         33 seconds =       0.55 minutes
   => Loading Basis Set <=

    Name: (AUG-CC-PVTZ AUX)
    Role: RIFIT
    Keyword: DF_BASIS_MP2
    atoms 1     entry O          line   264 file /home1/07844/xy3866/miniconda3/envs/p4env/share/psi4/basis/aug-cc-pvtz-ri.gbs 
    atoms 2     entry N          line   206 file /home1/07844/xy3866/miniconda3/envs/p4env/share/psi4/basis/aug-cc-pvtz-ri.gbs 
    atoms 3-9   entry C          line   148 file /home1/07844/xy3866/miniconda3/envs/p4env/share/psi4/basis/aug-cc-pvtz-ri.gbs 
    atoms 10-18 entry H          line    30 file /home1/07844/xy3866/miniconda3/envs/p4env/share/psi4/basis/aug-cc-pvtz-ri.gbs 


*** tstart() called on c446-101.stampede2.tacc.utexas.edu
*** at Sat Mar 20 11:31:11 2021


  //>>>>>>>>>>>>>>>>>>>>>>>>>>>>>>>>>>>//
  //               DFMP2               //
  //<<<<<<<<<<<<<<<<<<<<<<<<<<<<<<<<<<<//

	 --------------------------------------------------------
	                          DF-MP2                         
	      2nd-Order Density-Fitted Moller-Plesset Theory     
	              RMP2 Wavefunction,  32 Threads             
	                                                         
	        Rob Parrish, Justin Turney, Andy Simmonett,      
	           Ed Hohenstein, and C. David Sherrill          
	 --------------------------------------------------------

   => Auxiliary Basis Set <=

  Basis Set: (AUG-CC-PVTZ AUX)
    Blend: AUG-CC-PVTZ-RI
    Number of shells: 378
    Number of basis functions: 1368
    Number of Cartesian functions: 1719
    Spherical Harmonics?: true
    Max angular momentum: 4

	 --------------------------------------------------------
	                 NBF =   621, NAUX =  1368
	 --------------------------------------------------------
	   CLASS    FOCC     OCC    AOCC    AVIR     VIR    FVIR
	   PAIRS       0      33      33     588     588       0
	 --------------------------------------------------------

  DFHelper Memory: AOs need 3.896 GiB; user supplied 22.352 GiB. Using in-core AOs.


         ------------------------------------------------------------
                                     CPHF                           
                                  Rob Parrish                       
         ------------------------------------------------------------

  ==> Geometry <==

    Molecular point group: c1
    Full point group: C1

    Geometry (in Angstrom), charge = 0, multiplicity = 1:

       Center              X                  Y                   Z               Mass       
    ------------   -----------------  -----------------  -----------------  -----------------
         O            0.645783644119     1.937122218666    -0.208630577900    15.994914619570
         N           -1.423657355881     1.018898218666     0.131889422100    14.003074004430
         C            0.416613644119    -0.455496781334    -0.277088577900    12.000000000000
         C            1.884675644119    -0.636656781334    -0.525892577900    12.000000000000
         C           -0.051280355881     0.914772218666    -0.123707577900    12.000000000000
         C           -0.465665355881    -1.503126781334    -0.160725577900    12.000000000000
         C            2.717359644119    -0.351639781334     0.728390422100    12.000000000000
         C           -1.847570355881    -1.302018781334     0.106297422100    12.000000000000
         C           -2.301935355881    -0.022404781334     0.249663422100    12.000000000000
         H            2.066138644119    -1.658598781334    -0.878258577900     1.007825032230
         H            2.190124644119     0.050298218666    -1.322564577900     1.007825032230
         H           -0.092564355881    -2.519461781334    -0.281695577900     1.007825032230
         H            3.783014644119    -0.495160781334     0.526015422100     1.007825032230
         H            2.429566644119    -1.023755781334     1.542131422100     1.007825032230
         H            2.562249644119     0.679487218666     1.050746422100     1.007825032230
         H           -1.730885655881     1.930574618666     0.229551622100     1.007825032230
         H           -2.534105355881    -2.136049781334     0.195527422100     1.007825032230
         H           -3.335355355881     0.238324218666     0.453618422100     1.007825032230

  Nuclear repulsion =  432.933217045565868
  Reference energy  = -399.779229861309773

  ==> Basis Set <==

  Basis Set: AUG-CC-PVTZ
    Blend: AUG-CC-PVTZ
    Number of shells: 207
    Number of basis functions: 621
    Number of Cartesian functions: 720
    Spherical Harmonics?: true
    Max angular momentum: 3

  ==> CGRSolver (by Rob Parrish) <==

   Number of roots    =         1
   Preconditioning    =    JACOBI
   Convergence cutoff =     1E-06
   Maximum iterations =       100

  ==> CPHFRHamiltonian (by Rob Parrish) <== 

  ==> MemDFJK: Density-Fitted J/K Matrices <==

    J tasked:                   Yes
    K tasked:                   Yes
    wK tasked:                   No
    OpenMP threads:              32
    Memory [MiB]:             22888
    Algorithm:                 Core
    Schwarz Cutoff:           1E-12
    Mask sparsity (%):       4.2760
    Fitting Condition:        1E-10

   => Auxiliary Basis Set <=

  Basis Set: (AUG-CC-PVTZ AUX)
    Blend: AUG-CC-PVTZ-JKFIT
    Number of shells: 396
    Number of basis functions: 1350
    Number of Cartesian functions: 1674
    Spherical Harmonics?: true
    Max angular momentum: 4

  ==> CPHF Iterations <==

  => Iterations <=

             Iter  Converged  Remaining    Residual
  CGR           1          0          1   1.407E-01
  CGR           2          0          1   4.912E-02
  CGR           3          0          1   2.501E-02
  CGR           4          0          1   7.030E-03
  CGR           5          0          1   2.689E-03
  CGR           6          0          1   1.303E-03
  CGR           7          0          1   4.262E-04
  CGR           8          0          1   1.557E-04
  CGR           9          0          1   5.573E-05
  CGR          10          0          1   2.162E-05
  CGR          11          0          1   9.529E-06
  CGR          12          0          1   4.166E-06
  CGR          13          0          1   1.663E-06
  CGR          14          1          0   5.472E-07

    CGRSolver converged.

	-----------------------------------------------------------
	 ==================> DF-MP2 Energies <==================== 
	-----------------------------------------------------------
	 Reference Energy          =    -399.7792298613097728 [Eh]
	 Singles Energy            =      -0.0000000000000000 [Eh]
	 Same-Spin Energy          =      -0.4236068260775516 [Eh]
	 Opposite-Spin Energy      =      -1.3390324427565647 [Eh]
	 Correlation Energy        =      -1.7626392688341164 [Eh]
	 Total Energy              =    -401.5418691301438798 [Eh]
	-----------------------------------------------------------
	 ================> DF-SCS-MP2 Energies <================== 
	-----------------------------------------------------------
	 SCS Same-Spin Scale       =       0.3333333333333333 [-]
	 SCS Opposite-Spin Scale   =       1.2000000000000000 [-]
	 SCS Same-Spin Energy      =      -0.1412022753591838 [Eh]
	 SCS Opposite-Spin Energy  =      -1.6068389313078777 [Eh]
	 SCS Correlation Energy    =      -1.7480412066670616 [Eh]
	 SCS Total Energy          =    -401.5272710679768124 [Eh]
	-----------------------------------------------------------



Properties will be evaluated at  -0.000000,   0.000000,  -0.000000 [a0]

Properties computed using the MP2 density matrix

  Nuclear Dipole Moment: [e a0]
     X:     5.0116      Y:    -4.6194      Z:     1.4189

  Electronic Dipole Moment: [e a0]
     X:    -6.1554      Y:     3.7154      Z:    -1.2337

  Dipole Moment: [e a0]
     X:    -1.1438      Y:    -0.9040      Z:     0.1852     Total:     1.4697

  Dipole Moment: [D]
     X:    -2.9073      Y:    -2.2979      Z:     0.4708     Total:     3.7355


*** tstop() called on c446-101.stampede2.tacc.utexas.edu at Sat Mar 20 11:34:09 2021
Module time:
	user time   =    1543.89 seconds =      25.73 minutes
	system time =      57.27 seconds =       0.95 minutes
	total time  =        178 seconds =       2.97 minutes
Total time:
	user time   =    2115.51 seconds =      35.26 minutes
	system time =     102.00 seconds =       1.70 minutes
	total time  =        212 seconds =       3.53 minutes

    Psi4 stopped on: Saturday, 20 March 2021 11:34AM
    Psi4 wall time for execution: 0:03:32.38

*** Psi4 exiting successfully. Buy a developer a beer!
