
    -----------------------------------------------------------------------
          Psi4: An Open-Source Ab Initio Electronic Structure Package
                               Psi4 1.4a3.dev225 

                         Git: Rev {master} 7105e37 


    D. G. A. Smith, L. A. Burns, A. C. Simmonett, R. M. Parrish,
    M. C. Schieber, R. Galvelis, P. Kraus, H. Kruse, R. Di Remigio,
    A. Alenaizan, A. M. James, S. Lehtola, J. P. Misiewicz, M. Scheurer,
    R. A. Shaw, J. B. Schriber, Y. Xie, Z. L. Glick, D. A. Sirianni,
    J. S. O'Brien, J. M. Waldrop, A. Kumar, E. G. Hohenstein,
    B. P. Pritchard, B. R. Brooks, H. F. Schaefer III, A. Yu. Sokolov,
    K. Patkowski, A. E. DePrince III, U. Bozkaya, R. A. King,
    F. A. Evangelista, J. M. Turney, T. D. Crawford, C. D. Sherrill,
    J. Chem. Phys. 152(18) 184108 (2020). https://doi.org/10.1063/5.0006002

                            Additional Code Authors
    E. T. Seidl, C. L. Janssen, E. F. Valeev, M. L. Leininger,
    J. F. Gonthier, R. M. Richard, H. R. McAlexander, M. Saitow, X. Wang,
    P. Verma, and M. H. Lechner

             Previous Authors, Complete List of Code Contributors,
                       and Citations for Specific Modules
    https://github.com/psi4/psi4/blob/master/codemeta.json
    https://github.com/psi4/psi4/graphs/contributors
    http://psicode.org/psi4manual/master/introduction.html#citing-psifour

    -----------------------------------------------------------------------


    Psi4 started on: Saturday, 20 March 2021 12:04PM

    Process ID: 165471
    Host:       c446-101.stampede2.tacc.utexas.edu
    PSIDATADIR: /home1/07844/xy3866/miniconda3/envs/p4env/share/psi4
    Memory:     500.0 MiB
    Threads:    32
    
  ==> Input File <==

--------------------------------------------------------------------------
#psi4
#
memory 32 gb

molecule  {
0 1
  O        0.6058420     1.9734460    -0.2200840
  N       -1.4635990     1.0552220     0.1204360
  C        0.3766720    -0.4191730    -0.2885420
  C        1.8447340    -0.6003330    -0.5373460
  C       -0.0912220     0.9510960    -0.1351610
  C       -0.5056070    -1.4668030    -0.1721790
  C        2.6774180    -0.3153160     0.7169370
  C       -1.8875120    -1.2656950     0.0948440
  C       -2.3547237    -0.0013123     0.2399327
  H        2.0261970    -1.6222750    -0.8897120
  H        2.1501830     0.0866220    -1.3340180
  H       -0.1325060    -2.4831380    -0.2931490
  H        3.7430730    -0.4588370     0.5145620
  H        2.3896250    -0.9874320     1.5306780
  H        2.5223080     0.7158110     1.0392930
  H       -1.7867130     2.0140380     0.2231480
  H       -2.5740470    -2.0997260     0.1840740
  H       -3.3752970     0.2746480     0.4421650
units angstrom
no_reorient  #important for SAPT in psi4, default
symmetry c1  #important for SAPT in psi4, default
}

set PROPERTIES_ORIGIN ["COM"]
properties('MP2/aug-cc-pvtz', properties = ['dipole'])
--------------------------------------------------------------------------

  Memory set to  29.802 GiB by Python driver.
    SCF Algorithm Type (re)set to DF.

*** tstart() called on c446-101.stampede2.tacc.utexas.edu
*** at Sat Mar 20 12:04:17 2021

   => Loading Basis Set <=

    Name: AUG-CC-PVTZ
    Role: ORBITAL
    Keyword: BASIS
    atoms 1     entry O          line   331 file /home1/07844/xy3866/miniconda3/envs/p4env/share/psi4/basis/aug-cc-pvtz.gbs 
    atoms 2     entry N          line   285 file /home1/07844/xy3866/miniconda3/envs/p4env/share/psi4/basis/aug-cc-pvtz.gbs 
    atoms 3-9   entry C          line   239 file /home1/07844/xy3866/miniconda3/envs/p4env/share/psi4/basis/aug-cc-pvtz.gbs 
    atoms 10-18 entry H          line    40 file /home1/07844/xy3866/miniconda3/envs/p4env/share/psi4/basis/aug-cc-pvtz.gbs 


         ---------------------------------------------------------
                                   SCF
               by Justin Turney, Rob Parrish, Andy Simmonett
                          and Daniel G. A. Smith
                              RHF Reference
                       32 Threads,  30517 MiB Core
         ---------------------------------------------------------

  ==> Geometry <==

    Molecular point group: c1
    Full point group: C1

    Geometry (in Angstrom), charge = 0, multiplicity = 1:

       Center              X                  Y                   Z               Mass       
    ------------   -----------------  -----------------  -----------------  -----------------
         O            0.647166374266     1.938221340096    -0.208839906306    15.994914619570
         N           -1.422274625734     1.019997340096     0.131680093694    14.003074004430
         C            0.417996374266    -0.454397659904    -0.277297906306    12.000000000000
         C            1.886058374266    -0.635557659904    -0.526101906306    12.000000000000
         C           -0.049897625734     0.915871340096    -0.123916906306    12.000000000000
         C           -0.464282625734    -1.502027659904    -0.160934906306    12.000000000000
         C            2.718742374266    -0.350540659904     0.728181093694    12.000000000000
         C           -1.846187625734    -1.300919659904     0.106088093694    12.000000000000
         C           -2.313399325734    -0.036536959904     0.251176793694    12.000000000000
         H            2.067521374266    -1.657499659904    -0.878467906306     1.007825032230
         H            2.191507374266     0.051397340096    -1.322773906306     1.007825032230
         H           -0.091181625734    -2.518362659904    -0.281904906306     1.007825032230
         H            3.784397374266    -0.494061659904     0.525806093694     1.007825032230
         H            2.430949374266    -1.022656659904     1.541922093694     1.007825032230
         H            2.563632374266     0.680586340096     1.050537093694     1.007825032230
         H           -1.745388625734     1.978813340096     0.234392093694     1.007825032230
         H           -2.532722625734    -2.134950659904     0.195318093694     1.007825032230
         H           -3.333972625734     0.239423340096     0.453409093694     1.007825032230

  Running in c1 symmetry.

  Rotational constants: A =      0.09368  B =      0.04777  C =      0.03415 [cm^-1]
  Rotational constants: A =   2808.34041  B =   1432.00372  C =   1023.82669 [MHz]
  Nuclear repulsion =  432.354442424984882

  Charge       = 0
  Multiplicity = 1
  Electrons    = 66
  Nalpha       = 33
  Nbeta        = 33

  ==> Algorithm <==

  SCF Algorithm Type is DF.
  DIIS enabled.
  MOM disabled.
  Fractional occupation disabled.
  Guess Type is SAD.
  Energy threshold   = 1.00e-10
  Density threshold  = 1.00e-10
  Integral threshold = 1.00e-12

  ==> Primary Basis <==

  Basis Set: AUG-CC-PVTZ
    Blend: AUG-CC-PVTZ
    Number of shells: 207
    Number of basis functions: 621
    Number of Cartesian functions: 720
    Spherical Harmonics?: true
    Max angular momentum: 3

   => Loading Basis Set <=

    Name: (AUG-CC-PVTZ AUX)
    Role: JKFIT
    Keyword: DF_BASIS_SCF
    atoms 1     entry O          line   286 file /home1/07844/xy3866/miniconda3/envs/p4env/share/psi4/basis/aug-cc-pvtz-jkfit.gbs 
    atoms 2     entry N          line   224 file /home1/07844/xy3866/miniconda3/envs/p4env/share/psi4/basis/aug-cc-pvtz-jkfit.gbs 
    atoms 3-9   entry C          line   162 file /home1/07844/xy3866/miniconda3/envs/p4env/share/psi4/basis/aug-cc-pvtz-jkfit.gbs 
    atoms 10-18 entry H          line    70 file /home1/07844/xy3866/miniconda3/envs/p4env/share/psi4/basis/aug-cc-pvtz-jkfit.gbs 

  ==> Integral Setup <==

  DFHelper Memory: AOs need 3.787 GiB; user supplied 22.352 GiB. Using in-core AOs.

  ==> MemDFJK: Density-Fitted J/K Matrices <==

    J tasked:                   Yes
    K tasked:                   Yes
    wK tasked:                   No
    OpenMP threads:              32
    Memory [MiB]:             22888
    Algorithm:                 Core
    Schwarz Cutoff:           1E-12
    Mask sparsity (%):       7.0817
    Fitting Condition:        1E-10

   => Auxiliary Basis Set <=

  Basis Set: (AUG-CC-PVTZ AUX)
    Blend: AUG-CC-PVTZ-JKFIT
    Number of shells: 396
    Number of basis functions: 1350
    Number of Cartesian functions: 1674
    Spherical Harmonics?: true
    Max angular momentum: 4

  Minimum eigenvalue in the overlap matrix is 1.8032362995E-06.
  Reciprocal condition number of the overlap matrix is 9.3185158810E-08.
    Using symmetric orthogonalization.

  ==> Pre-Iterations <==

  SCF Guess: Superposition of Atomic Densities via on-the-fly atomic UHF (no occupation information).

   -------------------------
    Irrep   Nso     Nmo    
   -------------------------
     A        621     621 
   -------------------------
    Total     621     621
   -------------------------

  ==> Iterations <==

                           Total Energy        Delta E     RMS |[F,P]|

   @DF-RHF iter SAD:  -399.12198896220588   -3.99122e+02   0.00000e+00 
   @DF-RHF iter   1:  -399.47984017523572   -3.57851e-01   1.18394e-03 DIIS
   @DF-RHF iter   2:  -399.70793548677767   -2.28095e-01   6.52363e-04 DIIS
   @DF-RHF iter   3:  -399.77359911695106   -6.56636e-02   1.37444e-04 DIIS
   @DF-RHF iter   4:  -399.77792806745362   -4.32895e-03   6.44512e-05 DIIS
   @DF-RHF iter   5:  -399.77888639534331   -9.58328e-04   1.25095e-05 DIIS
   @DF-RHF iter   6:  -399.77900959188020   -1.23197e-04   6.73904e-06 DIIS
   @DF-RHF iter   7:  -399.77904388631293   -3.42944e-05   3.38029e-06 DIIS
   @DF-RHF iter   8:  -399.77905325094360   -9.36463e-06   1.10930e-06 DIIS
   @DF-RHF iter   9:  -399.77905416749081   -9.16547e-07   4.15693e-07 DIIS
   @DF-RHF iter  10:  -399.77905426409211   -9.66013e-08   1.39697e-07 DIIS
   @DF-RHF iter  11:  -399.77905427616372   -1.20716e-08   6.43088e-08 DIIS
   @DF-RHF iter  12:  -399.77905427880728   -2.64356e-09   2.52337e-08 DIIS
   @DF-RHF iter  13:  -399.77905427928749   -4.80213e-10   1.06625e-08 DIIS
   @DF-RHF iter  14:  -399.77905427936832   -8.08313e-11   4.93257e-09 DIIS
   @DF-RHF iter  15:  -399.77905427938242   -1.40972e-11   1.78368e-09 DIIS
   @DF-RHF iter  16:  -399.77905427938583   -3.41061e-12   6.96352e-10 DIIS
   @DF-RHF iter  17:  -399.77905427938566    1.70530e-13   2.77910e-10 DIIS
   @DF-RHF iter  18:  -399.77905427938651   -8.52651e-13   7.61982e-11 DIIS
  Energy and wave function converged.


  ==> Post-Iterations <==

    Orbital Energies [Eh]
    ---------------------

    Doubly Occupied:                                                      

       1A    -20.509801     2A    -15.623543     3A    -11.352709  
       4A    -11.308036     5A    -11.266213     6A    -11.246364  
       7A    -11.242984     8A    -11.224608     9A    -11.206016  
      10A     -1.368931    11A     -1.265119    12A     -1.117734  
      13A     -1.056949    14A     -0.994043    15A     -0.889030  
      16A     -0.866555    17A     -0.817040    18A     -0.734239  
      19A     -0.702020    20A     -0.673600    21A     -0.624858  
      22A     -0.612430    23A     -0.601364    24A     -0.591254  
      25A     -0.565405    26A     -0.546306    27A     -0.514610  
      28A     -0.495797    29A     -0.486297    30A     -0.474119  
      31A     -0.422250    32A     -0.410556    33A     -0.308971  

    Virtual:                                                              

      34A      0.021151    35A      0.028552    36A      0.036377  
      37A      0.044625    38A      0.046813    39A      0.052331  
      40A      0.061785    41A      0.068364    42A      0.069605  
      43A      0.074674    44A      0.079514    45A      0.094231  
      46A      0.102474    47A      0.104581    48A      0.107385  
      49A      0.111851    50A      0.115113    51A      0.120808  
      52A      0.125762    53A      0.127599    54A      0.130085  
      55A      0.136683    56A      0.141908    57A      0.143479  
      58A      0.145381    59A      0.152706    60A      0.157210  
      61A      0.161546    62A      0.168763    63A      0.174364  
      64A      0.178685    65A      0.181592    66A      0.186888  
      67A      0.196865    68A      0.209497    69A      0.220312  
      70A      0.233647    71A      0.234867    72A      0.240968  
      73A      0.246567    74A      0.251116    75A      0.261996  
      76A      0.268671    77A      0.272717    78A      0.276198  
      79A      0.279269    80A      0.284560    81A      0.288725  
      82A      0.293263    83A      0.298243    84A      0.303025  
      85A      0.308822    86A      0.312868    87A      0.317630  
      88A      0.321959    89A      0.331146    90A      0.335693  
      91A      0.343391    92A      0.344487    93A      0.348079  
      94A      0.359541    95A      0.364284    96A      0.371092  
      97A      0.376571    98A      0.378797    99A      0.384730  
     100A      0.386511   101A      0.394862   102A      0.406329  
     103A      0.409446   104A      0.413547   105A      0.422329  
     106A      0.425949   107A      0.428975   108A      0.433978  
     109A      0.437037   110A      0.441981   111A      0.446824  
     112A      0.453800   113A      0.457565   114A      0.461102  
     115A      0.467484   116A      0.470024   117A      0.475070  
     118A      0.477366   119A      0.480334   120A      0.481606  
     121A      0.491037   122A      0.498029   123A      0.503342  
     124A      0.507522   125A      0.509530   126A      0.512385  
     127A      0.518264   128A      0.521573   129A      0.525875  
     130A      0.528071   131A      0.536568   132A      0.538690  
     133A      0.544785   134A      0.547401   135A      0.558553  
     136A      0.571309   137A      0.579225   138A      0.584706  
     139A      0.593875   140A      0.599246   141A      0.600059  
     142A      0.605664   143A      0.609577   144A      0.628233  
     145A      0.638197   146A      0.643288   147A      0.646397  
     148A      0.648638   149A      0.664457   150A      0.667497  
     151A      0.675121   152A      0.679459   153A      0.686283  
     154A      0.701396   155A      0.703254   156A      0.719173  
     157A      0.724049   158A      0.735790   159A      0.749266  
     160A      0.750143   161A      0.756851   162A      0.762656  
     163A      0.772335   164A      0.781501   165A      0.798790  
     166A      0.803121   167A      0.809771   168A      0.819521  
     169A      0.827429   170A      0.829833   171A      0.841239  
     172A      0.848320   173A      0.854431   174A      0.858550  
     175A      0.865026   176A      0.867468   177A      0.874787  
     178A      0.878025   179A      0.881049   180A      0.893043  
     181A      0.895468   182A      0.910134   183A      0.914865  
     184A      0.927825   185A      0.935121   186A      0.938969  
     187A      0.942019   188A      0.949459   189A      0.951637  
     190A      0.959482   191A      0.963706   192A      0.971094  
     193A      0.975130   194A      0.980867   195A      0.988993  
     196A      0.995670   197A      0.997238   198A      1.002755  
     199A      1.008354   200A      1.018128   201A      1.027730  
     202A      1.032898   203A      1.036599   204A      1.039835  
     205A      1.042504   206A      1.056216   207A      1.065057  
     208A      1.073081   209A      1.073590   210A      1.082549  
     211A      1.087497   212A      1.089294   213A      1.096837  
     214A      1.100930   215A      1.111161   216A      1.121569  
     217A      1.126346   218A      1.133303   219A      1.144276  
     220A      1.149703   221A      1.156838   222A      1.158478  
     223A      1.171381   224A      1.175252   225A      1.176413  
     226A      1.185426   227A      1.195970   228A      1.197166  
     229A      1.200480   230A      1.206056   231A      1.209858  
     232A      1.224181   233A      1.231803   234A      1.236573  
     235A      1.242308   236A      1.247134   237A      1.254872  
     238A      1.261755   239A      1.268508   240A      1.281182  
     241A      1.294710   242A      1.296906   243A      1.310378  
     244A      1.318184   245A      1.328298   246A      1.339658  
     247A      1.347823   248A      1.359864   249A      1.367924  
     250A      1.376838   251A      1.378299   252A      1.387344  
     253A      1.400686   254A      1.414616   255A      1.421657  
     256A      1.435706   257A      1.437725   258A      1.444375  
     259A      1.451422   260A      1.457790   261A      1.471156  
     262A      1.481607   263A      1.488045   264A      1.492475  
     265A      1.500500   266A      1.508460   267A      1.516857  
     268A      1.520810   269A      1.540899   270A      1.550841  
     271A      1.564473   272A      1.570651   273A      1.573787  
     274A      1.591872   275A      1.599078   276A      1.609850  
     277A      1.617572   278A      1.625429   279A      1.632808  
     280A      1.648952   281A      1.654827   282A      1.666529  
     283A      1.680295   284A      1.683453   285A      1.688593  
     286A      1.696819   287A      1.706087   288A      1.710754  
     289A      1.720596   290A      1.737166   291A      1.744107  
     292A      1.748183   293A      1.760360   294A      1.767535  
     295A      1.777417   296A      1.781567   297A      1.789650  
     298A      1.800423   299A      1.819190   300A      1.823549  
     301A      1.835989   302A      1.846023   303A      1.848277  
     304A      1.852116   305A      1.875551   306A      1.876125  
     307A      1.884692   308A      1.887247   309A      1.904718  
     310A      1.919475   311A      1.930786   312A      1.938150  
     313A      1.945808   314A      1.954532   315A      1.979373  
     316A      1.994374   317A      2.003071   318A      2.005157  
     319A      2.021461   320A      2.025834   321A      2.045478  
     322A      2.050741   323A      2.061912   324A      2.073953  
     325A      2.081034   326A      2.084610   327A      2.094374  
     328A      2.101924   329A      2.112893   330A      2.140926  
     331A      2.154678   332A      2.158492   333A      2.171040  
     334A      2.176476   335A      2.183128   336A      2.193481  
     337A      2.200716   338A      2.225814   339A      2.239571  
     340A      2.252202   341A      2.253577   342A      2.267022  
     343A      2.277518   344A      2.282853   345A      2.293298  
     346A      2.304458   347A      2.310420   348A      2.325740  
     349A      2.351752   350A      2.364053   351A      2.384092  
     352A      2.393978   353A      2.404753   354A      2.420320  
     355A      2.434387   356A      2.443982   357A      2.459978  
     358A      2.470302   359A      2.500146   360A      2.512154  
     361A      2.522208   362A      2.535054   363A      2.541821  
     364A      2.549428   365A      2.565522   366A      2.589023  
     367A      2.617378   368A      2.626643   369A      2.643625  
     370A      2.668301   371A      2.701267   372A      2.709049  
     373A      2.731362   374A      2.744084   375A      2.745702  
     376A      2.758399   377A      2.763801   378A      2.785998  
     379A      2.814085   380A      2.826719   381A      2.858474  
     382A      2.881059   383A      2.904136   384A      2.966199  
     385A      2.994232   386A      3.030193   387A      3.044818  
     388A      3.065836   389A      3.077926   390A      3.103338  
     391A      3.158426   392A      3.167747   393A      3.234492  
     394A      3.240637   395A      3.252460   396A      3.268507  
     397A      3.289807   398A      3.301741   399A      3.317928  
     400A      3.336718   401A      3.353786   402A      3.384959  
     403A      3.391581   404A      3.410658   405A      3.440275  
     406A      3.449794   407A      3.456463   408A      3.482541  
     409A      3.490991   410A      3.508895   411A      3.518300  
     412A      3.521120   413A      3.536937   414A      3.552381  
     415A      3.567872   416A      3.576211   417A      3.587991  
     418A      3.591908   419A      3.606579   420A      3.627771  
     421A      3.639558   422A      3.649949   423A      3.654998  
     424A      3.665703   425A      3.691676   426A      3.709054  
     427A      3.717426   428A      3.724731   429A      3.739977  
     430A      3.747966   431A      3.763906   432A      3.772990  
     433A      3.793194   434A      3.799027   435A      3.802624  
     436A      3.827361   437A      3.833748   438A      3.845745  
     439A      3.864382   440A      3.866068   441A      3.876475  
     442A      3.884092   443A      3.896785   444A      3.906502  
     445A      3.924226   446A      3.930032   447A      3.944469  
     448A      3.955520   449A      3.973987   450A      3.978094  
     451A      3.997605   452A      4.008721   453A      4.015585  
     454A      4.030016   455A      4.032958   456A      4.051268  
     457A      4.063909   458A      4.073749   459A      4.088912  
     460A      4.096019   461A      4.108590   462A      4.111826  
     463A      4.137588   464A      4.143306   465A      4.160018  
     466A      4.170349   467A      4.172424   468A      4.179002  
     469A      4.194814   470A      4.213045   471A      4.231335  
     472A      4.255715   473A      4.269768   474A      4.273001  
     475A      4.285565   476A      4.291070   477A      4.311074  
     478A      4.320273   479A      4.327569   480A      4.331680  
     481A      4.347921   482A      4.358321   483A      4.373121  
     484A      4.383978   485A      4.388972   486A      4.408879  
     487A      4.418110   488A      4.427494   489A      4.454210  
     490A      4.483167   491A      4.490095   492A      4.512962  
     493A      4.527033   494A      4.542763   495A      4.550190  
     496A      4.569066   497A      4.595208   498A      4.602710  
     499A      4.604438   500A      4.635916   501A      4.674716  
     502A      4.684257   503A      4.698099   504A      4.724267  
     505A      4.728331   506A      4.735125   507A      4.752197  
     508A      4.767930   509A      4.791315   510A      4.807784  
     511A      4.817631   512A      4.845288   513A      4.858324  
     514A      4.874045   515A      4.883173   516A      4.887080  
     517A      4.905298   518A      4.915631   519A      4.926580  
     520A      4.966982   521A      4.986958   522A      5.004873  
     523A      5.006706   524A      5.020678   525A      5.038738  
     526A      5.039965   527A      5.052546   528A      5.077964  
     529A      5.092476   530A      5.112382   531A      5.133901  
     532A      5.137241   533A      5.143241   534A      5.153341  
     535A      5.182388   536A      5.206182   537A      5.231340  
     538A      5.246481   539A      5.268749   540A      5.276516  
     541A      5.279328   542A      5.311988   543A      5.324262  
     544A      5.330057   545A      5.349581   546A      5.401825  
     547A      5.415219   548A      5.447038   549A      5.458701  
     550A      5.502674   551A      5.525762   552A      5.535864  
     553A      5.548811   554A      5.556940   555A      5.573658  
     556A      5.597678   557A      5.611941   558A      5.632288  
     559A      5.658726   560A      5.670803   561A      5.682839  
     562A      5.703327   563A      5.716682   564A      5.737024  
     565A      5.800707   566A      5.824591   567A      5.840271  
     568A      5.847708   569A      5.872605   570A      5.903350  
     571A      5.963212   572A      6.010725   573A      6.023342  
     574A      6.076705   575A      6.090203   576A      6.102854  
     577A      6.134546   578A      6.137761   579A      6.204828  
     580A      6.223721   581A      6.244911   582A      6.273085  
     583A      6.279369   584A      6.299562   585A      6.327587  
     586A      6.501346   587A      6.555660   588A      6.573141  
     589A      6.629425   590A      6.711850   591A      6.747330  
     592A      6.773663   593A      6.791933   594A      6.820131  
     595A      6.853696   596A      6.881762   597A      6.894628  
     598A      6.967913   599A      6.997883   600A      7.066806  
     601A      7.075551   602A      7.182209   603A      7.230543  
     604A      7.288726   605A      7.460827   606A      7.483583  
     607A      7.609027   608A      7.790421   609A      7.818684  
     610A      7.883800   611A      7.995148   612A      8.082823  
     613A     15.829622   614A     16.059950   615A     16.740944  
     616A     17.998889   617A     18.413555   618A     19.117371  
     619A     19.526305   620A     20.066155   621A     20.871579  

    Final Occupation by Irrep:
              A 
    DOCC [    33 ]

  @DF-RHF Final Energy:  -399.77905427938651

   => Energetics <=

    Nuclear Repulsion Energy =            432.3544424249848817
    One-Electron Energy =               -1400.0274958370880540
    Two-Electron Energy =                 567.8939991327166581
    Total Energy =                       -399.7790542793865143

Computation Completed

*** tstop() called on c446-101.stampede2.tacc.utexas.edu at Sat Mar 20 12:04:49 2021
Module time:
	user time   =     571.51 seconds =       9.53 minutes
	system time =      42.59 seconds =       0.71 minutes
	total time  =         32 seconds =       0.53 minutes
Total time:
	user time   =     571.51 seconds =       9.53 minutes
	system time =      42.59 seconds =       0.71 minutes
	total time  =         32 seconds =       0.53 minutes
   => Loading Basis Set <=

    Name: (AUG-CC-PVTZ AUX)
    Role: RIFIT
    Keyword: DF_BASIS_MP2
    atoms 1     entry O          line   264 file /home1/07844/xy3866/miniconda3/envs/p4env/share/psi4/basis/aug-cc-pvtz-ri.gbs 
    atoms 2     entry N          line   206 file /home1/07844/xy3866/miniconda3/envs/p4env/share/psi4/basis/aug-cc-pvtz-ri.gbs 
    atoms 3-9   entry C          line   148 file /home1/07844/xy3866/miniconda3/envs/p4env/share/psi4/basis/aug-cc-pvtz-ri.gbs 
    atoms 10-18 entry H          line    30 file /home1/07844/xy3866/miniconda3/envs/p4env/share/psi4/basis/aug-cc-pvtz-ri.gbs 


*** tstart() called on c446-101.stampede2.tacc.utexas.edu
*** at Sat Mar 20 12:04:50 2021


  //>>>>>>>>>>>>>>>>>>>>>>>>>>>>>>>>>>>//
  //               DFMP2               //
  //<<<<<<<<<<<<<<<<<<<<<<<<<<<<<<<<<<<//

	 --------------------------------------------------------
	                          DF-MP2                         
	      2nd-Order Density-Fitted Moller-Plesset Theory     
	              RMP2 Wavefunction,  32 Threads             
	                                                         
	        Rob Parrish, Justin Turney, Andy Simmonett,      
	           Ed Hohenstein, and C. David Sherrill          
	 --------------------------------------------------------

   => Auxiliary Basis Set <=

  Basis Set: (AUG-CC-PVTZ AUX)
    Blend: AUG-CC-PVTZ-RI
    Number of shells: 378
    Number of basis functions: 1368
    Number of Cartesian functions: 1719
    Spherical Harmonics?: true
    Max angular momentum: 4

	 --------------------------------------------------------
	                 NBF =   621, NAUX =  1368
	 --------------------------------------------------------
	   CLASS    FOCC     OCC    AOCC    AVIR     VIR    FVIR
	   PAIRS       0      33      33     588     588       0
	 --------------------------------------------------------

  DFHelper Memory: AOs need 3.895 GiB; user supplied 22.352 GiB. Using in-core AOs.


         ------------------------------------------------------------
                                     CPHF                           
                                  Rob Parrish                       
         ------------------------------------------------------------

  ==> Geometry <==

    Molecular point group: c1
    Full point group: C1

    Geometry (in Angstrom), charge = 0, multiplicity = 1:

       Center              X                  Y                   Z               Mass       
    ------------   -----------------  -----------------  -----------------  -----------------
         O            0.647166374266     1.938221340096    -0.208839906306    15.994914619570
         N           -1.422274625734     1.019997340096     0.131680093694    14.003074004430
         C            0.417996374266    -0.454397659904    -0.277297906306    12.000000000000
         C            1.886058374266    -0.635557659904    -0.526101906306    12.000000000000
         C           -0.049897625734     0.915871340096    -0.123916906306    12.000000000000
         C           -0.464282625734    -1.502027659904    -0.160934906306    12.000000000000
         C            2.718742374266    -0.350540659904     0.728181093694    12.000000000000
         C           -1.846187625734    -1.300919659904     0.106088093694    12.000000000000
         C           -2.313399325734    -0.036536959904     0.251176793694    12.000000000000
         H            2.067521374266    -1.657499659904    -0.878467906306     1.007825032230
         H            2.191507374266     0.051397340096    -1.322773906306     1.007825032230
         H           -0.091181625734    -2.518362659904    -0.281904906306     1.007825032230
         H            3.784397374266    -0.494061659904     0.525806093694     1.007825032230
         H            2.430949374266    -1.022656659904     1.541922093694     1.007825032230
         H            2.563632374266     0.680586340096     1.050537093694     1.007825032230
         H           -1.745388625734     1.978813340096     0.234392093694     1.007825032230
         H           -2.532722625734    -2.134950659904     0.195318093694     1.007825032230
         H           -3.333972625734     0.239423340096     0.453409093694     1.007825032230

  Nuclear repulsion =  432.354442424984882
  Reference energy  = -399.779054279386514

  ==> Basis Set <==

  Basis Set: AUG-CC-PVTZ
    Blend: AUG-CC-PVTZ
    Number of shells: 207
    Number of basis functions: 621
    Number of Cartesian functions: 720
    Spherical Harmonics?: true
    Max angular momentum: 3

  ==> CGRSolver (by Rob Parrish) <==

   Number of roots    =         1
   Preconditioning    =    JACOBI
   Convergence cutoff =     1E-06
   Maximum iterations =       100

  ==> CPHFRHamiltonian (by Rob Parrish) <== 

  ==> MemDFJK: Density-Fitted J/K Matrices <==

    J tasked:                   Yes
    K tasked:                   Yes
    wK tasked:                   No
    OpenMP threads:              32
    Memory [MiB]:             22888
    Algorithm:                 Core
    Schwarz Cutoff:           1E-12
    Mask sparsity (%):       4.3014
    Fitting Condition:        1E-10

   => Auxiliary Basis Set <=

  Basis Set: (AUG-CC-PVTZ AUX)
    Blend: AUG-CC-PVTZ-JKFIT
    Number of shells: 396
    Number of basis functions: 1350
    Number of Cartesian functions: 1674
    Spherical Harmonics?: true
    Max angular momentum: 4

  ==> CPHF Iterations <==

  => Iterations <=

             Iter  Converged  Remaining    Residual
  CGR           1          0          1   1.409E-01
  CGR           2          0          1   4.885E-02
  CGR           3          0          1   2.479E-02
  CGR           4          0          1   7.035E-03
  CGR           5          0          1   2.712E-03
  CGR           6          0          1   1.300E-03
  CGR           7          0          1   4.219E-04
  CGR           8          0          1   1.509E-04
  CGR           9          0          1   5.280E-05
  CGR          10          0          1   1.971E-05
  CGR          11          0          1   8.406E-06
  CGR          12          0          1   3.780E-06
  CGR          13          0          1   1.523E-06
  CGR          14          1          0   5.255E-07

    CGRSolver converged.

	-----------------------------------------------------------
	 ==================> DF-MP2 Energies <==================== 
	-----------------------------------------------------------
	 Reference Energy          =    -399.7790542793865143 [Eh]
	 Singles Energy            =      -0.0000000000000000 [Eh]
	 Same-Spin Energy          =      -0.4237660239627830 [Eh]
	 Opposite-Spin Energy      =      -1.3399589079169141 [Eh]
	 Correlation Energy        =      -1.7637249318796970 [Eh]
	 Total Energy              =    -401.5427792112662360 [Eh]
	-----------------------------------------------------------
	 ================> DF-SCS-MP2 Energies <================== 
	-----------------------------------------------------------
	 SCS Same-Spin Scale       =       0.3333333333333333 [-]
	 SCS Opposite-Spin Scale   =       1.2000000000000000 [-]
	 SCS Same-Spin Energy      =      -0.1412553413209277 [Eh]
	 SCS Opposite-Spin Energy  =      -1.6079506895002968 [Eh]
	 SCS Correlation Energy    =      -1.7492060308212245 [Eh]
	 SCS Total Energy          =    -401.5282603102077132 [Eh]
	-----------------------------------------------------------



Properties will be evaluated at  -0.000000,  -0.000000,  -0.000000 [a0]

Properties computed using the MP2 density matrix

  Nuclear Dipole Moment: [e a0]
     X:     5.0084      Y:    -4.5660      Z:     1.4219

  Electronic Dipole Moment: [e a0]
     X:    -6.1565      Y:     3.6634      Z:    -1.2353

  Dipole Moment: [e a0]
     X:    -1.1481      Y:    -0.9026      Z:     0.1866     Total:     1.4723

  Dipole Moment: [D]
     X:    -2.9182      Y:    -2.2943      Z:     0.4742     Total:     3.7423


*** tstop() called on c446-101.stampede2.tacc.utexas.edu at Sat Mar 20 12:07:50 2021
Module time:
	user time   =    1549.61 seconds =      25.83 minutes
	system time =      56.88 seconds =       0.95 minutes
	total time  =        180 seconds =       3.00 minutes
Total time:
	user time   =    2122.01 seconds =      35.37 minutes
	system time =      99.49 seconds =       1.66 minutes
	total time  =        213 seconds =       3.55 minutes

    Psi4 stopped on: Saturday, 20 March 2021 12:07PM
    Psi4 wall time for execution: 0:03:33.85

*** Psi4 exiting successfully. Buy a developer a beer!
