
    -----------------------------------------------------------------------
          Psi4: An Open-Source Ab Initio Electronic Structure Package
                               Psi4 1.3.2 release

                         Git: Rev {HEAD} ecbda83 


    R. M. Parrish, L. A. Burns, D. G. A. Smith, A. C. Simmonett,
    A. E. DePrince III, E. G. Hohenstein, U. Bozkaya, A. Yu. Sokolov,
    R. Di Remigio, R. M. Richard, J. F. Gonthier, A. M. James,
    H. R. McAlexander, A. Kumar, M. Saitow, X. Wang, B. P. Pritchard,
    P. Verma, H. F. Schaefer III, K. Patkowski, R. A. King, E. F. Valeev,
    F. A. Evangelista, J. M. Turney, T. D. Crawford, and C. D. Sherrill,
    J. Chem. Theory Comput. 13(7) pp 3185--3197 (2017).
    (doi: 10.1021/acs.jctc.7b00174)


                         Additional Contributions by
    P. Kraus, H. Kruse, M. H. Lechner, M. C. Schieber, R. A. Shaw,
    A. Alenaizan, R. Galvelis, Z. L. Glick, S. Lehtola, and J. P. Misiewicz

    -----------------------------------------------------------------------


    Psi4 started on: Tuesday, 02 February 2021 12:06PM

    Process ID: 1846041
    Host:       node58.bme.utexas.edu
    PSIDATADIR: /home/xy3866/psi4conda/share/psi4
    Memory:     500.0 MiB
    Threads:    8
    
  ==> Input File <==

--------------------------------------------------------------------------
#psi4
#
memory 32 gb

molecule  {
0 1
  O        0.6058420     1.9734460    -0.2200840
  N       -1.4635990     1.0552220     0.1204360
  C        0.3766720    -0.4191730    -0.2885420
  C        1.8447340    -0.6003330    -0.5373460
  C       -0.0912220     0.9510960    -0.1351610
  C       -0.5056070    -1.4668030    -0.1721790
  C        2.6774180    -0.3153160     0.7169370
  C       -1.8875120    -1.2656950     0.0948440
  C       -2.3418770     0.0139190     0.2382100
  H        2.0261970    -1.6222750    -0.8897120
  H        2.1501830     0.0866220    -1.3340180
  H       -0.1325060    -2.4831380    -0.2931490
  H        3.7430730    -0.4588370     0.5145620
  H        2.3896250    -0.9874320     1.5306780
  H        2.5223080     0.7158110     1.0392930
  H       -1.7549416     1.9197588     0.2130485
  H       -2.5740470    -2.0997260     0.1840740
  H       -3.3752970     0.2746480     0.4421650
units angstrom
no_reorient  #important for SAPT in psi4, default
symmetry c1  #important for SAPT in psi4, default
}

set PROPERTIES_ORIGIN ["COM"]
properties('MP2/aug-cc-pvtz', properties = ['dipole'])
--------------------------------------------------------------------------

  Memory set to  29.802 GiB by Python driver.
    SCF Algorithm Type (re)set to DF.

*** tstart() called on node58.bme.utexas.edu
*** at Tue Feb  2 12:06:59 2021

   => Loading Basis Set <=

    Name: AUG-CC-PVTZ
    Role: ORBITAL
    Keyword: BASIS
    atoms 1     entry O          line   327 file /home/xy3866/psi4conda/share/psi4/basis/aug-cc-pvtz.gbs 
    atoms 2     entry N          line   281 file /home/xy3866/psi4conda/share/psi4/basis/aug-cc-pvtz.gbs 
    atoms 3-9   entry C          line   235 file /home/xy3866/psi4conda/share/psi4/basis/aug-cc-pvtz.gbs 
    atoms 10-18 entry H          line    36 file /home/xy3866/psi4conda/share/psi4/basis/aug-cc-pvtz.gbs 


         ---------------------------------------------------------
                                   SCF
               by Justin Turney, Rob Parrish, Andy Simmonett
                          and Daniel G. A. Smith
                              RHF Reference
                        8 Threads,  30517 MiB Core
         ---------------------------------------------------------

  ==> Geometry <==

    Molecular point group: c1
    Full point group: C1

    Geometry (in Angstrom), charge = 0, multiplicity = 1:

       Center              X                  Y                   Z               Mass       
    ------------   -----------------  -----------------  -----------------  -----------------
         O            0.645653553825     1.937508251665    -0.208589225177    15.994914619570
         N           -1.423787446175     1.019284251665     0.131930774823    14.003074004430
         C            0.416483553825    -0.455110748335    -0.277047225177    12.000000000000
         C            1.884545553825    -0.636270748335    -0.525851225177    12.000000000000
         C           -0.051410446175     0.915158251665    -0.123666225177    12.000000000000
         C           -0.465795446175    -1.502740748335    -0.160684225177    12.000000000000
         C            2.717229553825    -0.351253748335     0.728431774823    12.000000000000
         C           -1.847700446175    -1.301632748335     0.106338774823    12.000000000000
         C           -2.302065446175    -0.022018748335     0.249704774823    12.000000000000
         H            2.066008553825    -1.658212748335    -0.878217225177     1.007825032230
         H            2.189994553825     0.050684251665    -1.322523225177     1.007825032230
         H           -0.092694446175    -2.519075748335    -0.281654225177     1.007825032230
         H            3.782884553825    -0.494774748335     0.526056774823     1.007825032230
         H            2.429436553825    -1.023369748335     1.542172774823     1.007825032230
         H            2.562119553825     0.679873251665     1.050787774823     1.007825032230
         H           -1.715130046175     1.883821051665     0.224543274823     1.007825032230
         H           -2.534235446175    -2.135663748335     0.195568774823     1.007825032230
         H           -3.335485446175     0.238710251665     0.453659774823     1.007825032230

  Running in c1 symmetry.

  Rotational constants: A =      0.09388  B =      0.04788  C =      0.03423 [cm^-1]
  Rotational constants: A =   2814.30521  B =   1435.45194  C =   1026.32372 [MHz]
  Nuclear repulsion =  433.275632646913209

  Charge       = 0
  Multiplicity = 1
  Electrons    = 66
  Nalpha       = 33
  Nbeta        = 33

  ==> Algorithm <==

  SCF Algorithm Type is DF.
  DIIS enabled.
  MOM disabled.
  Fractional occupation disabled.
  Guess Type is SAD.
  Energy threshold   = 1.00e-10
  Density threshold  = 1.00e-10
  Integral threshold = 0.00e+00

  ==> Primary Basis <==

  Basis Set: AUG-CC-PVTZ
    Blend: AUG-CC-PVTZ
    Number of shells: 207
    Number of basis function: 621
    Number of Cartesian functions: 720
    Spherical Harmonics?: true
    Max angular momentum: 3

   => Loading Basis Set <=

    Name: (AUG-CC-PVTZ AUX)
    Role: JKFIT
    Keyword: DF_BASIS_SCF
    atoms 1     entry O          line   286 file /home/xy3866/psi4conda/share/psi4/basis/aug-cc-pvtz-jkfit.gbs 
    atoms 2     entry N          line   224 file /home/xy3866/psi4conda/share/psi4/basis/aug-cc-pvtz-jkfit.gbs 
    atoms 3-9   entry C          line   162 file /home/xy3866/psi4conda/share/psi4/basis/aug-cc-pvtz-jkfit.gbs 
    atoms 10-18 entry H          line    70 file /home/xy3866/psi4conda/share/psi4/basis/aug-cc-pvtz-jkfit.gbs 

  ==> Pre-Iterations <==

   -------------------------------------------------------
    Irrep   Nso     Nmo     Nalpha   Nbeta   Ndocc  Nsocc
   -------------------------------------------------------
     A        621     621       0       0       0       0
   -------------------------------------------------------
    Total     621     621      33      33      33       0
   -------------------------------------------------------

  ==> Integral Setup <==

  DFHelper Memory: AOs need 3.827 GiB; user supplied 22.352 GiB. Using in-core AOs.

  ==> MemDFJK: Density-Fitted J/K Matrices <==

    J tasked:                   Yes
    K tasked:                   Yes
    wK tasked:                   No
    OpenMP threads:               8
    Memory [MiB]:             22888
    Algorithm:                 Disk
    Schwarz Cutoff:           1E-12
    Mask sparsity (%):       4.2713
    Fitting Condition:        1E-10

   => Auxiliary Basis Set <=

  Basis Set: (AUG-CC-PVTZ AUX)
    Blend: AUG-CC-PVTZ-JKFIT
    Number of shells: 396
    Number of basis function: 1350
    Number of Cartesian functions: 1674
    Spherical Harmonics?: true
    Max angular momentum: 4

  Minimum eigenvalue in the overlap matrix is 1.7845080500E-06.
  Using Symmetric Orthogonalization.

  SCF Guess: Superposition of Atomic Densities via on-the-fly atomic UHF.

  ==> Iterations <==

                           Total Energy        Delta E     RMS |[F,P]|

   @DF-RHF iter SAD:  -399.19499923989491   -3.99195e+02   0.00000e+00 
   @DF-RHF iter   1:  -399.47879498742719   -2.83796e-01   1.18169e-03 DIIS
   @DF-RHF iter   2:  -399.70521156410609   -2.26417e-01   6.40519e-04 DIIS
   @DF-RHF iter   3:  -399.76823921631626   -6.30277e-02   1.36003e-04 DIIS
   @DF-RHF iter   4:  -399.77239187674508   -4.15266e-03   6.26520e-05 DIIS
   @DF-RHF iter   5:  -399.77327516561360   -8.83289e-04   1.18399e-05 DIIS
   @DF-RHF iter   6:  -399.77338105579258   -1.05890e-04   6.26904e-06 DIIS
   @DF-RHF iter   7:  -399.77341033311529   -2.92773e-05   3.19745e-06 DIIS
   @DF-RHF iter   8:  -399.77341887683713   -8.54372e-06   1.06739e-06 DIIS
   @DF-RHF iter   9:  -399.77341978940933   -9.12572e-07   4.01134e-07 DIIS
   @DF-RHF iter  10:  -399.77341988266807   -9.32587e-08   1.31255e-07 DIIS
   @DF-RHF iter  11:  -399.77341989367414   -1.10061e-08   6.20761e-08 DIIS
   @DF-RHF iter  12:  -399.77341989611699   -2.44285e-09   2.50172e-08 DIIS
   @DF-RHF iter  13:  -399.77341989658726   -4.70266e-10   1.08207e-08 DIIS
   @DF-RHF iter  14:  -399.77341989667093   -8.36735e-11   4.84946e-09 DIIS
   @DF-RHF iter  15:  -399.77341989668400   -1.30740e-11   1.71258e-09 DIIS
   @DF-RHF iter  16:  -399.77341989668741   -3.41061e-12   6.50582e-10 DIIS
   @DF-RHF iter  17:  -399.77341989668457    2.84217e-12   2.61656e-10 DIIS
   @DF-RHF iter  18:  -399.77341989668503   -4.54747e-13   7.31134e-11 DIIS
  Energy and wave function converged.


  ==> Post-Iterations <==

    Orbital Energies [Eh]
    ---------------------

    Doubly Occupied:                                                      

       1A    -20.511043     2A    -15.616675     3A    -11.353639  
       4A    -11.309852     5A    -11.266563     6A    -11.245404  
       7A    -11.243339     8A    -11.224458     9A    -11.205953  
      10A     -1.373895    11A     -1.280411    12A     -1.121962  
      13A     -1.057367    14A     -0.994136    15A     -0.895789  
      16A     -0.874124    17A     -0.820331    18A     -0.749926  
      19A     -0.705204    20A     -0.677510    21A     -0.627391  
      22A     -0.613289    23A     -0.604206    24A     -0.591188  
      25A     -0.565647    26A     -0.548902    27A     -0.515080  
      28A     -0.496353    29A     -0.486818    30A     -0.474741  
      31A     -0.423097    32A     -0.412696    33A     -0.307280  

    Virtual:                                                              

      34A      0.021225    35A      0.028603    36A      0.036419  
      37A      0.044564    38A      0.046841    39A      0.052290  
      40A      0.061930    41A      0.068223    42A      0.069586  
      43A      0.074552    44A      0.079661    45A      0.094014  
      46A      0.102697    47A      0.104819    48A      0.107176  
      49A      0.111810    50A      0.115360    51A      0.120978  
      52A      0.125878    53A      0.127618    54A      0.129833  
      55A      0.136805    56A      0.141585    57A      0.143525  
      58A      0.145092    59A      0.152555    60A      0.157690  
      61A      0.161679    62A      0.168003    63A      0.174203  
      64A      0.178636    65A      0.181482    66A      0.188542  
      67A      0.196946    68A      0.209171    69A      0.219790  
      70A      0.234314    71A      0.234774    72A      0.240895  
      73A      0.247003    74A      0.250867    75A      0.261947  
      76A      0.268650    77A      0.272893    78A      0.276495  
      79A      0.279394    80A      0.284129    81A      0.288478  
      82A      0.293386    83A      0.298213    84A      0.303177  
      85A      0.310100    86A      0.313264    87A      0.318064  
      88A      0.321427    89A      0.332588    90A      0.335571  
      91A      0.343441    92A      0.344510    93A      0.348238  
      94A      0.362043    95A      0.367228    96A      0.371688  
      97A      0.378044    98A      0.380521    99A      0.385028  
     100A      0.389276   101A      0.395465   102A      0.408037  
     103A      0.409670   104A      0.415939   105A      0.423346  
     106A      0.426868   107A      0.428716   108A      0.433941  
     109A      0.437511   110A      0.442743   111A      0.447780  
     112A      0.454380   113A      0.459081   114A      0.462013  
     115A      0.467500   116A      0.470505   117A      0.475419  
     118A      0.478246   119A      0.481759   120A      0.483011  
     121A      0.490927   122A      0.498560   123A      0.504277  
     124A      0.509742   125A      0.510196   126A      0.513203  
     127A      0.518875   128A      0.520863   129A      0.526997  
     130A      0.529529   131A      0.537774   132A      0.538689  
     133A      0.544628   134A      0.548522   135A      0.559014  
     136A      0.571607   137A      0.580530   138A      0.585422  
     139A      0.593577   140A      0.598754   141A      0.601453  
     142A      0.605904   143A      0.608385   144A      0.626144  
     145A      0.638253   146A      0.642701   147A      0.645313  
     148A      0.648614   149A      0.664279   150A      0.667371  
     151A      0.674914   152A      0.681080   153A      0.687373  
     154A      0.702828   155A      0.706549   156A      0.720117  
     157A      0.728691   158A      0.736370   159A      0.750916  
     160A      0.753664   161A      0.757259   162A      0.763167  
     163A      0.773323   164A      0.780913   165A      0.798542  
     166A      0.804043   167A      0.810052   168A      0.819992  
     169A      0.828347   170A      0.829916   171A      0.841022  
     172A      0.848652   173A      0.855199   174A      0.858500  
     175A      0.864748   176A      0.867358   177A      0.875223  
     178A      0.878972   179A      0.881373   180A      0.893374  
     181A      0.896218   182A      0.911291   183A      0.914390  
     184A      0.928972   185A      0.935602   186A      0.939120  
     187A      0.941576   188A      0.949712   189A      0.950192  
     190A      0.960388   191A      0.963140   192A      0.972104  
     193A      0.975617   194A      0.981116   195A      0.990581  
     196A      0.995706   197A      0.999351   198A      1.003567  
     199A      1.009548   200A      1.020391   201A      1.029096  
     202A      1.032901   203A      1.039761   204A      1.041578  
     205A      1.043162   206A      1.056410   207A      1.067127  
     208A      1.073930   209A      1.076257   210A      1.084767  
     211A      1.089682   212A      1.095192   213A      1.097959  
     214A      1.103171   215A      1.111752   216A      1.123884  
     217A      1.128253   218A      1.135954   219A      1.144902  
     220A      1.152479   221A      1.156609   222A      1.161295  
     223A      1.171980   224A      1.176069   225A      1.176998  
     226A      1.186653   227A      1.195748   228A      1.199103  
     229A      1.202436   230A      1.206006   231A      1.210299  
     232A      1.225242   233A      1.236253   234A      1.238193  
     235A      1.243219   236A      1.247125   237A      1.258236  
     238A      1.263468   239A      1.276109   240A      1.280892  
     241A      1.297014   242A      1.300020   243A      1.310477  
     244A      1.317969   245A      1.325430   246A      1.340482  
     247A      1.347048   248A      1.361840   249A      1.369155  
     250A      1.380538   251A      1.386813   252A      1.388489  
     253A      1.404407   254A      1.419422   255A      1.423144  
     256A      1.435692   257A      1.441111   258A      1.445195  
     259A      1.452688   260A      1.460190   261A      1.473131  
     262A      1.482499   263A      1.488035   264A      1.493817  
     265A      1.499402   266A      1.510943   267A      1.520400  
     268A      1.525020   269A      1.541147   270A      1.550151  
     271A      1.567731   272A      1.571858   273A      1.576211  
     274A      1.593184   275A      1.599581   276A      1.614415  
     277A      1.619918   278A      1.626971   279A      1.634698  
     280A      1.647048   281A      1.654133   282A      1.667611  
     283A      1.682091   284A      1.685176   285A      1.693724  
     286A      1.698217   287A      1.706045   288A      1.712363  
     289A      1.723952   290A      1.745553   291A      1.749057  
     292A      1.751256   293A      1.762224   294A      1.770904  
     295A      1.781005   296A      1.783152   297A      1.790046  
     298A      1.801360   299A      1.820143   300A      1.825791  
     301A      1.836677   302A      1.846437   303A      1.850613  
     304A      1.851917   305A      1.876973   306A      1.880449  
     307A      1.885965   308A      1.893445   309A      1.909119  
     310A      1.923034   311A      1.931329   312A      1.937426  
     313A      1.950123   314A      1.956143   315A      1.982096  
     316A      1.996393   317A      2.002466   318A      2.005618  
     319A      2.022410   320A      2.030810   321A      2.042080  
     322A      2.051641   323A      2.065761   324A      2.074592  
     325A      2.083898   326A      2.086381   327A      2.100685  
     328A      2.109230   329A      2.121732   330A      2.140483  
     331A      2.157590   332A      2.159881   333A      2.172633  
     334A      2.181935   335A      2.183209   336A      2.195618  
     337A      2.210513   338A      2.224289   339A      2.240821  
     340A      2.249592   341A      2.254293   342A      2.273543  
     343A      2.284189   344A      2.292755   345A      2.294817  
     346A      2.305771   347A      2.310440   348A      2.328623  
     349A      2.353907   350A      2.365469   351A      2.380359  
     352A      2.398569   353A      2.407021   354A      2.425529  
     355A      2.444789   356A      2.453851   357A      2.460568  
     358A      2.482207   359A      2.506723   360A      2.517317  
     361A      2.529763   362A      2.543222   363A      2.551979  
     364A      2.558071   365A      2.567644   366A      2.591560  
     367A      2.618835   368A      2.640181   369A      2.650829  
     370A      2.672557   371A      2.711893   372A      2.714407  
     373A      2.741876   374A      2.751426   375A      2.754201  
     376A      2.769601   377A      2.776943   378A      2.808653  
     379A      2.816463   380A      2.840152   381A      2.862226  
     382A      2.883173   383A      2.917200   384A      2.963027  
     385A      2.992445   386A      3.033737   387A      3.048424  
     388A      3.065290   389A      3.075067   390A      3.114399  
     391A      3.145430   392A      3.161466   393A      3.214242  
     394A      3.247455   395A      3.253782   396A      3.268589  
     397A      3.289066   398A      3.300835   399A      3.321097  
     400A      3.337790   401A      3.354082   402A      3.384002  
     403A      3.392344   404A      3.412886   405A      3.437747  
     406A      3.450895   407A      3.456692   408A      3.483548  
     409A      3.496923   410A      3.511412   411A      3.518414  
     412A      3.523163   413A      3.534029   414A      3.552368  
     415A      3.564901   416A      3.573895   417A      3.588537  
     418A      3.593418   419A      3.608747   420A      3.626584  
     421A      3.640130   422A      3.652495   423A      3.656273  
     424A      3.667388   425A      3.692958   426A      3.711647  
     427A      3.719053   428A      3.727650   429A      3.741066  
     430A      3.746587   431A      3.768364   432A      3.773707  
     433A      3.797734   434A      3.800508   435A      3.808435  
     436A      3.829549   437A      3.835248   438A      3.845004  
     439A      3.866208   440A      3.869571   441A      3.879279  
     442A      3.888693   443A      3.897821   444A      3.906938  
     445A      3.926946   446A      3.934559   447A      3.945202  
     448A      3.956682   449A      3.974531   450A      3.978929  
     451A      4.000505   452A      4.012129   453A      4.016912  
     454A      4.032014   455A      4.035466   456A      4.050402  
     457A      4.065596   458A      4.077515   459A      4.090449  
     460A      4.101682   461A      4.107024   462A      4.120519  
     463A      4.133762   464A      4.147900   465A      4.161948  
     466A      4.173970   467A      4.181182   468A      4.191920  
     469A      4.206225   470A      4.214372   471A      4.236596  
     472A      4.255804   473A      4.272172   474A      4.277320  
     475A      4.287735   476A      4.291241   477A      4.319080  
     478A      4.321725   479A      4.330613   480A      4.335571  
     481A      4.354152   482A      4.362085   483A      4.375716  
     484A      4.388935   485A      4.408607   486A      4.418791  
     487A      4.426611   488A      4.449805   489A      4.466511  
     490A      4.489234   491A      4.508461   492A      4.524145  
     493A      4.535178   494A      4.555350   495A      4.562324  
     496A      4.572389   497A      4.599156   498A      4.608706  
     499A      4.613560   500A      4.646799   501A      4.678045  
     502A      4.701476   503A      4.710843   504A      4.725901  
     505A      4.738096   506A      4.748916   507A      4.759310  
     508A      4.779492   509A      4.793892   510A      4.815633  
     511A      4.818417   512A      4.851421   513A      4.858266  
     514A      4.876240   515A      4.887917   516A      4.904378  
     517A      4.910010   518A      4.922611   519A      4.942525  
     520A      4.980003   521A      5.005299   522A      5.006837  
     523A      5.017213   524A      5.028487   525A      5.046428  
     526A      5.061366   527A      5.062515   528A      5.090259  
     529A      5.102253   530A      5.125889   531A      5.132771  
     532A      5.144827   533A      5.175873   534A      5.183968  
     535A      5.205153   536A      5.233464   537A      5.249643  
     538A      5.266341   539A      5.273926   540A      5.277041  
     541A      5.315786   542A      5.317532   543A      5.331443  
     544A      5.341804   545A      5.375643   546A      5.410693  
     547A      5.421787   548A      5.448182   549A      5.459796  
     550A      5.508846   551A      5.532478   552A      5.546761  
     553A      5.557436   554A      5.574669   555A      5.578952  
     556A      5.607232   557A      5.628474   558A      5.652450  
     559A      5.675477   560A      5.687351   561A      5.710192  
     562A      5.720311   563A      5.736245   564A      5.742081  
     565A      5.804311   566A      5.835387   567A      5.845791  
     568A      5.859365   569A      5.893874   570A      5.947440  
     571A      5.967870   572A      6.019175   573A      6.040300  
     574A      6.075387   575A      6.090162   576A      6.104394  
     577A      6.146403   578A      6.217556   579A      6.237162  
     580A      6.248643   581A      6.266385   582A      6.296587  
     583A      6.301006   584A      6.355521   585A      6.452529  
     586A      6.507868   587A      6.560693   588A      6.606334  
     589A      6.642891   590A      6.715504   591A      6.776884  
     592A      6.795225   593A      6.819267   594A      6.873093  
     595A      6.876597   596A      6.899185   597A      6.960435  
     598A      6.974465   599A      7.057862   600A      7.076660  
     601A      7.207469   602A      7.233118   603A      7.244720  
     604A      7.399174   605A      7.461491   606A      7.485868  
     607A      7.715598   608A      7.790896   609A      7.866670  
     610A      7.913296   611A      8.010909   612A      8.085753  
     613A     15.957369   614A     16.557532   615A     16.940735  
     616A     18.021473   617A     18.576009   618A     19.186626  
     619A     19.703330   620A     20.591969   621A     20.913515  

    Final Occupation by Irrep:
              A 
    DOCC [    33 ]

  @DF-RHF Final Energy:  -399.77341989668503

   => Energetics <=

    Nuclear Repulsion Energy =            433.2756326469132091
    One-Electron Energy =               -1401.7095700130121259
    Two-Electron Energy =                 568.6605174694138896
    Total Energy =                       -399.7734198966850272

Computation Completed

*** tstop() called on node58.bme.utexas.edu at Tue Feb  2 12:07:55 2021
Module time:
	user time   =     251.04 seconds =       4.18 minutes
	system time =      31.95 seconds =       0.53 minutes
	total time  =         56 seconds =       0.93 minutes
Total time:
	user time   =     251.04 seconds =       4.18 minutes
	system time =      31.95 seconds =       0.53 minutes
	total time  =         56 seconds =       0.93 minutes
   => Loading Basis Set <=

    Name: (AUG-CC-PVTZ AUX)
    Role: RIFIT
    Keyword: DF_BASIS_MP2
    atoms 1     entry O          line   264 file /home/xy3866/psi4conda/share/psi4/basis/aug-cc-pvtz-ri.gbs 
    atoms 2     entry N          line   206 file /home/xy3866/psi4conda/share/psi4/basis/aug-cc-pvtz-ri.gbs 
    atoms 3-9   entry C          line   148 file /home/xy3866/psi4conda/share/psi4/basis/aug-cc-pvtz-ri.gbs 
    atoms 10-18 entry H          line    30 file /home/xy3866/psi4conda/share/psi4/basis/aug-cc-pvtz-ri.gbs 


*** tstart() called on node58.bme.utexas.edu
*** at Tue Feb  2 12:07:56 2021


  //>>>>>>>>>>>>>>>>>>>>>>>>>>>>>>>>>>>//
  //               DFMP2               //
  //<<<<<<<<<<<<<<<<<<<<<<<<<<<<<<<<<<<//

	 --------------------------------------------------------
	                          DF-MP2                         
	      2nd-Order Density-Fitted Moller-Plesset Theory     
	              RMP2 Wavefunction,   8 Threads             
	                                                         
	        Rob Parrish, Justin Turney, Andy Simmonett,      
	           Ed Hohenstein, and C. David Sherrill          
	 --------------------------------------------------------

   => Auxiliary Basis Set <=

  Basis Set: (AUG-CC-PVTZ AUX)
    Blend: AUG-CC-PVTZ-RI
    Number of shells: 378
    Number of basis function: 1368
    Number of Cartesian functions: 1719
    Spherical Harmonics?: true
    Max angular momentum: 4

	 --------------------------------------------------------
	                 NBF =   621, NAUX =  1368
	 --------------------------------------------------------
	   CLASS    FOCC     OCC    AOCC    AVIR     VIR    FVIR
	   PAIRS       0      33      33     588     588       0
	 --------------------------------------------------------

  DFHelper Memory: AOs need 3.827 GiB; user supplied 22.352 GiB. Using in-core AOs.


         ------------------------------------------------------------
                                     CPHF                           
                                  Rob Parrish                       
         ------------------------------------------------------------

  ==> Geometry <==

    Molecular point group: c1
    Full point group: C1

    Geometry (in Angstrom), charge = 0, multiplicity = 1:

       Center              X                  Y                   Z               Mass       
    ------------   -----------------  -----------------  -----------------  -----------------
         O            0.645653553825     1.937508251665    -0.208589225177    15.994914619570
         N           -1.423787446175     1.019284251665     0.131930774823    14.003074004430
         C            0.416483553825    -0.455110748335    -0.277047225177    12.000000000000
         C            1.884545553825    -0.636270748335    -0.525851225177    12.000000000000
         C           -0.051410446175     0.915158251665    -0.123666225177    12.000000000000
         C           -0.465795446175    -1.502740748335    -0.160684225177    12.000000000000
         C            2.717229553825    -0.351253748335     0.728431774823    12.000000000000
         C           -1.847700446175    -1.301632748335     0.106338774823    12.000000000000
         C           -2.302065446175    -0.022018748335     0.249704774823    12.000000000000
         H            2.066008553825    -1.658212748335    -0.878217225177     1.007825032230
         H            2.189994553825     0.050684251665    -1.322523225177     1.007825032230
         H           -0.092694446175    -2.519075748335    -0.281654225177     1.007825032230
         H            3.782884553825    -0.494774748335     0.526056774823     1.007825032230
         H            2.429436553825    -1.023369748335     1.542172774823     1.007825032230
         H            2.562119553825     0.679873251665     1.050787774823     1.007825032230
         H           -1.715130046175     1.883821051665     0.224543274823     1.007825032230
         H           -2.534235446175    -2.135663748335     0.195568774823     1.007825032230
         H           -3.335485446175     0.238710251665     0.453659774823     1.007825032230

  Nuclear repulsion =  433.275632646913209
  Reference energy  = -399.773419896685027

  ==> Basis Set <==

  Basis Set: AUG-CC-PVTZ
    Blend: AUG-CC-PVTZ
    Number of shells: 207
    Number of basis function: 621
    Number of Cartesian functions: 720
    Spherical Harmonics?: true
    Max angular momentum: 3

  ==> CGRSolver (by Rob Parrish) <==

   Number of roots    =         1
   Preconditioning    =    JACOBI
   Convergence cutoff =     1E-06
   Maximum iterations =       100

  ==> CPHFRHamiltonian (by Rob Parrish) <== 

  ==> MemDFJK: Density-Fitted J/K Matrices <==

    J tasked:                   Yes
    K tasked:                   Yes
    wK tasked:                   No
    OpenMP threads:               8
    Memory [MiB]:             22888
    Algorithm:                 Disk
    Schwarz Cutoff:           1E-12
    Mask sparsity (%):       4.2713
    Fitting Condition:        1E-10

   => Auxiliary Basis Set <=

  Basis Set: (AUG-CC-PVTZ AUX)
    Blend: AUG-CC-PVTZ-JKFIT
    Number of shells: 396
    Number of basis function: 1350
    Number of Cartesian functions: 1674
    Spherical Harmonics?: true
    Max angular momentum: 4

  ==> CPHF Iterations <==

  => Iterations <=

             Iter  Converged  Remaining    Residual
  CGR           1          0          1   1.401E-01
  CGR           2          0          1   4.890E-02
  CGR           3          0          1   2.487E-02
  CGR           4          0          1   6.963E-03
  CGR           5          0          1   2.664E-03
  CGR           6          0          1   1.287E-03
  CGR           7          0          1   4.221E-04
  CGR           8          0          1   1.561E-04
  CGR           9          0          1   5.628E-05
  CGR          10          0          1   2.202E-05
  CGR          11          0          1   9.706E-06
  CGR          12          0          1   4.201E-06
  CGR          13          0          1   1.689E-06
  CGR          14          1          0   5.441E-07

    CGRSolver converged.

	-----------------------------------------------------------
	 ==================> DF-MP2 Energies <==================== 
	-----------------------------------------------------------
	 Reference Energy          =    -399.7734198966850272 [Eh]
	 Singles Energy            =      -0.0000000000000000 [Eh]
	 Same-Spin Energy          =      -0.4231997902485345 [Eh]
	 Opposite-Spin Energy      =      -1.3382543827625564 [Eh]
	 Correlation Energy        =      -1.7614541730110909 [Eh]
	 Total Energy              =    -401.5348740696961158 [Eh]
	-----------------------------------------------------------
	 ================> DF-SCS-MP2 Energies <================== 
	-----------------------------------------------------------
	 SCS Same-Spin Scale       =       0.3333333333333333 [-]
	 SCS Opposite-Spin Scale   =       1.2000000000000000 [-]
	 SCS Same-Spin Energy      =      -0.1410665967495115 [Eh]
	 SCS Opposite-Spin Energy  =      -1.6059052593150676 [Eh]
	 SCS Correlation Energy    =      -1.7469718560645791 [Eh]
	 SCS Total Energy          =    -401.5203917527496174 [Eh]
	-----------------------------------------------------------



Properties will be evaluated at   0.000000,   0.000000,  -0.000000 [a0]

Properties computed using the MP2 density matrix

  Nuclear Dipole Moment: [e a0]
     X:     5.0254      Y:    -4.6604      Z:     1.4146

  Electronic Dipole Moment: [e a0]
     X:    -6.1586      Y:     3.7346      Z:    -1.2320

  Dipole Moment: [e a0]
     X:    -1.1332      Y:    -0.9257      Z:     0.1825     Total:     1.4746

  Dipole Moment: [D]
     X:    -2.8803      Y:    -2.3530      Z:     0.4639     Total:     3.7481


*** tstop() called on node58.bme.utexas.edu at Tue Feb  2 12:10:02 2021
Module time:
	user time   =     737.81 seconds =      12.30 minutes
	system time =      39.01 seconds =       0.65 minutes
	total time  =        126 seconds =       2.10 minutes
Total time:
	user time   =     989.01 seconds =      16.48 minutes
	system time =      70.96 seconds =       1.18 minutes
	total time  =        183 seconds =       3.05 minutes

    Psi4 stopped on: Tuesday, 02 February 2021 12:10PM
    Psi4 wall time for execution: 0:03:02.81

*** Psi4 exiting successfully. Buy a developer a beer!
