2778329                                                                 
Freq      RMP2-FC                                                     6-31G(d)            
Number of atoms                            I               15
Info1-9                                    I   N=           9
          27          25        1002           0           0         100
           6           2           1
Charge                                     I                0
Multiplicity                               I                1
Number of electrons                        I               66
Number of alpha electrons                  I               33
Number of beta electrons                   I               33
Number of basis functions                  I              147
Number of independent functions            I              147
Number of point charges in /Mol/           I                0
Number of translation vectors              I                0
Atomic numbers                             I   N=          15
           9           9           6           6           6           6
           6           6           6           1           1           1
           1           1           1
Nuclear charges                            R   N=          15
  9.00000000E+00  9.00000000E+00  6.00000000E+00  6.00000000E+00  6.00000000E+00
  6.00000000E+00  6.00000000E+00  6.00000000E+00  6.00000000E+00  1.00000000E+00
  1.00000000E+00  1.00000000E+00  1.00000000E+00  1.00000000E+00  1.00000000E+00
Current cartesian coordinates              R   N=          45
  2.66025154E+00  4.45390666E+00  4.62888330E-03  2.66026183E+00 -4.45390094E+00
  4.62954856E-03 -2.57982144E+00 -2.65859673E-06 -3.20416949E-02 -1.24245549E+00
 -2.28270515E+00 -1.73033434E-02 -1.24245969E+00  2.28270240E+00 -1.73024829E-02
 -5.42612455E+00 -5.23021456E-06  2.35451801E-02  1.38179990E+00  2.23092494E+00
  1.08958302E-03  1.38180434E+00 -2.23092252E+00  1.08877370E-03  2.76439664E+00
  2.46138210E-06  1.34591956E-02 -2.21074365E+00 -4.09280115E+00 -3.42844636E-02
 -2.21075052E+00  4.09279702E+00 -3.42835422E-02 -6.12710661E+00  2.32787545E-05
  1.97077021E+00 -6.18595125E+00  1.67351781E+00 -9.19948580E-01 -6.18594728E+00
 -1.67355797E+00 -9.19898822E-01  4.81304072E+00  4.02177492E-06  1.91080438E-02
Force Field                                I                0
Int Atom Types                             I   N=          15
           0           0           0           0           0           0
           0           0           0           0           0           0
           0           0           0
MM charges                                 R   N=          15
  0.00000000E+00  0.00000000E+00  0.00000000E+00  0.00000000E+00  0.00000000E+00
  0.00000000E+00  0.00000000E+00  0.00000000E+00  0.00000000E+00  0.00000000E+00
  0.00000000E+00  0.00000000E+00  0.00000000E+00  0.00000000E+00  0.00000000E+00
Integer atomic weights                     I   N=          15
          19          19          12          12          12          12
          12          12          12           1           1           1
           1           1           1
Real atomic weights                        R   N=          15
  1.89984032E+01  1.89984032E+01  1.20000000E+01  1.20000000E+01  1.20000000E+01
  1.20000000E+01  1.20000000E+01  1.20000000E+01  1.20000000E+01  1.00782504E+00
  1.00782504E+00  1.00782504E+00  1.00782504E+00  1.00782504E+00  1.00782504E+00
Atom fragment info                         I   N=          15
           0           0           0           0           0           0
           0           0           0           0           0           0
           0           0           0
Atom residue num                           I   N=          15
           0           0           0           0           0           0
           0           0           0           0           0           0
           0           0           0
Nuclear spins                              I   N=          15
           1           1           0           0           0           0
           0           0           0           1           1           1
           1           1           1
Nuclear ZEff                               R   N=          15
 -6.75000000E+00 -6.75000000E+00 -3.60000000E+00 -3.60000000E+00 -3.60000000E+00
 -3.60000000E+00 -3.60000000E+00 -3.60000000E+00 -3.60000000E+00 -1.00000000E+00
 -1.00000000E+00 -1.00000000E+00 -1.00000000E+00 -1.00000000E+00 -1.00000000E+00
Nuclear QMom                               R   N=          15
  0.00000000E+00  0.00000000E+00  0.00000000E+00  0.00000000E+00  0.00000000E+00
  0.00000000E+00  0.00000000E+00  0.00000000E+00  0.00000000E+00  0.00000000E+00
  0.00000000E+00  0.00000000E+00  0.00000000E+00  0.00000000E+00  0.00000000E+00
Nuclear GFac                               R   N=          15
  2.62886700E+00  2.62886700E+00  0.00000000E+00  0.00000000E+00  0.00000000E+00
  0.00000000E+00  0.00000000E+00  0.00000000E+00  0.00000000E+00  2.79284600E+00
  2.79284600E+00  2.79284600E+00  2.79284600E+00  2.79284600E+00  2.79284600E+00
MicOpt                                     I   N=          15
          -1          -1          -1          -1          -1          -1
          -1          -1          -1          -1          -1          -1
          -1          -1          -1
Number of contracted shells                I               48
Number of primitive shells                 I              123
Pure/Cartesian d shells                    I                1
Pure/Cartesian f shells                    I                0
Highest angular momentum                   I                2
Largest degree of contraction              I                6
Shell types                                I   N=          48
           0          -1          -1           2           0          -1
          -1           2           0          -1          -1           2
           0          -1          -1           2           0          -1
          -1           2           0          -1          -1           2
           0          -1          -1           2           0          -1
          -1           2           0          -1          -1           2
           0           0           0           0           0           0
           0           0           0           0           0           0
Number of primitives per shell             I   N=          48
           6           3           1           1           6           3
           1           1           6           3           1           1
           6           3           1           1           6           3
           1           1           6           3           1           1
           6           3           1           1           6           3
           1           1           6           3           1           1
           3           1           3           1           3           1
           3           1           3           1           3           1
Shell to atom map                          I   N=          48
           1           1           1           1           2           2
           2           2           3           3           3           3
           4           4           4           4           5           5
           5           5           6           6           6           6
           7           7           7           7           8           8
           8           8           9           9           9           9
          10          10          11          11          12          12
          13          13          14          14          15          15
Primitive exponents                        R   N=         123
  7.00171309E+03  1.05136609E+03  2.39285690E+02  6.73974453E+01  2.15199573E+01
  7.40310130E+00  2.08479528E+01  4.80830834E+00  1.34406986E+00  3.58151393E-01
  8.00000000E-01  7.00171309E+03  1.05136609E+03  2.39285690E+02  6.73974453E+01
  2.15199573E+01  7.40310130E+00  2.08479528E+01  4.80830834E+00  1.34406986E+00
  3.58151393E-01  8.00000000E-01  3.04752488E+03  4.57369518E+02  1.03948685E+02
  2.92101553E+01  9.28666296E+00  3.16392696E+00  7.86827235E+00  1.88128854E+00
  5.44249258E-01  1.68714478E-01  8.00000000E-01  3.04752488E+03  4.57369518E+02
  1.03948685E+02  2.92101553E+01  9.28666296E+00  3.16392696E+00  7.86827235E+00
  1.88128854E+00  5.44249258E-01  1.68714478E-01  8.00000000E-01  3.04752488E+03
  4.57369518E+02  1.03948685E+02  2.92101553E+01  9.28666296E+00  3.16392696E+00
  7.86827235E+00  1.88128854E+00  5.44249258E-01  1.68714478E-01  8.00000000E-01
  3.04752488E+03  4.57369518E+02  1.03948685E+02  2.92101553E+01  9.28666296E+00
  3.16392696E+00  7.86827235E+00  1.88128854E+00  5.44249258E-01  1.68714478E-01
  8.00000000E-01  3.04752488E+03  4.57369518E+02  1.03948685E+02  2.92101553E+01
  9.28666296E+00  3.16392696E+00  7.86827235E+00  1.88128854E+00  5.44249258E-01
  1.68714478E-01  8.00000000E-01  3.04752488E+03  4.57369518E+02  1.03948685E+02
  2.92101553E+01  9.28666296E+00  3.16392696E+00  7.86827235E+00  1.88128854E+00
  5.44249258E-01  1.68714478E-01  8.00000000E-01  3.04752488E+03  4.57369518E+02
  1.03948685E+02  2.92101553E+01  9.28666296E+00  3.16392696E+00  7.86827235E+00
  1.88128854E+00  5.44249258E-01  1.68714478E-01  8.00000000E-01  1.87311370E+01
  2.82539436E+00  6.40121692E-01  1.61277759E-01  1.87311370E+01  2.82539436E+00
  6.40121692E-01  1.61277759E-01  1.87311370E+01  2.82539436E+00  6.40121692E-01
  1.61277759E-01  1.87311370E+01  2.82539436E+00  6.40121692E-01  1.61277759E-01
  1.87311370E+01  2.82539436E+00  6.40121692E-01  1.61277759E-01  1.87311370E+01
  2.82539436E+00  6.40121692E-01  1.61277759E-01
Contraction coefficients                   R   N=         123
  1.81961690E-03  1.39160796E-02  6.84053245E-02  2.33185760E-01  4.71267439E-01
  3.56618546E-01 -1.08506975E-01 -1.46451658E-01  1.12868858E+00  1.00000000E+00
  1.00000000E+00  1.81961690E-03  1.39160796E-02  6.84053245E-02  2.33185760E-01
  4.71267439E-01  3.56618546E-01 -1.08506975E-01 -1.46451658E-01  1.12868858E+00
  1.00000000E+00  1.00000000E+00  1.83473713E-03  1.40373228E-02  6.88426223E-02
  2.32184443E-01  4.67941348E-01  3.62311985E-01 -1.19332420E-01 -1.60854152E-01
  1.14345644E+00  1.00000000E+00  1.00000000E+00  1.83473713E-03  1.40373228E-02
  6.88426223E-02  2.32184443E-01  4.67941348E-01  3.62311985E-01 -1.19332420E-01
 -1.60854152E-01  1.14345644E+00  1.00000000E+00  1.00000000E+00  1.83473713E-03
  1.40373228E-02  6.88426223E-02  2.32184443E-01  4.67941348E-01  3.62311985E-01
 -1.19332420E-01 -1.60854152E-01  1.14345644E+00  1.00000000E+00  1.00000000E+00
  1.83473713E-03  1.40373228E-02  6.88426223E-02  2.32184443E-01  4.67941348E-01
  3.62311985E-01 -1.19332420E-01 -1.60854152E-01  1.14345644E+00  1.00000000E+00
  1.00000000E+00  1.83473713E-03  1.40373228E-02  6.88426223E-02  2.32184443E-01
  4.67941348E-01  3.62311985E-01 -1.19332420E-01 -1.60854152E-01  1.14345644E+00
  1.00000000E+00  1.00000000E+00  1.83473713E-03  1.40373228E-02  6.88426223E-02
  2.32184443E-01  4.67941348E-01  3.62311985E-01 -1.19332420E-01 -1.60854152E-01
  1.14345644E+00  1.00000000E+00  1.00000000E+00  1.83473713E-03  1.40373228E-02
  6.88426223E-02  2.32184443E-01  4.67941348E-01  3.62311985E-01 -1.19332420E-01
 -1.60854152E-01  1.14345644E+00  1.00000000E+00  1.00000000E+00  3.34946043E-02
  2.34726953E-01  8.13757326E-01  1.00000000E+00  3.34946043E-02  2.34726953E-01
  8.13757326E-01  1.00000000E+00  3.34946043E-02  2.34726953E-01  8.13757326E-01
  1.00000000E+00  3.34946043E-02  2.34726953E-01  8.13757326E-01  1.00000000E+00
  3.34946043E-02  2.34726953E-01  8.13757326E-01  1.00000000E+00  3.34946043E-02
  2.34726953E-01  8.13757326E-01  1.00000000E+00
P(S=P) Contraction coefficients            R   N=         123
  0.00000000E+00  0.00000000E+00  0.00000000E+00  0.00000000E+00  0.00000000E+00
  0.00000000E+00  7.16287242E-02  3.45912103E-01  7.22469956E-01  1.00000000E+00
  0.00000000E+00  0.00000000E+00  0.00000000E+00  0.00000000E+00  0.00000000E+00
  0.00000000E+00  0.00000000E+00  7.16287242E-02  3.45912103E-01  7.22469956E-01
  1.00000000E+00  0.00000000E+00  0.00000000E+00  0.00000000E+00  0.00000000E+00
  0.00000000E+00  0.00000000E+00  0.00000000E+00  6.89990666E-02  3.16423961E-01
  7.44308291E-01  1.00000000E+00  0.00000000E+00  0.00000000E+00  0.00000000E+00
  0.00000000E+00  0.00000000E+00  0.00000000E+00  0.00000000E+00  6.89990666E-02
  3.16423961E-01  7.44308291E-01  1.00000000E+00  0.00000000E+00  0.00000000E+00
  0.00000000E+00  0.00000000E+00  0.00000000E+00  0.00000000E+00  0.00000000E+00
  6.89990666E-02  3.16423961E-01  7.44308291E-01  1.00000000E+00  0.00000000E+00
  0.00000000E+00  0.00000000E+00  0.00000000E+00  0.00000000E+00  0.00000000E+00
  0.00000000E+00  6.89990666E-02  3.16423961E-01  7.44308291E-01  1.00000000E+00
  0.00000000E+00  0.00000000E+00  0.00000000E+00  0.00000000E+00  0.00000000E+00
  0.00000000E+00  0.00000000E+00  6.89990666E-02  3.16423961E-01  7.44308291E-01
  1.00000000E+00  0.00000000E+00  0.00000000E+00  0.00000000E+00  0.00000000E+00
  0.00000000E+00  0.00000000E+00  0.00000000E+00  6.89990666E-02  3.16423961E-01
  7.44308291E-01  1.00000000E+00  0.00000000E+00  0.00000000E+00  0.00000000E+00
  0.00000000E+00  0.00000000E+00  0.00000000E+00  0.00000000E+00  6.89990666E-02
  3.16423961E-01  7.44308291E-01  1.00000000E+00  0.00000000E+00  0.00000000E+00
  0.00000000E+00  0.00000000E+00  0.00000000E+00  0.00000000E+00  0.00000000E+00
  0.00000000E+00  0.00000000E+00  0.00000000E+00  0.00000000E+00  0.00000000E+00
  0.00000000E+00  0.00000000E+00  0.00000000E+00  0.00000000E+00  0.00000000E+00
  0.00000000E+00  0.00000000E+00  0.00000000E+00  0.00000000E+00  0.00000000E+00
  0.00000000E+00  0.00000000E+00  0.00000000E+00
Coordinates of each shell                  R   N=         144
  2.66025154E+00  4.45390666E+00  4.62888330E-03  2.66025154E+00  4.45390666E+00
  4.62888330E-03  2.66025154E+00  4.45390666E+00  4.62888330E-03  2.66025154E+00
  4.45390666E+00  4.62888330E-03  2.66026183E+00 -4.45390094E+00  4.62954856E-03
  2.66026183E+00 -4.45390094E+00  4.62954856E-03  2.66026183E+00 -4.45390094E+00
  4.62954856E-03  2.66026183E+00 -4.45390094E+00  4.62954856E-03 -2.57982144E+00
 -2.65859673E-06 -3.20416949E-02 -2.57982144E+00 -2.65859673E-06 -3.20416949E-02
 -2.57982144E+00 -2.65859673E-06 -3.20416949E-02 -2.57982144E+00 -2.65859673E-06
 -3.20416949E-02 -1.24245549E+00 -2.28270515E+00 -1.73033434E-02 -1.24245549E+00
 -2.28270515E+00 -1.73033434E-02 -1.24245549E+00 -2.28270515E+00 -1.73033434E-02
 -1.24245549E+00 -2.28270515E+00 -1.73033434E-02 -1.24245969E+00  2.28270240E+00
 -1.73024829E-02 -1.24245969E+00  2.28270240E+00 -1.73024829E-02 -1.24245969E+00
  2.28270240E+00 -1.73024829E-02 -1.24245969E+00  2.28270240E+00 -1.73024829E-02
 -5.42612455E+00 -5.23021456E-06  2.35451801E-02 -5.42612455E+00 -5.23021456E-06
  2.35451801E-02 -5.42612455E+00 -5.23021456E-06  2.35451801E-02 -5.42612455E+00
 -5.23021456E-06  2.35451801E-02  1.38179990E+00  2.23092494E+00  1.08958302E-03
  1.38179990E+00  2.23092494E+00  1.08958302E-03  1.38179990E+00  2.23092494E+00
  1.08958302E-03  1.38179990E+00  2.23092494E+00  1.08958302E-03  1.38180434E+00
 -2.23092252E+00  1.08877370E-03  1.38180434E+00 -2.23092252E+00  1.08877370E-03
  1.38180434E+00 -2.23092252E+00  1.08877370E-03  1.38180434E+00 -2.23092252E+00
  1.08877370E-03  2.76439664E+00  2.46138210E-06  1.34591956E-02  2.76439664E+00
  2.46138210E-06  1.34591956E-02  2.76439664E+00  2.46138210E-06  1.34591956E-02
  2.76439664E+00  2.46138210E-06  1.34591956E-02 -2.21074365E+00 -4.09280115E+00
 -3.42844636E-02 -2.21074365E+00 -4.09280115E+00 -3.42844636E-02 -2.21075052E+00
  4.09279702E+00 -3.42835422E-02 -2.21075052E+00  4.09279702E+00 -3.42835422E-02
 -6.12710661E+00  2.32787545E-05  1.97077021E+00 -6.12710661E+00  2.32787545E-05
  1.97077021E+00 -6.18595125E+00  1.67351781E+00 -9.19948580E-01 -6.18595125E+00
  1.67351781E+00 -9.19948580E-01 -6.18594728E+00 -1.67355797E+00 -9.19898822E-01
 -6.18594728E+00 -1.67355797E+00 -9.19898822E-01  4.81304072E+00  4.02177492E-06
  1.91080438E-02  4.81304072E+00  4.02177492E-06  1.91080438E-02
Constraint Structure                       R   N=          45
  2.66025154E+00  4.45390666E+00  4.62888330E-03  2.66026183E+00 -4.45390094E+00
  4.62954856E-03 -2.57982144E+00 -2.65859673E-06 -3.20416949E-02 -1.24245549E+00
 -2.28270515E+00 -1.73033434E-02 -1.24245969E+00  2.28270240E+00 -1.73024829E-02
 -5.42612455E+00 -5.23021456E-06  2.35451801E-02  1.38179990E+00  2.23092494E+00
  1.08958302E-03  1.38180434E+00 -2.23092252E+00  1.08877370E-03  2.76439664E+00
  2.46138210E-06  1.34591956E-02 -2.21074365E+00 -4.09280115E+00 -3.42844636E-02
 -2.21075052E+00  4.09279702E+00 -3.42835422E-02 -6.12710661E+00  2.32787545E-05
  1.97077021E+00 -6.18595125E+00  1.67351781E+00 -9.19948580E-01 -6.18594728E+00
 -1.67355797E+00 -9.19898822E-01  4.81304072E+00  4.02177492E-06  1.91080438E-02
Num ILSW                                   I              100
ILSW                                       I   N=         100
           0           1           0           0           2           0
           0           0           0           0           0          -1
           0           0           0           0           0           0
           0           0           0           0           1           0
           1           0           0           0           0           0
           0           0      100000           0          -1           0
           0           0           0           0           0           0
           0           0           0           1           1           0
           0           0           1           0           0           0
           0           0           4          40           0           0
           0           0           0           0           0           0
           0           0           0           0           0           0
           0           0           0           0           0           0
           0           0           0           0           0           0
           0           0           0           0           0           0
           0           0           0           0           0           0
           0           0           0           0
Num RLSW                                   I               40
RLSW                                       R   N=          40
  1.00000000E+00  1.00000000E+00  1.00000000E+00  1.00000000E+00  1.00000000E+00
  0.00000000E+00  0.00000000E+00  1.00000000E+00  0.00000000E+00  0.00000000E+00
  0.00000000E+00  0.00000000E+00  1.00000000E+00  0.00000000E+00  0.00000000E+00
  0.00000000E+00  0.00000000E+00  1.00000000E+00  0.00000000E+00  0.00000000E+00
  0.00000000E+00  0.00000000E+00  1.00000000E+00  0.00000000E+00  0.00000000E+00
  0.00000000E+00  0.00000000E+00  1.00000000E+00  0.00000000E+00  0.00000000E+00
  0.00000000E+00  0.00000000E+00  0.00000000E+00  0.00000000E+00  0.00000000E+00
  0.00000000E+00  0.00000000E+00  0.00000000E+00  1.00000000E+00  1.00000000E+00
MxBond                                     I                4
NBond                                      I   N=          15
           1           1           3           3           3           4
           3           3           3           1           1           1
           1           1           1
IBond                                      I   N=          60
           7           0           0           0           8           0
           0           0           4           5           6           0
           3           8          10           0           3           7
          11           0           3          12          13          14
           1           5           9           0           2           4
           9           0           7           8          15           0
           4           0           0           0           5           0
           0           0           6           0           0           0
           6           0           0           0           6           0
           0           0           9           0           0           0
RBond                                      R   N=          60
  1.00000000E+00  0.00000000E+00  0.00000000E+00  0.00000000E+00  1.00000000E+00
  0.00000000E+00  0.00000000E+00  0.00000000E+00  1.50000000E+00  1.50000000E+00
  1.00000000E+00  0.00000000E+00  1.50000000E+00  1.50000000E+00  1.00000000E+00
  0.00000000E+00  1.50000000E+00  1.50000000E+00  1.00000000E+00  0.00000000E+00
  1.00000000E+00  1.00000000E+00  1.00000000E+00  1.00000000E+00  1.00000000E+00
  1.50000000E+00  1.50000000E+00  0.00000000E+00  1.00000000E+00  1.50000000E+00
  1.50000000E+00  0.00000000E+00  1.50000000E+00  1.50000000E+00  1.00000000E+00
  0.00000000E+00  1.00000000E+00  0.00000000E+00  0.00000000E+00  0.00000000E+00
  1.00000000E+00  0.00000000E+00  0.00000000E+00  0.00000000E+00  1.00000000E+00
  0.00000000E+00  0.00000000E+00  0.00000000E+00  1.00000000E+00  0.00000000E+00
  0.00000000E+00  0.00000000E+00  1.00000000E+00  0.00000000E+00  0.00000000E+00
  0.00000000E+00  1.00000000E+00  0.00000000E+00  0.00000000E+00  0.00000000E+00
Virial Ratio                               R      2.002175204034341E+00
SCF Energy                                 R     -4.674406019574130E+02
MP2 Energy                                 R     -4.686663333803610E+02
Total Energy                               R     -4.686663333803610E+02
Post-SCF wavefunction norm                 R      1.669188169606632E+00
RMS Force                                  R      1.227493798465891E-07
RMS Density                                R      4.959187678479144E-10
External E-field                           R   N=          35
  0.00000000E+00  0.00000000E+00  0.00000000E+00  0.00000000E+00  0.00000000E+00
  0.00000000E+00  0.00000000E+00  0.00000000E+00  0.00000000E+00  0.00000000E+00
  0.00000000E+00  0.00000000E+00  0.00000000E+00  0.00000000E+00  0.00000000E+00
  0.00000000E+00  0.00000000E+00  0.00000000E+00  0.00000000E+00  0.00000000E+00
  0.00000000E+00  0.00000000E+00  0.00000000E+00  0.00000000E+00  0.00000000E+00
  0.00000000E+00  0.00000000E+00  0.00000000E+00  0.00000000E+00  0.00000000E+00
  0.00000000E+00  0.00000000E+00  0.00000000E+00  0.00000000E+00  0.00000000E+00
IOpCl                                      I                0
IROHF                                      I                0
Alpha Orbital Energies                     R   N=         147
 -2.63140020E+01 -2.63140018E+01 -1.13440347E+01 -1.13440291E+01 -1.12730297E+01
 -1.12494608E+01 -1.12455316E+01 -1.12454980E+01 -1.12409419E+01 -1.62077380E+00
 -1.62019507E+00 -1.17639351E+00 -1.06731983E+00 -1.02836629E+00 -9.60369283E-01
 -8.56486503E-01 -8.38223855E-01 -7.46404347E-01 -7.32721676E-01 -6.94152898E-01
 -6.92041580E-01 -6.83726744E-01 -6.80062922E-01 -6.52561680E-01 -5.96502412E-01
 -5.95211822E-01 -5.90242106E-01 -5.51019196E-01 -5.37338958E-01 -5.19802420E-01
 -4.96291531E-01 -3.45343188E-01 -3.43606943E-01  1.25641705E-01  1.39992616E-01
  2.27390302E-01  2.58579049E-01  2.79082654E-01  2.95860950E-01  3.11919005E-01
  3.22246666E-01  3.37271299E-01  3.76266585E-01  3.79781222E-01  4.16976599E-01
  4.62047144E-01  4.86539882E-01  5.80538749E-01  5.93534408E-01  6.10886068E-01
  6.73262856E-01  7.07883119E-01  7.19359522E-01  7.50432995E-01  7.67270002E-01
  7.76202788E-01  7.97041873E-01  8.16281131E-01  8.24682015E-01  8.58258340E-01
  8.73424686E-01  8.79059377E-01  9.22618249E-01  9.41682113E-01  9.42622161E-01
  9.92752676E-01  1.01105488E+00  1.04446997E+00  1.06420406E+00  1.09347886E+00
  1.11043973E+00  1.13836244E+00  1.16451310E+00  1.16532695E+00  1.16859484E+00
  1.19811556E+00  1.22066476E+00  1.30369985E+00  1.31938938E+00  1.37445567E+00
  1.41817159E+00  1.45312253E+00  1.47122504E+00  1.47508087E+00  1.49441365E+00
  1.55149342E+00  1.57283509E+00  1.64484651E+00  1.64559143E+00  1.67695855E+00
  1.70621485E+00  1.71176327E+00  1.71423520E+00  1.72622608E+00  1.73742862E+00
  1.80984687E+00  1.99073846E+00  2.02150275E+00  2.05545880E+00  2.11901719E+00
  2.11967079E+00  2.13235758E+00  2.13894232E+00  2.16570335E+00  2.18206903E+00
  2.18412475E+00  2.21620409E+00  2.23805106E+00  2.24461796E+00  2.27551083E+00
  2.29670661E+00  2.32353710E+00  2.38913804E+00  2.39106385E+00  2.43678385E+00
  2.50790029E+00  2.51942582E+00  2.54582855E+00  2.57003725E+00  2.62179724E+00
  2.64585239E+00  2.68434155E+00  2.69647293E+00  2.74662727E+00  2.79293215E+00
  2.84369595E+00  2.89772861E+00  2.90133107E+00  2.99535436E+00  3.02225376E+00
  3.06165568E+00  3.13287148E+00  3.21461398E+00  3.39339532E+00  3.42317571E+00
  3.48230634E+00  3.55168667E+00  3.79579491E+00  4.49532291E+00  4.49680758E+00
  4.51570018E+00  4.64354238E+00  4.72806701E+00  4.78336586E+00  5.00032228E+00
  5.54375606E+00  5.85223931E+00
Alpha MO coefficients                      R   N=       21609
  7.05688260E-01  1.26587173E-02 -3.27134292E-04 -5.70405109E-04 -9.58545846E-07
  5.54484387E-03  2.40548800E-04  4.32851568E-04  5.27639076E-07 -3.26463683E-03
 -3.46099442E-03 -3.19467019E-03 -1.93342680E-04 -9.56581711E-08 -5.57640504E-07
 -7.00656321E-01 -1.25688788E-02  3.24795108E-04 -5.66341465E-04  9.52236759E-07
 -5.50344672E-03 -2.38840510E-04  4.29979889E-04 -5.23976818E-07  3.24104410E-03
  3.43602921E-03  3.17166657E-03 -1.91973977E-04  9.43619087E-08 -5.54126675E-07
 -1.38731414E-08 -1.26804542E-07 -3.75789125E-08  1.83222851E-05 -4.89643480E-10
  1.34021891E-06  1.77756384E-06 -2.32542376E-04  2.62687530E-08  1.95126403E-08
  1.35997733E-07 -2.79434650E-08  2.89466921E-06  4.04814065E-10 -1.76853667E-08
 -6.15771920E-07 -5.27389726E-05  5.36551609E-06 -5.57642074E-06 -1.07916912E-07
 -1.37529509E-04  1.85919999E-04 -1.07682150E-04  1.97527575E-06  6.03464305E-05
  2.02715013E-05  3.39496696E-06 -1.92321452E-05  3.86107774E-07 -4.14183691E-08
  6.73017747E-07  5.34860934E-05 -5.44036624E-06 -5.57028061E-06  1.09009227E-07
  1.32400387E-04 -1.88680496E-04 -1.05733770E-04 -2.00387335E-06 -6.08973335E-05
 -2.04927424E-05 -3.31459786E-06 -1.94308145E-05 -3.90542414E-07 -4.23963216E-08
  8.84086063E-09  1.72971192E-08  5.78413508E-08  5.81275787E-06  9.29144089E-09
  6.33668592E-07  2.19858625E-07  9.18481079E-06 -8.32067655E-08  2.56989850E-08
  1.28094845E-08  3.30558150E-08  3.81838887E-06 -4.21760575E-10  4.84174466E-07
 -8.37218452E-06  1.73864031E-04  1.87252743E-04  3.44492608E-04  3.81759748E-07
  3.55751877E-04  1.35179656E-04 -1.66244109E-05  1.43727680E-06  6.84651478E-05
  1.84583221E-04 -4.66555011E-05  1.17780701E-04  5.64513272E-07  2.07209528E-07
  8.26722114E-06 -1.72910378E-04 -1.85798637E-04  3.42096929E-04 -3.78220641E-07
 -3.50276579E-04 -1.37274838E-04 -1.46451038E-05 -1.44390883E-06 -6.78246447E-05
 -1.83224094E-04  4.62397329E-05  1.17076543E-04 -5.58535818E-07  2.07504744E-07
  2.95882039E-08  5.52475118E-07  2.28149818E-08 -1.86703508E-05  7.53383976E-10
 -2.01376518E-06  1.48538460E-06 -4.36626264E-04  8.73321480E-09 -1.32878775E-07
 -5.35720030E-07  2.30865230E-08  2.27399213E-05 -1.50314092E-09  4.30656520E-07
 -1.46795246E-05  4.20697461E-05  1.47373172E-05 -4.30736999E-05 -4.49399432E-09
  5.17883573E-08  2.22443516E-06 -2.51153348E-06 -2.23873006E-06  2.41987473E-06
  6.76459334E-08 -6.18402789E-07  7.00645748E-01  1.25088804E-02 -3.25932003E-04
 -5.65690320E-04 -9.45543548E-07  5.76503198E-03  2.38020474E-04  3.99657067E-04
  5.54872144E-07 -3.28532072E-03 -3.47616143E-03 -3.20312248E-03 -1.90658500E-04
 -1.98336461E-07 -5.22087444E-07  7.05677762E-01  1.25991469E-02 -3.28266227E-04
  5.69756773E-04 -9.52854328E-07  5.80456316E-03  2.39736752E-04 -4.02743818E-04
  5.58898155E-07 -3.30859935E-03 -3.50083858E-03 -3.22590166E-03  1.92037780E-04
 -1.99150469E-07  5.26294321E-07 -3.87593520E-06 -3.54286975E-05 -1.05016487E-05
 -6.55845625E-08 -1.41032744E-07  3.74484928E-04  4.96712145E-04  8.33594021E-07
  7.37416264E-06  5.45231732E-06  3.79998606E-05 -7.80729755E-06 -1.03496925E-08
  1.12776930E-07  7.88619576E-11  8.00217369E-06  1.04577362E-04 -1.04726774E-05
 -8.45195124E-07  1.54791939E-07 -7.16136746E-04 -3.86378458E-04 -2.71909987E-04
 -4.01913905E-06 -7.71915226E-05 -3.09676501E-05  1.12240992E-05  2.78088749E-05
 -6.24653649E-07  1.37461869E-07  7.99756833E-06  1.04197461E-04 -1.04340620E-05
  8.85020232E-07  1.54017744E-07 -7.17105029E-04 -3.85038810E-04  2.72673683E-04
 -4.00477819E-06 -7.67577648E-05 -3.08219954E-05  1.12480845E-05 -2.76707406E-05
 -6.21860973E-07 -1.37163425E-07  2.46635799E-06  4.81318475E-06  1.61667293E-05
 -2.06619041E-08  2.59798836E-06  1.77198576E-04  6.14487668E-05 -3.38526296E-08
 -2.32692536E-05  7.17733044E-06  3.56756570E-06  9.24079277E-06 -1.36738415E-08
 -1.18568149E-07 -1.73121578E-09 -1.46374264E-05  1.32636321E-04  2.02655616E-04
  3.33470343E-04  5.22946617E-07  7.63801720E-04 -2.93154222E-04 -2.76602550E-04
 -9.06248405E-07  8.93318968E-05  1.89205564E-04 -5.79303526E-05  9.80264563E-05
  8.46853758E-07 -2.17500259E-08 -1.46969574E-05  1.33877108E-04  2.03991310E-04
 -3.35926471E-04  5.25906572E-07  7.66327718E-04 -2.92178576E-04  2.76713894E-04
 -8.95869828E-07  8.98199840E-05  1.90521194E-04 -5.82627147E-05 -9.88671302E-05
  8.50972182E-07  2.01397994E-08  8.26754335E-06  1.54423917E-04  6.37117719E-06
  6.68531964E-08  2.12961759E-07 -5.62913392E-04  4.15027993E-04  1.56321435E-06
  2.43215085E-06 -3.71398956E-05 -1.49768397E-04  6.44115154E-06 -8.12251567E-08
 -4.20261819E-07 -1.54186623E-09  8.11993861E-06 -1.40405010E-04  8.01477331E-06
 -1.40100740E-04 -1.27872317E-06  1.44779843E-05 -2.01064297E-06 -1.28312602E-05
 -1.99470479E-06 -1.28499035E-05  1.89247866E-05 -1.72869551E-04  1.46557010E-04
  1.53460227E-03 -1.79970457E-04 -2.76804336E-04 -8.99745043E-07 -4.93830246E-03
  1.00815945E-03  1.53192215E-03  4.31618534E-06  7.44079384E-04  2.32714170E-04