
    -----------------------------------------------------------------------
          Psi4: An Open-Source Ab Initio Electronic Structure Package
                               Psi4 1.3.2 release

                         Git: Rev {HEAD} ecbda83 


    R. M. Parrish, L. A. Burns, D. G. A. Smith, A. C. Simmonett,
    A. E. DePrince III, E. G. Hohenstein, U. Bozkaya, A. Yu. Sokolov,
    R. Di Remigio, R. M. Richard, J. F. Gonthier, A. M. James,
    H. R. McAlexander, A. Kumar, M. Saitow, X. Wang, B. P. Pritchard,
    P. Verma, H. F. Schaefer III, K. Patkowski, R. A. King, E. F. Valeev,
    F. A. Evangelista, J. M. Turney, T. D. Crawford, and C. D. Sherrill,
    J. Chem. Theory Comput. 13(7) pp 3185--3197 (2017).
    (doi: 10.1021/acs.jctc.7b00174)


                         Additional Contributions by
    P. Kraus, H. Kruse, M. H. Lechner, M. C. Schieber, R. A. Shaw,
    A. Alenaizan, R. Galvelis, Z. L. Glick, S. Lehtola, and J. P. Misiewicz

    -----------------------------------------------------------------------


    Psi4 started on: Saturday, 27 March 2021 09:42PM

    Process ID: 33504
    Host:       node144.bme.utexas.edu
    PSIDATADIR: /home/xy3866/psi4conda/share/psi4
    Memory:     500.0 MiB
    Threads:    8
    
  ==> Input File <==

--------------------------------------------------------------------------
#psi4
#
memory 32 gb

molecule  {
0 1
  O        2.4005690    -0.7555910     0.0000930
  O       -3.4134850     0.7931250     0.0001120
  O        1.6118980     1.3746640    -0.0001560
  O       -2.6294380    -1.3322590    -0.0001410
  C        0.0590518    -0.4957858     0.2000270
  C       -1.0635090     0.5281750     0.0000410
  C        1.4119940     0.1700650    -0.0000220
  C       -2.4159880    -0.1313140    -0.0000070
  C        3.7306770    -0.1974070     0.0000330
  H       -0.0086930    -1.1555200     0.8707660
  H       -0.0087430    -1.1555360    -0.8706970
  H       -0.9969410     1.1888870    -0.8701370
  H       -0.9969750     1.1888400     0.8702580
  H        4.3972900    -1.0573420     0.0001120
  H        3.8858800     0.4149390     0.8894490
  H        3.8858720     0.4147700    -0.8895010
  H       -4.2474240     0.2791820     0.0000590
units angstrom
no_reorient  #important for SAPT in psi4, default
symmetry c1  #important for SAPT in psi4, default
}

set PROPERTIES_ORIGIN ["COM"]
properties('MP2/aug-cc-pvtz', properties = ['dipole'])
--------------------------------------------------------------------------

  Memory set to  29.802 GiB by Python driver.
    SCF Algorithm Type (re)set to DF.

*** tstart() called on node144.bme.utexas.edu
*** at Sat Mar 27 21:42:18 2021

   => Loading Basis Set <=

    Name: AUG-CC-PVTZ
    Role: ORBITAL
    Keyword: BASIS
    atoms 1-4   entry O          line   327 file /home/xy3866/psi4conda/share/psi4/basis/aug-cc-pvtz.gbs 
    atoms 5-9   entry C          line   235 file /home/xy3866/psi4conda/share/psi4/basis/aug-cc-pvtz.gbs 
    atoms 10-17 entry H          line    36 file /home/xy3866/psi4conda/share/psi4/basis/aug-cc-pvtz.gbs 


         ---------------------------------------------------------
                                   SCF
               by Justin Turney, Rob Parrish, Andy Simmonett
                          and Daniel G. A. Smith
                              RHF Reference
                        8 Threads,  30517 MiB Core
         ---------------------------------------------------------

  ==> Geometry <==

    Molecular point group: c1
    Full point group: C1

    Geometry (in Angstrom), charge = 0, multiplicity = 1:

       Center              X                  Y                   Z               Mass       
    ------------   -----------------  -----------------  -----------------  -----------------
         O            2.444901373536    -0.754701595002    -0.018080756711    15.994914619570
         O           -3.369152626464     0.794014404998    -0.018061756711    15.994914619570
         O            1.656230373536     1.375553404998    -0.018329756711    15.994914619570
         O           -2.585105626464    -1.331369595002    -0.018314756711    15.994914619570
         C            0.103384173536    -0.494896395002     0.181853243289    12.000000000000
         C           -1.019176626464     0.529064404998    -0.018132756711    12.000000000000
         C            1.456326373536     0.170954404998    -0.018195756711    12.000000000000
         C           -2.371655626464    -0.130424595002    -0.018180756711    12.000000000000
         C            3.775009373536    -0.196517595002    -0.018140756711    12.000000000000
         H            0.035639373536    -1.154630595002     0.852592243289     1.007825032230
         H            0.035589373536    -1.154646595002    -0.888870756711     1.007825032230
         H           -0.952608626464     1.189776404998    -0.888310756711     1.007825032230
         H           -0.952642626464     1.189729404998     0.852084243289     1.007825032230
         H            4.441622373536    -1.056452595002    -0.018061756711     1.007825032230
         H            3.930212373536     0.415828404998     0.871275243289     1.007825032230
         H            3.930204373536     0.415659404998    -0.907674756711     1.007825032230
         H           -4.203091626464     0.280071404998    -0.018114756711     1.007825032230

  Running in c1 symmetry.

  Rotational constants: A =      0.17331  B =      0.02161  C =      0.01944 [cm^-1]
  Rotational constants: A =   5195.62061  B =    647.71877  C =    582.65290 [MHz]
  Nuclear repulsion =  445.004565119289168

  Charge       = 0
  Multiplicity = 1
  Electrons    = 70
  Nalpha       = 35
  Nbeta        = 35

  ==> Algorithm <==

  SCF Algorithm Type is DF.
  DIIS enabled.
  MOM disabled.
  Fractional occupation disabled.
  Guess Type is SAD.
  Energy threshold   = 1.00e-10
  Density threshold  = 1.00e-10
  Integral threshold = 0.00e+00

  ==> Primary Basis <==

  Basis Set: AUG-CC-PVTZ
    Blend: AUG-CC-PVTZ
    Number of shells: 198
    Number of basis function: 598
    Number of Cartesian functions: 695
    Spherical Harmonics?: true
    Max angular momentum: 3

   => Loading Basis Set <=

    Name: (AUG-CC-PVTZ AUX)
    Role: JKFIT
    Keyword: DF_BASIS_SCF
    atoms 1-4   entry O          line   286 file /home/xy3866/psi4conda/share/psi4/basis/aug-cc-pvtz-jkfit.gbs 
    atoms 5-9   entry C          line   162 file /home/xy3866/psi4conda/share/psi4/basis/aug-cc-pvtz-jkfit.gbs 
    atoms 10-17 entry H          line    70 file /home/xy3866/psi4conda/share/psi4/basis/aug-cc-pvtz-jkfit.gbs 

  ==> Pre-Iterations <==

   -------------------------------------------------------
    Irrep   Nso     Nmo     Nalpha   Nbeta   Ndocc  Nsocc
   -------------------------------------------------------
     A        598     598       0       0       0       0
   -------------------------------------------------------
    Total     598     598      35      35      35       0
   -------------------------------------------------------

  ==> Integral Setup <==

  DFHelper Memory: AOs need 3.226 GiB; user supplied 22.352 GiB. Using in-core AOs.

  ==> MemDFJK: Density-Fitted J/K Matrices <==

    J tasked:                   Yes
    K tasked:                   Yes
    wK tasked:                   No
    OpenMP threads:               8
    Memory [MiB]:             22888
    Algorithm:                 Disk
    Schwarz Cutoff:           1E-12
    Mask sparsity (%):      10.1884
    Fitting Condition:        1E-10

   => Auxiliary Basis Set <=

  Basis Set: (AUG-CC-PVTZ AUX)
    Blend: AUG-CC-PVTZ-JKFIT
    Number of shells: 382
    Number of basis function: 1304
    Number of Cartesian functions: 1619
    Spherical Harmonics?: true
    Max angular momentum: 4

  Minimum eigenvalue in the overlap matrix is 4.1603720224E-06.
  Using Symmetric Orthogonalization.

  SCF Guess: Superposition of Atomic Densities via on-the-fly atomic UHF.

  ==> Iterations <==

                           Total Energy        Delta E     RMS |[F,P]|

   @DF-RHF iter SAD:  -492.25444659397294   -4.92254e+02   0.00000e+00 
   @DF-RHF iter   1:  -493.33048272087098   -1.07604e+00   1.34857e-03 DIIS
   @DF-RHF iter   2:  -493.54685769542658   -2.16375e-01   8.30984e-04 DIIS
   @DF-RHF iter   3:  -493.62741949092759   -8.05618e-02   1.46636e-04 DIIS
   @DF-RHF iter   4:  -493.63230464697341   -4.88516e-03   6.38718e-05 DIIS
   @DF-RHF iter   5:  -493.63322772739855   -9.23080e-04   1.55850e-05 DIIS
   @DF-RHF iter   6:  -493.63331799528777   -9.02679e-05   7.34317e-06 DIIS
   @DF-RHF iter   7:  -493.63333805672079   -2.00614e-05   2.71496e-06 DIIS
   @DF-RHF iter   8:  -493.63334173423937   -3.67752e-06   1.08839e-06 DIIS
   @DF-RHF iter   9:  -493.63334231508793   -5.80849e-07   3.48005e-07 DIIS
   @DF-RHF iter  10:  -493.63334236132022   -4.62323e-08   1.34661e-07 DIIS
   @DF-RHF iter  11:  -493.63334236576759   -4.44737e-09   4.23248e-08 DIIS
   @DF-RHF iter  12:  -493.63334236623137   -4.63785e-10   1.22786e-08 DIIS
   @DF-RHF iter  13:  -493.63334236627759   -4.62137e-11   3.76384e-09 DIIS
   @DF-RHF iter  14:  -493.63334236628197   -4.37694e-12   1.52093e-09 DIIS
   @DF-RHF iter  15:  -493.63334236628293   -9.66338e-13   6.17441e-10 DIIS
   @DF-RHF iter  16:  -493.63334236628225    6.82121e-13   2.45601e-10 DIIS
   @DF-RHF iter  17:  -493.63334236628026    1.98952e-12   8.84669e-11 DIIS
  Energy and wave function converged.


  ==> Post-Iterations <==

    Orbital Energies [Eh]
    ---------------------

    Doubly Occupied:                                                      

       1A    -20.621407     2A    -20.611738     3A    -20.559491  
       4A    -20.555118     5A    -11.397777     6A    -11.393265  
       7A    -11.290463     8A    -11.261701     9A    -11.261049  
      10A     -1.466252    11A     -1.461912    12A     -1.363832  
      13A     -1.361773    14A     -1.096958    15A     -0.998648  
      16A     -0.934837    17A     -0.814420    18A     -0.780519  
      19A     -0.732432    20A     -0.710928    21A     -0.686889  
      22A     -0.679261    23A     -0.671910    24A     -0.657637  
      25A     -0.614517    26A     -0.599934    27A     -0.574010  
      28A     -0.562756    29A     -0.543488    30A     -0.532513  
      31A     -0.489492    32A     -0.483451    33A     -0.470435  
      34A     -0.463245    35A     -0.452149  

    Virtual:                                                              

      36A      0.027251    37A      0.031388    38A      0.039098  
      39A      0.043164    40A      0.044907    41A      0.056538  
      42A      0.057522    43A      0.063194    44A      0.082638  
      45A      0.098036    46A      0.099762    47A      0.104249  
      48A      0.113195    49A      0.120684    50A      0.123449  
      51A      0.126386    52A      0.127407    53A      0.133529  
      54A      0.134830    55A      0.143103    56A      0.144266  
      57A      0.154320    58A      0.155704    59A      0.160568  
      60A      0.167092    61A      0.173665    62A      0.182022  
      63A      0.190043    64A      0.194188    65A      0.199650  
      66A      0.208017    67A      0.215242    68A      0.220573  
      69A      0.229702    70A      0.235918    71A      0.241378  
      72A      0.249077    73A      0.256525    74A      0.258069  
      75A      0.264732    76A      0.269078    77A      0.274379  
      78A      0.280384    79A      0.287097    80A      0.299680  
      81A      0.304094    82A      0.305624    83A      0.313118  
      84A      0.317287    85A      0.323774    86A      0.328915  
      87A      0.338125    88A      0.345735    89A      0.347434  
      90A      0.351819    91A      0.358143    92A      0.362428  
      93A      0.372134    94A      0.375153    95A      0.379454  
      96A      0.381671    97A      0.385295    98A      0.387813  
      99A      0.397427   100A      0.399953   101A      0.402907  
     102A      0.406523   103A      0.414054   104A      0.421460  
     105A      0.426524   106A      0.429752   107A      0.435878  
     108A      0.442460   109A      0.448162   110A      0.452749  
     111A      0.460009   112A      0.464911   113A      0.470380  
     114A      0.475557   115A      0.479888   116A      0.489533  
     117A      0.500953   118A      0.501887   119A      0.507758  
     120A      0.521199   121A      0.528905   122A      0.529313  
     123A      0.537626   124A      0.538686   125A      0.546797  
     126A      0.551544   127A      0.553117   128A      0.566434  
     129A      0.568875   130A      0.582654   131A      0.583514  
     132A      0.589085   133A      0.601859   134A      0.605098  
     135A      0.627690   136A      0.631251   137A      0.637526  
     138A      0.650225   139A      0.656283   140A      0.662557  
     141A      0.667785   142A      0.688114   143A      0.700464  
     144A      0.712883   145A      0.721194   146A      0.726933  
     147A      0.738921   148A      0.755235   149A      0.767340  
     150A      0.772489   151A      0.779030   152A      0.789038  
     153A      0.801001   154A      0.805648   155A      0.808092  
     156A      0.814461   157A      0.816124   158A      0.826276  
     159A      0.829792   160A      0.838045   161A      0.841534  
     162A      0.847354   163A      0.852533   164A      0.857752  
     165A      0.862838   166A      0.872059   167A      0.873347  
     168A      0.883758   169A      0.890427   170A      0.895615  
     171A      0.902818   172A      0.909580   173A      0.913616  
     174A      0.915641   175A      0.930657   176A      0.936063  
     177A      0.950688   178A      0.953012   179A      0.959900  
     180A      0.969289   181A      0.972699   182A      0.978346  
     183A      0.984590   184A      0.987860   185A      0.995841  
     186A      1.006688   187A      1.013740   188A      1.014687  
     189A      1.028972   190A      1.036003   191A      1.039637  
     192A      1.045565   193A      1.054860   194A      1.058698  
     195A      1.062586   196A      1.070354   197A      1.075888  
     198A      1.081525   199A      1.092716   200A      1.095459  
     201A      1.101422   202A      1.104920   203A      1.120679  
     204A      1.128648   205A      1.140231   206A      1.141997  
     207A      1.144033   208A      1.144959   209A      1.163055  
     210A      1.166971   211A      1.178553   212A      1.182378  
     213A      1.192560   214A      1.198951   215A      1.202588  
     216A      1.215440   217A      1.219877   218A      1.225263  
     219A      1.231495   220A      1.240396   221A      1.254862  
     222A      1.283306   223A      1.295170   224A      1.305404  
     225A      1.308488   226A      1.320552   227A      1.327506  
     228A      1.346484   229A      1.351295   230A      1.357920  
     231A      1.360912   232A      1.369036   233A      1.393139  
     234A      1.405226   235A      1.416183   236A      1.419975  
     237A      1.433821   238A      1.435997   239A      1.457488  
     240A      1.461064   241A      1.473321   242A      1.489096  
     243A      1.496079   244A      1.502838   245A      1.509149  
     246A      1.524289   247A      1.527407   248A      1.534446  
     249A      1.539464   250A      1.551739   251A      1.554355  
     252A      1.563972   253A      1.571620   254A      1.587895  
     255A      1.590327   256A      1.609562   257A      1.629131  
     258A      1.631565   259A      1.639269   260A      1.645634  
     261A      1.655399   262A      1.664193   263A      1.671562  
     264A      1.676467   265A      1.679027   266A      1.682124  
     267A      1.696692   268A      1.701779   269A      1.709349  
     270A      1.733868   271A      1.740371   272A      1.746806  
     273A      1.747156   274A      1.763345   275A      1.765730  
     276A      1.774334   277A      1.780444   278A      1.785722  
     279A      1.804895   280A      1.813906   281A      1.820292  
     282A      1.839184   283A      1.851739   284A      1.856700  
     285A      1.863867   286A      1.868634   287A      1.885271  
     288A      1.890959   289A      1.897426   290A      1.919593  
     291A      1.939748   292A      1.944212   293A      1.955676  
     294A      1.961842   295A      1.978649   296A      2.000579  
     297A      2.006508   298A      2.022209   299A      2.031829  
     300A      2.036523   301A      2.058973   302A      2.073921  
     303A      2.083027   304A      2.107655   305A      2.115508  
     306A      2.129019   307A      2.151897   308A      2.154151  
     309A      2.166901   310A      2.196896   311A      2.210583  
     312A      2.224847   313A      2.246093   314A      2.251991  
     315A      2.263541   316A      2.270002   317A      2.291123  
     318A      2.309836   319A      2.320042   320A      2.335542  
     321A      2.351232   322A      2.385998   323A      2.390972  
     324A      2.403852   325A      2.417971   326A      2.424647  
     327A      2.444626   328A      2.472560   329A      2.481142  
     330A      2.501277   331A      2.506763   332A      2.509172  
     333A      2.512110   334A      2.542500   335A      2.555919  
     336A      2.569902   337A      2.585366   338A      2.598658  
     339A      2.606766   340A      2.613456   341A      2.623876  
     342A      2.644151   343A      2.649928   344A      2.667580  
     345A      2.672058   346A      2.677528   347A      2.708537  
     348A      2.736772   349A      2.740898   350A      2.763781  
     351A      2.771191   352A      2.792246   353A      2.816742  
     354A      2.837818   355A      2.849397   356A      2.868298  
     357A      2.876987   358A      2.891701   359A      2.916566  
     360A      2.934083   361A      2.944669   362A      2.951103  
     363A      2.971327   364A      2.985855   365A      2.997534  
     366A      3.016046   367A      3.029210   368A      3.050221  
     369A      3.067553   370A      3.087536   371A      3.104821  
     372A      3.135547   373A      3.149117   374A      3.208439  
     375A      3.228367   376A      3.231935   377A      3.248823  
     378A      3.306727   379A      3.324223   380A      3.330201  
     381A      3.362653   382A      3.370938   383A      3.409749  
     384A      3.416490   385A      3.439631   386A      3.446534  
     387A      3.467786   388A      3.485223   389A      3.502998  
     390A      3.518658   391A      3.539480   392A      3.552265  
     393A      3.572046   394A      3.581994   395A      3.615389  
     396A      3.625443   397A      3.627265   398A      3.630012  
     399A      3.662584   400A      3.681327   401A      3.692580  
     402A      3.707740   403A      3.715333   404A      3.736506  
     405A      3.745503   406A      3.772851   407A      3.779353  
     408A      3.781451   409A      3.808407   410A      3.815400  
     411A      3.831905   412A      3.839823   413A      3.864607  
     414A      3.869149   415A      3.877438   416A      3.883271  
     417A      3.915177   418A      3.940239   419A      3.944928  
     420A      3.962710   421A      3.977161   422A      3.985428  
     423A      3.986651   424A      4.004362   425A      4.018311  
     426A      4.044002   427A      4.053762   428A      4.070743  
     429A      4.076685   430A      4.110121   431A      4.116886  
     432A      4.125136   433A      4.132059   434A      4.145948  
     435A      4.155200   436A      4.170556   437A      4.179659  
     438A      4.199441   439A      4.233591   440A      4.244128  
     441A      4.258831   442A      4.270409   443A      4.299275  
     444A      4.302701   445A      4.327414   446A      4.333342  
     447A      4.340553   448A      4.359020   449A      4.361220  
     450A      4.374409   451A      4.428470   452A      4.438593  
     453A      4.447765   454A      4.460358   455A      4.483547  
     456A      4.492792   457A      4.504561   458A      4.540790  
     459A      4.550073   460A      4.583135   461A      4.591938  
     462A      4.602685   463A      4.633634   464A      4.636489  
     465A      4.644333   466A      4.666886   467A      4.687530  
     468A      4.716048   469A      4.740331   470A      4.757139  
     471A      4.774784   472A      4.785925   473A      4.799761  
     474A      4.805876   475A      4.815843   476A      4.837564  
     477A      4.855723   478A      4.887247   479A      4.899292  
     480A      4.916126   481A      4.944612   482A      4.974721  
     483A      4.989479   484A      5.003756   485A      5.030291  
     486A      5.043142   487A      5.047514   488A      5.053062  
     489A      5.084139   490A      5.100640   491A      5.136014  
     492A      5.149073   493A      5.169593   494A      5.187707  
     495A      5.207210   496A      5.253141   497A      5.258390  
     498A      5.278366   499A      5.322911   500A      5.347054  
     501A      5.354679   502A      5.389463   503A      5.396289  
     504A      5.403933   505A      5.406851   506A      5.447250  
     507A      5.465923   508A      5.487856   509A      5.503531  
     510A      5.564259   511A      5.574458   512A      5.610909  
     513A      5.626245   514A      5.658330   515A      5.690357  
     516A      5.696615   517A      5.723506   518A      5.749286  
     519A      5.818354   520A      5.880243   521A      5.949413  
     522A      6.003153   523A      6.040494   524A      6.047673  
     525A      6.070590   526A      6.096995   527A      6.114767  
     528A      6.165171   529A      6.202780   530A      6.287713  
     531A      6.352143   532A      6.376537   533A      6.431994  
     534A      6.481973   535A      6.573769   536A      6.618495  
     537A      6.677184   538A      6.701426   539A      6.703467  
     540A      6.709025   541A      6.749773   542A      6.789136  
     543A      6.801665   544A      6.842684   545A      6.849753  
     546A      6.871933   547A      6.884827   548A      6.904575  
     549A      6.920529   550A      6.935377   551A      7.016381  
     552A      7.023711   553A      7.066053   554A      7.106282  
     555A      7.140482   556A      7.190674   557A      7.203131  
     558A      7.225606   559A      7.255889   560A      7.267148  
     561A      7.274842   562A      7.329475   563A      7.362243  
     564A      7.385041   565A      7.402749   566A      7.404291  
     567A      7.424916   568A      7.457689   569A      7.546564  
     570A      7.550309   571A      7.554980   572A      7.576227  
     573A      7.611648   574A      7.628093   575A      7.694553  
     576A      7.702749   577A      7.713079   578A      7.765745  
     579A      7.818158   580A      7.860232   581A      7.903436  
     582A      7.940214   583A      8.004186   584A      8.039582  
     585A      8.068187   586A      8.237099   587A      8.310471  
     588A      8.507319   589A      8.528097   590A     14.956780  
     591A     15.244656   592A     15.718538   593A     16.094517  
     594A     17.229477   595A     18.051095   596A     18.140082  
     597A     19.631310   598A     20.491604  

    Final Occupation by Irrep:
              A 
    DOCC [    35 ]

  @DF-RHF Final Energy:  -493.63334236628026

   => Energetics <=

    Nuclear Repulsion Energy =            445.0045651192891683
    One-Electron Energy =               -1558.9634058962608378
    Two-Electron Energy =                 620.3254984106913525
    Total Energy =                       -493.6333423662802034

Computation Completed

*** tstop() called on node144.bme.utexas.edu at Sat Mar 27 21:43:28 2021
Module time:
	user time   =     323.50 seconds =       5.39 minutes
	system time =      40.40 seconds =       0.67 minutes
	total time  =         70 seconds =       1.17 minutes
Total time:
	user time   =     323.50 seconds =       5.39 minutes
	system time =      40.40 seconds =       0.67 minutes
	total time  =         70 seconds =       1.17 minutes
   => Loading Basis Set <=

    Name: (AUG-CC-PVTZ AUX)
    Role: RIFIT
    Keyword: DF_BASIS_MP2
    atoms 1-4   entry O          line   264 file /home/xy3866/psi4conda/share/psi4/basis/aug-cc-pvtz-ri.gbs 
    atoms 5-9   entry C          line   148 file /home/xy3866/psi4conda/share/psi4/basis/aug-cc-pvtz-ri.gbs 
    atoms 10-17 entry H          line    30 file /home/xy3866/psi4conda/share/psi4/basis/aug-cc-pvtz-ri.gbs 


*** tstart() called on node144.bme.utexas.edu
*** at Sat Mar 27 21:43:29 2021


  //>>>>>>>>>>>>>>>>>>>>>>>>>>>>>>>>>>>//
  //               DFMP2               //
  //<<<<<<<<<<<<<<<<<<<<<<<<<<<<<<<<<<<//

	 --------------------------------------------------------
	                          DF-MP2                         
	      2nd-Order Density-Fitted Moller-Plesset Theory     
	              RMP2 Wavefunction,   8 Threads             
	                                                         
	        Rob Parrish, Justin Turney, Andy Simmonett,      
	           Ed Hohenstein, and C. David Sherrill          
	 --------------------------------------------------------

   => Auxiliary Basis Set <=

  Basis Set: (AUG-CC-PVTZ AUX)
    Blend: AUG-CC-PVTZ-RI
    Number of shells: 364
    Number of basis function: 1322
    Number of Cartesian functions: 1664
    Spherical Harmonics?: true
    Max angular momentum: 4

	 --------------------------------------------------------
	                 NBF =   598, NAUX =  1322
	 --------------------------------------------------------
	   CLASS    FOCC     OCC    AOCC    AVIR     VIR    FVIR
	   PAIRS       0      35      35     563     563       0
	 --------------------------------------------------------

  DFHelper Memory: AOs need 3.226 GiB; user supplied 22.352 GiB. Using in-core AOs.


         ------------------------------------------------------------
                                     CPHF                           
                                  Rob Parrish                       
         ------------------------------------------------------------

  ==> Geometry <==

    Molecular point group: c1
    Full point group: C1

    Geometry (in Angstrom), charge = 0, multiplicity = 1:

       Center              X                  Y                   Z               Mass       
    ------------   -----------------  -----------------  -----------------  -----------------
         O            2.444901373536    -0.754701595002    -0.018080756711    15.994914619570
         O           -3.369152626464     0.794014404998    -0.018061756711    15.994914619570
         O            1.656230373536     1.375553404998    -0.018329756711    15.994914619570
         O           -2.585105626464    -1.331369595002    -0.018314756711    15.994914619570
         C            0.103384173536    -0.494896395002     0.181853243289    12.000000000000
         C           -1.019176626464     0.529064404998    -0.018132756711    12.000000000000
         C            1.456326373536     0.170954404998    -0.018195756711    12.000000000000
         C           -2.371655626464    -0.130424595002    -0.018180756711    12.000000000000
         C            3.775009373536    -0.196517595002    -0.018140756711    12.000000000000
         H            0.035639373536    -1.154630595002     0.852592243289     1.007825032230
         H            0.035589373536    -1.154646595002    -0.888870756711     1.007825032230
         H           -0.952608626464     1.189776404998    -0.888310756711     1.007825032230
         H           -0.952642626464     1.189729404998     0.852084243289     1.007825032230
         H            4.441622373536    -1.056452595002    -0.018061756711     1.007825032230
         H            3.930212373536     0.415828404998     0.871275243289     1.007825032230
         H            3.930204373536     0.415659404998    -0.907674756711     1.007825032230
         H           -4.203091626464     0.280071404998    -0.018114756711     1.007825032230

  Nuclear repulsion =  445.004565119289168
  Reference energy  = -493.633342366280260

  ==> Basis Set <==

  Basis Set: AUG-CC-PVTZ
    Blend: AUG-CC-PVTZ
    Number of shells: 198
    Number of basis function: 598
    Number of Cartesian functions: 695
    Spherical Harmonics?: true
    Max angular momentum: 3

  ==> CGRSolver (by Rob Parrish) <==

   Number of roots    =         1
   Preconditioning    =    JACOBI
   Convergence cutoff =     1E-06
   Maximum iterations =       100

  ==> CPHFRHamiltonian (by Rob Parrish) <== 

  ==> MemDFJK: Density-Fitted J/K Matrices <==

    J tasked:                   Yes
    K tasked:                   Yes
    wK tasked:                   No
    OpenMP threads:               8
    Memory [MiB]:             22888
    Algorithm:                 Disk
    Schwarz Cutoff:           1E-12
    Mask sparsity (%):      10.1884
    Fitting Condition:        1E-10

   => Auxiliary Basis Set <=

  Basis Set: (AUG-CC-PVTZ AUX)
    Blend: AUG-CC-PVTZ-JKFIT
    Number of shells: 382
    Number of basis function: 1304
    Number of Cartesian functions: 1619
    Spherical Harmonics?: true
    Max angular momentum: 4

  ==> CPHF Iterations <==

  => Iterations <=

             Iter  Converged  Remaining    Residual
  CGR           1          0          1   1.140E-01
  CGR           2          0          1   3.335E-02
  CGR           3          0          1   1.242E-02
  CGR           4          0          1   4.097E-03
  CGR           5          0          1   1.495E-03
  CGR           6          0          1   4.309E-04
  CGR           7          0          1   1.349E-04
  CGR           8          0          1   6.947E-05
  CGR           9          0          1   2.853E-05
  CGR          10          0          1   1.063E-05
  CGR          11          0          1   4.202E-06
  CGR          12          0          1   1.393E-06
  CGR          13          1          0   5.720E-07

    CGRSolver converged.

	-----------------------------------------------------------
	 ==================> DF-MP2 Energies <==================== 
	-----------------------------------------------------------
	 Reference Energy          =    -493.6333423662802602 [Eh]
	 Singles Energy            =      -0.0000000000000000 [Eh]
	 Same-Spin Energy          =      -0.4756799643029307 [Eh]
	 Opposite-Spin Energy      =      -1.4720011445558858 [Eh]
	 Correlation Energy        =      -1.9476811088588164 [Eh]
	 Total Energy              =    -495.5810234751390908 [Eh]
	-----------------------------------------------------------
	 ================> DF-SCS-MP2 Energies <================== 
	-----------------------------------------------------------
	 SCS Same-Spin Scale       =       0.3333333333333333 [-]
	 SCS Opposite-Spin Scale   =       1.2000000000000000 [-]
	 SCS Same-Spin Energy      =      -0.1585599881009769 [Eh]
	 SCS Opposite-Spin Energy  =      -1.7664013734670629 [Eh]
	 SCS Correlation Energy    =      -1.9249613615680399 [Eh]
	 SCS Total Energy          =    -495.5583037278482834 [Eh]
	-----------------------------------------------------------



Properties will be evaluated at  -0.000000,   0.000000,   0.000000 [a0]

Properties computed using the MP2 density matrix

  Nuclear Dipole Moment: [e a0]
     X:     5.8643      Y:     0.1179      Z:    -0.1364

  Electronic Dipole Moment: [e a0]
     X:    -5.5961      Y:    -0.1507      Z:     0.1690

  Dipole Moment: [e a0]
     X:     0.2681      Y:    -0.0328      Z:     0.0326     Total:     0.2721

  Dipole Moment: [D]
     X:     0.6815      Y:    -0.0833      Z:     0.0828     Total:     0.6916


*** tstop() called on node144.bme.utexas.edu at Sat Mar 27 21:46:22 2021
Module time:
	user time   =    1008.92 seconds =      16.82 minutes
	system time =      48.50 seconds =       0.81 minutes
	total time  =        173 seconds =       2.88 minutes
Total time:
	user time   =    1332.63 seconds =      22.21 minutes
	system time =      88.91 seconds =       1.48 minutes
	total time  =        244 seconds =       4.07 minutes

    Psi4 stopped on: Saturday, 27 March 2021 09:46PM
    Psi4 wall time for execution: 0:04:05.02

*** Psi4 exiting successfully. Buy a developer a beer!
