
    -----------------------------------------------------------------------
          Psi4: An Open-Source Ab Initio Electronic Structure Package
                               Psi4 1.3.2 release

                         Git: Rev {HEAD} ecbda83 


    R. M. Parrish, L. A. Burns, D. G. A. Smith, A. C. Simmonett,
    A. E. DePrince III, E. G. Hohenstein, U. Bozkaya, A. Yu. Sokolov,
    R. Di Remigio, R. M. Richard, J. F. Gonthier, A. M. James,
    H. R. McAlexander, A. Kumar, M. Saitow, X. Wang, B. P. Pritchard,
    P. Verma, H. F. Schaefer III, K. Patkowski, R. A. King, E. F. Valeev,
    F. A. Evangelista, J. M. Turney, T. D. Crawford, and C. D. Sherrill,
    J. Chem. Theory Comput. 13(7) pp 3185--3197 (2017).
    (doi: 10.1021/acs.jctc.7b00174)


                         Additional Contributions by
    P. Kraus, H. Kruse, M. H. Lechner, M. C. Schieber, R. A. Shaw,
    A. Alenaizan, R. Galvelis, Z. L. Glick, S. Lehtola, and J. P. Misiewicz

    -----------------------------------------------------------------------


    Psi4 started on: Monday, 09 November 2020 02:21PM

    Process ID: 24684
    Host:       node37.bme.utexas.edu
    PSIDATADIR: /home/xy3866/psi4conda/share/psi4
    Memory:     500.0 MiB
    Threads:    8
    
  ==> Input File <==

--------------------------------------------------------------------------
#psi4
#
memory 32 gb

molecule  {
0 1
  O        1.8013450    -0.1222670    -0.0001450
  C       -0.5611510    -0.4520200    -0.0000120
  C        0.6707050     0.3546130    -0.0000040
  C       -1.7652780     0.1406350     0.0001500
  H       -0.4438600    -1.5324100    -0.0001440
  H        0.5134203     1.4540912    -0.2999540
  H       -2.6894370    -0.4270490     0.0001690
  H       -1.8565530     1.2241520     0.0002830
units angstrom
no_reorient  #important for SAPT in psi4, default
symmetry c1  #important for SAPT in psi4, default
}

set PROPERTIES_ORIGIN ["COM"]
properties('MP2/aug-cc-pvtz', properties = ['dipole'])
--------------------------------------------------------------------------

  Memory set to  29.802 GiB by Python driver.
    SCF Algorithm Type (re)set to DF.

*** tstart() called on node37.bme.utexas.edu
*** at Mon Nov  9 14:21:56 2020

   => Loading Basis Set <=

    Name: AUG-CC-PVTZ
    Role: ORBITAL
    Keyword: BASIS
    atoms 1   entry O          line   327 file /home/xy3866/psi4conda/share/psi4/basis/aug-cc-pvtz.gbs 
    atoms 2-4 entry C          line   235 file /home/xy3866/psi4conda/share/psi4/basis/aug-cc-pvtz.gbs 
    atoms 5-8 entry H          line    36 file /home/xy3866/psi4conda/share/psi4/basis/aug-cc-pvtz.gbs 


         ---------------------------------------------------------
                                   SCF
               by Justin Turney, Rob Parrish, Andy Simmonett
                          and Daniel G. A. Smith
                              RHF Reference
                        8 Threads,  30517 MiB Core
         ---------------------------------------------------------

  ==> Geometry <==

    Molecular point group: c1
    Full point group: C1

    Geometry (in Angstrom), charge = 0, multiplicity = 1:

       Center              X                  Y                   Z               Mass       
    ------------   -----------------  -----------------  -----------------  -----------------
         O            1.722235361974    -0.109549640466     0.005257863706    15.994914619570
         C           -0.640260638026    -0.439302640466     0.005390863706    12.000000000000
         C            0.591595361974     0.367330359534     0.005398863706    12.000000000000
         C           -1.844387638026     0.153352359534     0.005552863706    12.000000000000
         H           -0.522969638026    -1.519692640466     0.005258863706     1.007825032230
         H            0.434310661974     1.466808559534    -0.294551136294     1.007825032230
         H           -2.768546638026    -0.414331640466     0.005571863706     1.007825032230
         H           -1.935662638026     1.236869359534     0.005685863706     1.007825032230

  Running in c1 symmetry.

  Rotational constants: A =      1.57428  B =      0.15406  C =      0.14049 [cm^-1]
  Rotational constants: A =  47195.59286  B =   4618.69167  C =   4211.91345 [MHz]
  Nuclear repulsion =  102.455942260420457

  Charge       = 0
  Multiplicity = 1
  Electrons    = 30
  Nalpha       = 15
  Nbeta        = 15

  ==> Algorithm <==

  SCF Algorithm Type is DF.
  DIIS enabled.
  MOM disabled.
  Fractional occupation disabled.
  Guess Type is SAD.
  Energy threshold   = 1.00e-10
  Density threshold  = 1.00e-10
  Integral threshold = 0.00e+00

  ==> Primary Basis <==

  Basis Set: AUG-CC-PVTZ
    Blend: AUG-CC-PVTZ
    Number of shells: 92
    Number of basis function: 276
    Number of Cartesian functions: 320
    Spherical Harmonics?: true
    Max angular momentum: 3

   => Loading Basis Set <=

    Name: (AUG-CC-PVTZ AUX)
    Role: JKFIT
    Keyword: DF_BASIS_SCF
    atoms 1   entry O          line   286 file /home/xy3866/psi4conda/share/psi4/basis/aug-cc-pvtz-jkfit.gbs 
    atoms 2-4 entry C          line   162 file /home/xy3866/psi4conda/share/psi4/basis/aug-cc-pvtz-jkfit.gbs 
    atoms 5-8 entry H          line    70 file /home/xy3866/psi4conda/share/psi4/basis/aug-cc-pvtz-jkfit.gbs 

  ==> Pre-Iterations <==

   -------------------------------------------------------
    Irrep   Nso     Nmo     Nalpha   Nbeta   Ndocc  Nsocc
   -------------------------------------------------------
     A        276     276       0       0       0       0
   -------------------------------------------------------
    Total     276     276      15      15      15       0
   -------------------------------------------------------

  ==> Integral Setup <==

  DFHelper Memory: AOs need 0.359 GiB; user supplied 22.352 GiB. Using in-core AOs.

  ==> MemDFJK: Density-Fitted J/K Matrices <==

    J tasked:                   Yes
    K tasked:                   Yes
    wK tasked:                   No
    OpenMP threads:               8
    Memory [MiB]:             22888
    Algorithm:                 Core
    Schwarz Cutoff:           1E-12
    Mask sparsity (%):       1.0712
    Fitting Condition:        1E-10

   => Auxiliary Basis Set <=

  Basis Set: (AUG-CC-PVTZ AUX)
    Blend: AUG-CC-PVTZ-JKFIT
    Number of shells: 176
    Number of basis function: 600
    Number of Cartesian functions: 744
    Spherical Harmonics?: true
    Max angular momentum: 4

  Minimum eigenvalue in the overlap matrix is 8.8688603387E-06.
  Using Symmetric Orthogonalization.

  SCF Guess: Superposition of Atomic Densities via on-the-fly atomic UHF.

  ==> Iterations <==

                           Total Energy        Delta E     RMS |[F,P]|

   @DF-RHF iter SAD:  -189.72945466920189   -1.89729e+02   0.00000e+00 
   @DF-RHF iter   1:  -190.70926475651893   -9.79810e-01   1.76000e-03 DIIS
   @DF-RHF iter   2:  -190.79202775987571   -8.27630e-02   1.14600e-03 DIIS
   @DF-RHF iter   3:  -190.82543849708827   -3.34107e-02   2.12573e-04 DIIS
   @DF-RHF iter   4:  -190.82737671605122   -1.93822e-03   7.83795e-05 DIIS
   @DF-RHF iter   5:  -190.82769428676488   -3.17571e-04   1.47669e-05 DIIS
   @DF-RHF iter   6:  -190.82771883614254   -2.45494e-05   7.33661e-06 DIIS
   @DF-RHF iter   7:  -190.82772518130139   -6.34516e-06   3.73611e-06 DIIS
   @DF-RHF iter   8:  -190.82772655075408   -1.36945e-06   1.14180e-06 DIIS
   @DF-RHF iter   9:  -190.82772670183900   -1.51085e-07   3.89435e-07 DIIS
   @DF-RHF iter  10:  -190.82772671863884   -1.67998e-08   1.12762e-07 DIIS
   @DF-RHF iter  11:  -190.82772672054011   -1.90127e-09   3.76824e-08 DIIS
   @DF-RHF iter  12:  -190.82772672083928   -2.99167e-10   1.86482e-08 DIIS
   @DF-RHF iter  13:  -190.82772672093623   -9.69465e-11   7.70057e-09 DIIS
   @DF-RHF iter  14:  -190.82772672095422   -1.79909e-11   2.10656e-09 DIIS
   @DF-RHF iter  15:  -190.82772672095501   -7.95808e-13   6.12136e-10 DIIS
   @DF-RHF iter  16:  -190.82772672095524   -2.27374e-13   2.26555e-10 DIIS
   @DF-RHF iter  17:  -190.82772672095587   -6.25278e-13   8.89951e-11 DIIS
  Energy and wave function converged.


  ==> Post-Iterations <==

    Orbital Energies [Eh]
    ---------------------

    Doubly Occupied:                                                      

       1A    -20.562011     2A    -11.344700     3A    -11.275108  
       4A    -11.261646     5A     -1.384379     6A     -1.089322  
       7A     -0.887859     8A     -0.782375     9A     -0.671751  
      10A     -0.664277    11A     -0.603529    12A     -0.561717  
      13A     -0.537982    14A     -0.432400    15A     -0.400683  

    Virtual:                                                              

      16A      0.024420    17A      0.035180    18A      0.042414  
      19A      0.056768    20A      0.060763    21A      0.078420  
      22A      0.091820    23A      0.106656    24A      0.106906  
      25A      0.115856    26A      0.123681    27A      0.129034  
      28A      0.132697    29A      0.140837    30A      0.156534  
      31A      0.174821    32A      0.190180    33A      0.203954  
      34A      0.228927    35A      0.233933    36A      0.238440  
      37A      0.252186    38A      0.261838    39A      0.269776  
      40A      0.274657    41A      0.292975    42A      0.300008  
      43A      0.310827    44A      0.324704    45A      0.331674  
      46A      0.338737    47A      0.365846    48A      0.372038  
      49A      0.381808    50A      0.399702    51A      0.401789  
      52A      0.404475    53A      0.411925    54A      0.416748  
      55A      0.437134    56A      0.448924    57A      0.455618  
      58A      0.457903    59A      0.466500    60A      0.478342  
      61A      0.493038    62A      0.500991    63A      0.519100  
      64A      0.531436    65A      0.555687    66A      0.564604  
      67A      0.593119    68A      0.605050    69A      0.616261  
      70A      0.627307    71A      0.654553    72A      0.686524  
      73A      0.707498    74A      0.718642    75A      0.743298  
      76A      0.763996    77A      0.790202    78A      0.810603  
      79A      0.813308    80A      0.827522    81A      0.838083  
      82A      0.847439    83A      0.867215    84A      0.872157  
      85A      0.884044    86A      0.891588    87A      0.893267  
      88A      0.908897    89A      0.922484    90A      0.934519  
      91A      0.942364    92A      0.950143    93A      0.962361  
      94A      0.975296    95A      0.990839    96A      1.005373  
      97A      1.014612    98A      1.024866    99A      1.027027  
     100A      1.040924   101A      1.045167   102A      1.073082  
     103A      1.081169   104A      1.096690   105A      1.104056  
     106A      1.122991   107A      1.127722   108A      1.137771  
     109A      1.162648   110A      1.167521   111A      1.180692  
     112A      1.202906   113A      1.247207   114A      1.256222  
     115A      1.266051   116A      1.286756   117A      1.301514  
     118A      1.340636   119A      1.368681   120A      1.414759  
     121A      1.427339   122A      1.436887   123A      1.454212  
     124A      1.483344   125A      1.509709   126A      1.538176  
     127A      1.551367   128A      1.581916   129A      1.605524  
     130A      1.633961   131A      1.651492   132A      1.661829  
     133A      1.701649   134A      1.710891   135A      1.737842  
     136A      1.743306   137A      1.764401   138A      1.784160  
     139A      1.791189   140A      1.811063   141A      1.841830  
     142A      1.847542   143A      1.889669   144A      1.900845  
     145A      1.919467   146A      1.937534   147A      1.951915  
     148A      2.011334   149A      2.037353   150A      2.087986  
     151A      2.101249   152A      2.121159   153A      2.151179  
     154A      2.165002   155A      2.189711   156A      2.223817  
     157A      2.288602   158A      2.296033   159A      2.333524  
     160A      2.373640   161A      2.394557   162A      2.437773  
     163A      2.462788   164A      2.501259   165A      2.540760  
     166A      2.570459   167A      2.600765   168A      2.655925  
     169A      2.683045   170A      2.742294   171A      2.751291  
     172A      2.819152   173A      2.878125   174A      2.980347  
     175A      2.995368   176A      3.046085   177A      3.108273  
     178A      3.138421   179A      3.174591   180A      3.201285  
     181A      3.254007   182A      3.264193   183A      3.325266  
     184A      3.328912   185A      3.346959   186A      3.358161  
     187A      3.407616   188A      3.434188   189A      3.453047  
     190A      3.500894   191A      3.521440   192A      3.543882  
     193A      3.558829   194A      3.568227   195A      3.614900  
     196A      3.638140   197A      3.649437   198A      3.715149  
     199A      3.762072   200A      3.776780   201A      3.781630  
     202A      3.813293   203A      3.850831   204A      3.864134  
     205A      3.895117   206A      3.940538   207A      3.967236  
     208A      4.001242   209A      4.015877   210A      4.085079  
     211A      4.103452   212A      4.117258   213A      4.160013  
     214A      4.175094   215A      4.212967   216A      4.231770  
     217A      4.273510   218A      4.292509   219A      4.317366  
     220A      4.336648   221A      4.409050   222A      4.433102  
     223A      4.476920   224A      4.528154   225A      4.620780  
     226A      4.664145   227A      4.707294   228A      4.746104  
     229A      4.775570   230A      4.787384   231A      4.808475  
     232A      4.862090   233A      4.875807   234A      4.891607  
     235A      4.953594   236A      4.980475   237A      5.039302  
     238A      5.079066   239A      5.107379   240A      5.121964  
     241A      5.161775   242A      5.197684   243A      5.260669  
     244A      5.300092   245A      5.360228   246A      5.382611  
     247A      5.417382   248A      5.466439   249A      5.514731  
     250A      5.567639   251A      5.724997   252A      5.822668  
     253A      5.923256   254A      6.141609   255A      6.248547  
     256A      6.371864   257A      6.409291   258A      6.630210  
     259A      6.642551   260A      6.667481   261A      6.742942  
     262A      6.792463   263A      6.946556   264A      6.999381  
     265A      7.134205   266A      7.294027   267A      7.320774  
     268A      7.562010   269A      7.610716   270A      7.635833  
     271A      7.788594   272A      7.863184   273A     15.265093  
     274A     16.207476   275A     17.004689   276A     18.228020  

    Final Occupation by Irrep:
              A 
    DOCC [    15 ]

  @DF-RHF Final Energy:  -190.82772672095587

   => Energetics <=

    Nuclear Repulsion Energy =            102.4559422604204570
    One-Electron Energy =                -461.6478582005157136
    Two-Electron Energy =                 168.3641892191394049
    Total Energy =                       -190.8277267209558659

Computation Completed

*** tstop() called on node37.bme.utexas.edu at Mon Nov  9 14:22:00 2020
Module time:
	user time   =      24.10 seconds =       0.40 minutes
	system time =       1.73 seconds =       0.03 minutes
	total time  =          4 seconds =       0.07 minutes
Total time:
	user time   =      24.10 seconds =       0.40 minutes
	system time =       1.73 seconds =       0.03 minutes
	total time  =          4 seconds =       0.07 minutes
   => Loading Basis Set <=

    Name: (AUG-CC-PVTZ AUX)
    Role: RIFIT
    Keyword: DF_BASIS_MP2
    atoms 1   entry O          line   264 file /home/xy3866/psi4conda/share/psi4/basis/aug-cc-pvtz-ri.gbs 
    atoms 2-4 entry C          line   148 file /home/xy3866/psi4conda/share/psi4/basis/aug-cc-pvtz-ri.gbs 
    atoms 5-8 entry H          line    30 file /home/xy3866/psi4conda/share/psi4/basis/aug-cc-pvtz-ri.gbs 


*** tstart() called on node37.bme.utexas.edu
*** at Mon Nov  9 14:22:00 2020


  //>>>>>>>>>>>>>>>>>>>>>>>>>>>>>>>>>>>//
  //               DFMP2               //
  //<<<<<<<<<<<<<<<<<<<<<<<<<<<<<<<<<<<//

	 --------------------------------------------------------
	                          DF-MP2                         
	      2nd-Order Density-Fitted Moller-Plesset Theory     
	              RMP2 Wavefunction,   8 Threads             
	                                                         
	        Rob Parrish, Justin Turney, Andy Simmonett,      
	           Ed Hohenstein, and C. David Sherrill          
	 --------------------------------------------------------

   => Auxiliary Basis Set <=

  Basis Set: (AUG-CC-PVTZ AUX)
    Blend: AUG-CC-PVTZ-RI
    Number of shells: 168
    Number of basis function: 608
    Number of Cartesian functions: 764
    Spherical Harmonics?: true
    Max angular momentum: 4

	 --------------------------------------------------------
	                 NBF =   276, NAUX =   608
	 --------------------------------------------------------
	   CLASS    FOCC     OCC    AOCC    AVIR     VIR    FVIR
	   PAIRS       0      15      15     261     261       0
	 --------------------------------------------------------

  DFHelper Memory: AOs need 0.359 GiB; user supplied 22.352 GiB. Using in-core AOs.


         ------------------------------------------------------------
                                     CPHF                           
                                  Rob Parrish                       
         ------------------------------------------------------------

  ==> Geometry <==

    Molecular point group: c1
    Full point group: C1

    Geometry (in Angstrom), charge = 0, multiplicity = 1:

       Center              X                  Y                   Z               Mass       
    ------------   -----------------  -----------------  -----------------  -----------------
         O            1.722235361974    -0.109549640466     0.005257863706    15.994914619570
         C           -0.640260638026    -0.439302640466     0.005390863706    12.000000000000
         C            0.591595361974     0.367330359534     0.005398863706    12.000000000000
         C           -1.844387638026     0.153352359534     0.005552863706    12.000000000000
         H           -0.522969638026    -1.519692640466     0.005258863706     1.007825032230
         H            0.434310661974     1.466808559534    -0.294551136294     1.007825032230
         H           -2.768546638026    -0.414331640466     0.005571863706     1.007825032230
         H           -1.935662638026     1.236869359534     0.005685863706     1.007825032230

  Nuclear repulsion =  102.455942260420457
  Reference energy  = -190.827726720955866

  ==> Basis Set <==

  Basis Set: AUG-CC-PVTZ
    Blend: AUG-CC-PVTZ
    Number of shells: 92
    Number of basis function: 276
    Number of Cartesian functions: 320
    Spherical Harmonics?: true
    Max angular momentum: 3

  ==> CGRSolver (by Rob Parrish) <==

   Number of roots    =         1
   Preconditioning    =    JACOBI
   Convergence cutoff =     1E-06
   Maximum iterations =       100

  ==> CPHFRHamiltonian (by Rob Parrish) <== 

  ==> MemDFJK: Density-Fitted J/K Matrices <==

    J tasked:                   Yes
    K tasked:                   Yes
    wK tasked:                   No
    OpenMP threads:               8
    Memory [MiB]:             22888
    Algorithm:                 Core
    Schwarz Cutoff:           1E-12
    Mask sparsity (%):       1.0712
    Fitting Condition:        1E-10

   => Auxiliary Basis Set <=

  Basis Set: (AUG-CC-PVTZ AUX)
    Blend: AUG-CC-PVTZ-JKFIT
    Number of shells: 176
    Number of basis function: 600
    Number of Cartesian functions: 744
    Spherical Harmonics?: true
    Max angular momentum: 4

  ==> CPHF Iterations <==

  => Iterations <=

             Iter  Converged  Remaining    Residual
  CGR           1          0          1   1.108E-01
  CGR           2          0          1   3.436E-02
  CGR           3          0          1   1.065E-02
  CGR           4          0          1   3.851E-03
  CGR           5          0          1   1.252E-03
  CGR           6          0          1   4.639E-04
  CGR           7          0          1   1.329E-04
  CGR           8          0          1   3.917E-05
  CGR           9          0          1   2.368E-05
  CGR          10          0          1   1.133E-05
  CGR          11          0          1   3.205E-06
  CGR          12          1          0   9.418E-07

    CGRSolver converged.

	-----------------------------------------------------------
	 ==================> DF-MP2 Energies <==================== 
	-----------------------------------------------------------
	 Reference Energy          =    -190.8277267209558659 [Eh]
	 Singles Energy            =      -0.0000000000000000 [Eh]
	 Same-Spin Energy          =      -0.1840818454015599 [Eh]
	 Opposite-Spin Energy      =      -0.6071040151316753 [Eh]
	 Correlation Energy        =      -0.7911858605332353 [Eh]
	 Total Energy              =    -191.6189125814890986 [Eh]
	-----------------------------------------------------------
	 ================> DF-SCS-MP2 Energies <================== 
	-----------------------------------------------------------
	 SCS Same-Spin Scale       =       0.3333333333333333 [-]
	 SCS Opposite-Spin Scale   =       1.2000000000000000 [-]
	 SCS Same-Spin Energy      =      -0.0613606151338533 [Eh]
	 SCS Opposite-Spin Energy  =      -0.7285248181580104 [Eh]
	 SCS Correlation Energy    =      -0.7898854332918637 [Eh]
	 SCS Total Energy          =    -191.6176121542477233 [Eh]
	-----------------------------------------------------------



Properties will be evaluated at  -0.000000,  -0.000000,  -0.000000 [a0]

Properties computed using the MP2 density matrix

  Nuclear Dipole Moment: [e a0]
     X:    -4.4849      Y:     0.7210      Z:    -0.2606

  Electronic Dipole Moment: [e a0]
     X:     3.2330      Y:    -0.4889      Z:     0.2181

  Dipole Moment: [e a0]
     X:    -1.2519      Y:     0.2321      Z:    -0.0425     Total:     1.2739

  Dipole Moment: [D]
     X:    -3.1819      Y:     0.5900      Z:    -0.1081     Total:     3.2380


*** tstop() called on node37.bme.utexas.edu at Mon Nov  9 14:22:11 2020
Module time:
	user time   =      66.17 seconds =       1.10 minutes
	system time =       3.69 seconds =       0.06 minutes
	total time  =         11 seconds =       0.18 minutes
Total time:
	user time   =      91.01 seconds =       1.52 minutes
	system time =       5.49 seconds =       0.09 minutes
	total time  =         15 seconds =       0.25 minutes

    Psi4 stopped on: Monday, 09 November 2020 02:22PM
    Psi4 wall time for execution: 0:00:14.85

*** Psi4 exiting successfully. Buy a developer a beer!
