
    -----------------------------------------------------------------------
          Psi4: An Open-Source Ab Initio Electronic Structure Package
                               Psi4 1.3.2 release

                         Git: Rev {HEAD} ecbda83 


    R. M. Parrish, L. A. Burns, D. G. A. Smith, A. C. Simmonett,
    A. E. DePrince III, E. G. Hohenstein, U. Bozkaya, A. Yu. Sokolov,
    R. Di Remigio, R. M. Richard, J. F. Gonthier, A. M. James,
    H. R. McAlexander, A. Kumar, M. Saitow, X. Wang, B. P. Pritchard,
    P. Verma, H. F. Schaefer III, K. Patkowski, R. A. King, E. F. Valeev,
    F. A. Evangelista, J. M. Turney, T. D. Crawford, and C. D. Sherrill,
    J. Chem. Theory Comput. 13(7) pp 3185--3197 (2017).
    (doi: 10.1021/acs.jctc.7b00174)


                         Additional Contributions by
    P. Kraus, H. Kruse, M. H. Lechner, M. C. Schieber, R. A. Shaw,
    A. Alenaizan, R. Galvelis, Z. L. Glick, S. Lehtola, and J. P. Misiewicz

    -----------------------------------------------------------------------


    Psi4 started on: Monday, 09 November 2020 02:18PM

    Process ID: 24425
    Host:       node37.bme.utexas.edu
    PSIDATADIR: /home/xy3866/psi4conda/share/psi4
    Memory:     500.0 MiB
    Threads:    8
    
  ==> Input File <==

--------------------------------------------------------------------------
#psi4
#
memory 32 gb

molecule  {
0 1
  O        1.8013450    -0.1222670    -0.0001450
  C       -0.5611510    -0.4520200    -0.0000120
  C        0.6707050     0.3546130    -0.0000040
  C       -1.7652780     0.1406350     0.0001500
  H       -0.4438526    -1.5324218     0.0998560
  H        0.5134400     1.4540710     0.0000460
  H       -2.6894370    -0.4270490     0.0001690
  H       -1.8565530     1.2241520     0.0002830
units angstrom
no_reorient  #important for SAPT in psi4, default
symmetry c1  #important for SAPT in psi4, default
}

set PROPERTIES_ORIGIN ["COM"]
properties('MP2/aug-cc-pvtz', properties = ['dipole'])
--------------------------------------------------------------------------

  Memory set to  29.802 GiB by Python driver.
    SCF Algorithm Type (re)set to DF.

*** tstart() called on node37.bme.utexas.edu
*** at Mon Nov  9 14:18:39 2020

   => Loading Basis Set <=

    Name: AUG-CC-PVTZ
    Role: ORBITAL
    Keyword: BASIS
    atoms 1   entry O          line   327 file /home/xy3866/psi4conda/share/psi4/basis/aug-cc-pvtz.gbs 
    atoms 2-4 entry C          line   235 file /home/xy3866/psi4conda/share/psi4/basis/aug-cc-pvtz.gbs 
    atoms 5-8 entry H          line    36 file /home/xy3866/psi4conda/share/psi4/basis/aug-cc-pvtz.gbs 


         ---------------------------------------------------------
                                   SCF
               by Justin Turney, Rob Parrish, Andy Simmonett
                          and Daniel G. A. Smith
                              RHF Reference
                        8 Threads,  30517 MiB Core
         ---------------------------------------------------------

  ==> Geometry <==

    Molecular point group: c1
    Full point group: C1

    Geometry (in Angstrom), charge = 0, multiplicity = 1:

       Center              X                  Y                   Z               Mass       
    ------------   -----------------  -----------------  -----------------  -----------------
         O            1.722234874487    -0.109549064836    -0.001937518219    15.994914619570
         C           -0.640261125513    -0.439302064836    -0.001804518219    12.000000000000
         C            0.591594874487     0.367330935164    -0.001796518219    12.000000000000
         C           -1.844388125513     0.153352935164    -0.001642518219    12.000000000000
         H           -0.522962725513    -1.519703864836     0.098063481781     1.007825032230
         H            0.434329874487     1.466788935164    -0.001746518219     1.007825032230
         H           -2.768547125513    -0.414331064836    -0.001623518219     1.007825032230
         H           -1.935663125513     1.236869935164    -0.001509518219     1.007825032230

  Running in c1 symmetry.

  Rotational constants: A =      1.58598  B =      0.15415  C =      0.14051 [cm^-1]
  Rotational constants: A =  47546.60696  B =   4621.34264  C =   4212.49451 [MHz]
  Nuclear repulsion =  102.584385528950293

  Charge       = 0
  Multiplicity = 1
  Electrons    = 30
  Nalpha       = 15
  Nbeta        = 15

  ==> Algorithm <==

  SCF Algorithm Type is DF.
  DIIS enabled.
  MOM disabled.
  Fractional occupation disabled.
  Guess Type is SAD.
  Energy threshold   = 1.00e-10
  Density threshold  = 1.00e-10
  Integral threshold = 0.00e+00

  ==> Primary Basis <==

  Basis Set: AUG-CC-PVTZ
    Blend: AUG-CC-PVTZ
    Number of shells: 92
    Number of basis function: 276
    Number of Cartesian functions: 320
    Spherical Harmonics?: true
    Max angular momentum: 3

   => Loading Basis Set <=

    Name: (AUG-CC-PVTZ AUX)
    Role: JKFIT
    Keyword: DF_BASIS_SCF
    atoms 1   entry O          line   286 file /home/xy3866/psi4conda/share/psi4/basis/aug-cc-pvtz-jkfit.gbs 
    atoms 2-4 entry C          line   162 file /home/xy3866/psi4conda/share/psi4/basis/aug-cc-pvtz-jkfit.gbs 
    atoms 5-8 entry H          line    70 file /home/xy3866/psi4conda/share/psi4/basis/aug-cc-pvtz-jkfit.gbs 

  ==> Pre-Iterations <==

   -------------------------------------------------------
    Irrep   Nso     Nmo     Nalpha   Nbeta   Ndocc  Nsocc
   -------------------------------------------------------
     A        276     276       0       0       0       0
   -------------------------------------------------------
    Total     276     276      15      15      15       0
   -------------------------------------------------------

  ==> Integral Setup <==

  DFHelper Memory: AOs need 0.359 GiB; user supplied 22.352 GiB. Using in-core AOs.

  ==> MemDFJK: Density-Fitted J/K Matrices <==

    J tasked:                   Yes
    K tasked:                   Yes
    wK tasked:                   No
    OpenMP threads:               8
    Memory [MiB]:             22888
    Algorithm:                 Core
    Schwarz Cutoff:           1E-12
    Mask sparsity (%):       1.0607
    Fitting Condition:        1E-10

   => Auxiliary Basis Set <=

  Basis Set: (AUG-CC-PVTZ AUX)
    Blend: AUG-CC-PVTZ-JKFIT
    Number of shells: 176
    Number of basis function: 600
    Number of Cartesian functions: 744
    Spherical Harmonics?: true
    Max angular momentum: 4

  Minimum eigenvalue in the overlap matrix is 8.7025880042E-06.
  Using Symmetric Orthogonalization.

  SCF Guess: Superposition of Atomic Densities via on-the-fly atomic UHF.

  ==> Iterations <==

                           Total Energy        Delta E     RMS |[F,P]|

   @DF-RHF iter SAD:  -189.74301132873450   -1.89743e+02   0.00000e+00 
   @DF-RHF iter   1:  -190.71633180100002   -9.73320e-01   1.74295e-03 DIIS
   @DF-RHF iter   2:  -190.79873697560183   -8.24052e-02   1.11986e-03 DIIS
   @DF-RHF iter   3:  -190.83061177263369   -3.18748e-02   2.11059e-04 DIIS
   @DF-RHF iter   4:  -190.83251180109093   -1.90003e-03   7.71563e-05 DIIS
   @DF-RHF iter   5:  -190.83281721828078   -3.05417e-04   1.43138e-05 DIIS
   @DF-RHF iter   6:  -190.83283970585853   -2.24876e-05   6.96222e-06 DIIS
   @DF-RHF iter   7:  -190.83284542658390   -5.72073e-06   3.58516e-06 DIIS
   @DF-RHF iter   8:  -190.83284666227274   -1.23569e-06   1.10523e-06 DIIS
   @DF-RHF iter   9:  -190.83284680155623   -1.39283e-07   3.70571e-07 DIIS
   @DF-RHF iter  10:  -190.83284681579761   -1.42414e-08   9.42288e-08 DIIS
   @DF-RHF iter  11:  -190.83284681680743   -1.00982e-09   1.91090e-08 DIIS
   @DF-RHF iter  12:  -190.83284681684552   -3.80851e-11   3.85658e-09 DIIS
   @DF-RHF iter  13:  -190.83284681684788   -2.35900e-12   1.55224e-09 DIIS
   @DF-RHF iter  14:  -190.83284681684847   -5.96856e-13   7.06703e-10 DIIS
   @DF-RHF iter  15:  -190.83284681684853   -5.68434e-14   2.69207e-10 DIIS
   @DF-RHF iter  16:  -190.83284681684830    2.27374e-13   9.91318e-11 DIIS
  Energy and wave function converged.


  ==> Post-Iterations <==

    Orbital Energies [Eh]
    ---------------------

    Doubly Occupied:                                                      

       1A    -20.560170     2A    -11.340513     3A    -11.275357  
       4A    -11.261229     5A     -1.383138     6A     -1.089382  
       7A     -0.889631     8A     -0.788028     9A     -0.671824  
      10A     -0.666351    11A     -0.603977    12A     -0.560839  
      13A     -0.538223    14A     -0.434366    15A     -0.400653  

    Virtual:                                                              

      16A      0.024215    17A      0.035019    18A      0.042270  
      19A      0.057422    20A      0.061025    21A      0.080283  
      22A      0.090652    23A      0.105339    24A      0.107794  
      25A      0.117671    26A      0.122452    27A      0.129164  
      28A      0.132814    29A      0.140168    30A      0.157297  
      31A      0.175524    32A      0.193853    33A      0.204566  
      34A      0.228927    35A      0.234588    36A      0.237486  
      37A      0.251174    38A      0.263566    39A      0.271445  
      40A      0.284339    41A      0.288406    42A      0.299243  
      43A      0.311927    44A      0.327789    45A      0.329977  
      46A      0.337637    47A      0.365852    48A      0.373137  
      49A      0.382770    50A      0.400527    51A      0.403146  
      52A      0.404852    53A      0.411262    54A      0.417496  
      55A      0.435579    56A      0.450732    57A      0.457045  
      58A      0.460739    59A      0.464709    60A      0.477546  
      61A      0.494549    62A      0.500293    63A      0.514889  
      64A      0.538363    65A      0.553672    66A      0.586615  
      67A      0.596659    68A      0.606945    69A      0.620627  
      70A      0.635627    71A      0.651872    72A      0.677017  
      73A      0.707768    74A      0.715153    75A      0.752427  
      76A      0.759564    77A      0.790169    78A      0.814819  
      79A      0.818667    80A      0.832968    81A      0.843260  
      82A      0.845309    83A      0.865123    84A      0.873168  
      85A      0.882232    86A      0.892132    87A      0.904318  
      88A      0.906244    89A      0.921262    90A      0.924554  
      91A      0.946974    92A      0.955500    93A      0.965966  
      94A      0.980153    95A      0.983091    96A      1.011289  
      97A      1.016009    98A      1.029625    99A      1.033669  
     100A      1.038856   101A      1.056723   102A      1.064585  
     103A      1.071710   104A      1.091386   105A      1.105998  
     106A      1.118146   107A      1.121319   108A      1.132782  
     109A      1.165097   110A      1.172892   111A      1.186170  
     112A      1.210347   113A      1.239828   114A      1.256518  
     115A      1.275816   116A      1.290248   117A      1.303411  
     118A      1.364071   119A      1.375540   120A      1.413644  
     121A      1.426322   122A      1.442398   123A      1.447043  
     124A      1.457939   125A      1.506210   126A      1.543468  
     127A      1.546639   128A      1.583490   129A      1.590450  
     130A      1.640267   131A      1.655877   132A      1.676604  
     133A      1.717295   134A      1.722070   135A      1.741750  
     136A      1.756612   137A      1.761295   138A      1.774427  
     139A      1.786309   140A      1.831386   141A      1.835778  
     142A      1.853761   143A      1.895660   144A      1.908670  
     145A      1.920264   146A      1.946935   147A      1.957805  
     148A      2.025204   149A      2.038495   150A      2.085760  
     151A      2.120006   152A      2.123609   153A      2.147004  
     154A      2.184644   155A      2.197417   156A      2.209545  
     157A      2.288928   158A      2.297509   159A      2.350121  
     160A      2.369512   161A      2.390052   162A      2.445161  
     163A      2.457896   164A      2.511195   165A      2.563933  
     166A      2.577104   167A      2.612362   168A      2.668566  
     169A      2.682212   170A      2.735269   171A      2.768392  
     172A      2.844039   173A      2.860617   174A      2.985266  
     175A      3.006070   176A      3.044976   177A      3.119338  
     178A      3.147299   179A      3.179064   180A      3.225584  
     181A      3.229587   182A      3.239455   183A      3.309776  
     184A      3.323320   185A      3.340128   186A      3.378464  
     187A      3.391326   188A      3.424256   189A      3.453464  
     190A      3.501466   191A      3.505007   192A      3.538120  
     193A      3.552252   194A      3.569378   195A      3.624268  
     196A      3.632403   197A      3.639257   198A      3.715952  
     199A      3.776348   200A      3.787546   201A      3.798676  
     202A      3.805187   203A      3.848282   204A      3.867383  
     205A      3.937219   206A      3.938678   207A      3.951087  
     208A      3.999866   209A      4.054198   210A      4.094615  
     211A      4.110065   212A      4.129350   213A      4.150197  
     214A      4.195380   215A      4.214239   216A      4.220066  
     217A      4.292897   218A      4.324094   219A      4.330087  
     220A      4.357484   221A      4.430409   222A      4.450005  
     223A      4.500601   224A      4.528722   225A      4.622793  
     226A      4.640348   227A      4.739842   228A      4.754418  
     229A      4.759902   230A      4.788172   231A      4.793223  
     232A      4.867027   233A      4.896666   234A      4.907318  
     235A      4.974427   236A      4.983307   237A      5.066077  
     238A      5.074987   239A      5.133783   240A      5.148610  
     241A      5.166909   242A      5.243147   243A      5.252091  
     244A      5.315550   245A      5.347281   246A      5.383873  
     247A      5.424022   248A      5.481106   249A      5.543842  
     250A      5.610998   251A      5.735455   252A      5.880549  
     253A      5.950171   254A      6.168144   255A      6.245126  
     256A      6.383092   257A      6.425173   258A      6.628266  
     259A      6.635138   260A      6.674597   261A      6.746975  
     262A      6.806249   263A      6.939029   264A      7.012742  
     265A      7.120841   266A      7.299886   267A      7.312220  
     268A      7.582899   269A      7.620329   270A      7.698740  
     271A      7.794045   272A      7.868885   273A     15.320215  
     274A     16.421120   275A     17.264962   276A     18.329473  

    Final Occupation by Irrep:
              A 
    DOCC [    15 ]

  @DF-RHF Final Energy:  -190.83284681684830

   => Energetics <=

    Nuclear Repulsion Energy =            102.5843855289502926
    One-Electron Energy =                -461.9071068085931984
    Two-Electron Energy =                 168.4898744627946030
    Total Energy =                       -190.8328468168483028

Computation Completed

*** tstop() called on node37.bme.utexas.edu at Mon Nov  9 14:18:48 2020
Module time:
	user time   =      31.47 seconds =       0.52 minutes
	system time =       2.45 seconds =       0.04 minutes
	total time  =          9 seconds =       0.15 minutes
Total time:
	user time   =      31.47 seconds =       0.52 minutes
	system time =       2.45 seconds =       0.04 minutes
	total time  =          9 seconds =       0.15 minutes
   => Loading Basis Set <=

    Name: (AUG-CC-PVTZ AUX)
    Role: RIFIT
    Keyword: DF_BASIS_MP2
    atoms 1   entry O          line   264 file /home/xy3866/psi4conda/share/psi4/basis/aug-cc-pvtz-ri.gbs 
    atoms 2-4 entry C          line   148 file /home/xy3866/psi4conda/share/psi4/basis/aug-cc-pvtz-ri.gbs 
    atoms 5-8 entry H          line    30 file /home/xy3866/psi4conda/share/psi4/basis/aug-cc-pvtz-ri.gbs 


*** tstart() called on node37.bme.utexas.edu
*** at Mon Nov  9 14:18:49 2020


  //>>>>>>>>>>>>>>>>>>>>>>>>>>>>>>>>>>>//
  //               DFMP2               //
  //<<<<<<<<<<<<<<<<<<<<<<<<<<<<<<<<<<<//

	 --------------------------------------------------------
	                          DF-MP2                         
	      2nd-Order Density-Fitted Moller-Plesset Theory     
	              RMP2 Wavefunction,   8 Threads             
	                                                         
	        Rob Parrish, Justin Turney, Andy Simmonett,      
	           Ed Hohenstein, and C. David Sherrill          
	 --------------------------------------------------------

   => Auxiliary Basis Set <=

  Basis Set: (AUG-CC-PVTZ AUX)
    Blend: AUG-CC-PVTZ-RI
    Number of shells: 168
    Number of basis function: 608
    Number of Cartesian functions: 764
    Spherical Harmonics?: true
    Max angular momentum: 4

	 --------------------------------------------------------
	                 NBF =   276, NAUX =   608
	 --------------------------------------------------------
	   CLASS    FOCC     OCC    AOCC    AVIR     VIR    FVIR
	   PAIRS       0      15      15     261     261       0
	 --------------------------------------------------------

  DFHelper Memory: AOs need 0.359 GiB; user supplied 22.352 GiB. Using in-core AOs.


         ------------------------------------------------------------
                                     CPHF                           
                                  Rob Parrish                       
         ------------------------------------------------------------

  ==> Geometry <==

    Molecular point group: c1
    Full point group: C1

    Geometry (in Angstrom), charge = 0, multiplicity = 1:

       Center              X                  Y                   Z               Mass       
    ------------   -----------------  -----------------  -----------------  -----------------
         O            1.722234874487    -0.109549064836    -0.001937518219    15.994914619570
         C           -0.640261125513    -0.439302064836    -0.001804518219    12.000000000000
         C            0.591594874487     0.367330935164    -0.001796518219    12.000000000000
         C           -1.844388125513     0.153352935164    -0.001642518219    12.000000000000
         H           -0.522962725513    -1.519703864836     0.098063481781     1.007825032230
         H            0.434329874487     1.466788935164    -0.001746518219     1.007825032230
         H           -2.768547125513    -0.414331064836    -0.001623518219     1.007825032230
         H           -1.935663125513     1.236869935164    -0.001509518219     1.007825032230

  Nuclear repulsion =  102.584385528950293
  Reference energy  = -190.832846816848303

  ==> Basis Set <==

  Basis Set: AUG-CC-PVTZ
    Blend: AUG-CC-PVTZ
    Number of shells: 92
    Number of basis function: 276
    Number of Cartesian functions: 320
    Spherical Harmonics?: true
    Max angular momentum: 3

  ==> CGRSolver (by Rob Parrish) <==

   Number of roots    =         1
   Preconditioning    =    JACOBI
   Convergence cutoff =     1E-06
   Maximum iterations =       100

  ==> CPHFRHamiltonian (by Rob Parrish) <== 

  ==> MemDFJK: Density-Fitted J/K Matrices <==

    J tasked:                   Yes
    K tasked:                   Yes
    wK tasked:                   No
    OpenMP threads:               8
    Memory [MiB]:             22888
    Algorithm:                 Core
    Schwarz Cutoff:           1E-12
    Mask sparsity (%):       1.0607
    Fitting Condition:        1E-10

   => Auxiliary Basis Set <=

  Basis Set: (AUG-CC-PVTZ AUX)
    Blend: AUG-CC-PVTZ-JKFIT
    Number of shells: 176
    Number of basis function: 600
    Number of Cartesian functions: 744
    Spherical Harmonics?: true
    Max angular momentum: 4

  ==> CPHF Iterations <==

  => Iterations <=

             Iter  Converged  Remaining    Residual
  CGR           1          0          1   1.097E-01
  CGR           2          0          1   3.399E-02
  CGR           3          0          1   1.060E-02
  CGR           4          0          1   3.872E-03
  CGR           5          0          1   1.250E-03
  CGR           6          0          1   4.973E-04
  CGR           7          0          1   1.254E-04
  CGR           8          0          1   3.942E-05
  CGR           9          0          1   1.145E-05
  CGR          10          0          1   3.867E-06
  CGR          11          0          1   1.684E-06
  CGR          12          1          0   6.119E-07

    CGRSolver converged.

	-----------------------------------------------------------
	 ==================> DF-MP2 Energies <==================== 
	-----------------------------------------------------------
	 Reference Energy          =    -190.8328468168483028 [Eh]
	 Singles Energy            =      -0.0000000000000000 [Eh]
	 Same-Spin Energy          =      -0.1837762820704366 [Eh]
	 Opposite-Spin Energy      =      -0.6063787738473397 [Eh]
	 Correlation Energy        =      -0.7901550559177763 [Eh]
	 Total Energy              =    -191.6230018727660820 [Eh]
	-----------------------------------------------------------
	 ================> DF-SCS-MP2 Energies <================== 
	-----------------------------------------------------------
	 SCS Same-Spin Scale       =       0.3333333333333333 [-]
	 SCS Opposite-Spin Scale   =       1.2000000000000000 [-]
	 SCS Same-Spin Energy      =      -0.0612587606901455 [Eh]
	 SCS Opposite-Spin Energy  =      -0.7276545286168077 [Eh]
	 SCS Correlation Energy    =      -0.7889132893069533 [Eh]
	 SCS Total Energy          =    -191.6217601061552500 [Eh]
	-----------------------------------------------------------



Properties will be evaluated at  -0.000000,   0.000000,  -0.000000 [a0]

Properties computed using the MP2 density matrix

  Nuclear Dipole Moment: [e a0]
     X:    -4.4849      Y:     0.7210      Z:     0.0873

  Electronic Dipole Moment: [e a0]
     X:     3.2235      Y:    -0.4598      Z:    -0.0590

  Dipole Moment: [e a0]
     X:    -1.2614      Y:     0.2611      Z:     0.0283     Total:     1.2884

  Dipole Moment: [D]
     X:    -3.2061      Y:     0.6638      Z:     0.0720     Total:     3.2749


*** tstop() called on node37.bme.utexas.edu at Mon Nov  9 14:18:59 2020
Module time:
	user time   =      65.41 seconds =       1.09 minutes
	system time =       4.17 seconds =       0.07 minutes
	total time  =         10 seconds =       0.17 minutes
Total time:
	user time   =      97.02 seconds =       1.62 minutes
	system time =       6.62 seconds =       0.11 minutes
	total time  =         20 seconds =       0.33 minutes

    Psi4 stopped on: Monday, 09 November 2020 02:18PM
    Psi4 wall time for execution: 0:00:20.34

*** Psi4 exiting successfully. Buy a developer a beer!
