12171636                                                                
Freq      RMP2-FC                                                     Gen                 
Number of atoms                            I               21
Info1-9                                    I   N=           9
         139         136        1002           0           0         100
           6           2           1
Charge                                     I                0
Multiplicity                               I                1
Number of electrons                        I               90
Number of alpha electrons                  I               45
Number of beta electrons                   I               45
Number of basis functions                  I              221
Number of independent functions            I              221
Number of point charges in /Mol/           I                0
Number of translation vectors              I                0
Atomic numbers                             I   N=          21
          53           6           6           6           6           6
           6           6           6           6           1           1
           1           1           1           1           1           1
           1           1           1
Nuclear charges                            R   N=          21
  2.50000000E+01  6.00000000E+00  6.00000000E+00  6.00000000E+00  6.00000000E+00
  6.00000000E+00  6.00000000E+00  6.00000000E+00  6.00000000E+00  6.00000000E+00
  1.00000000E+00  1.00000000E+00  1.00000000E+00  1.00000000E+00  1.00000000E+00
  1.00000000E+00  1.00000000E+00  1.00000000E+00  1.00000000E+00  1.00000000E+00
  1.00000000E+00
Current cartesian coordinates              R   N=          63
  4.43095449E+00  1.87071614E-06 -4.77043784E-01 -1.04732563E+00 -7.98424691E-06
  1.39263624E+00 -4.73113089E+00 -2.31549140E+00 -1.22892289E-01 -4.73111861E+00
  2.31550106E+00 -1.22881221E-01 -2.28563566E+00  2.28609768E+00  8.85777333E-01
 -2.28564197E+00 -2.28610187E+00  8.85766737E-01 -5.92358623E+00  5.83211020E-06
 -6.13310925E-01  1.55293287E+00 -1.32440438E-05  2.47400229E+00 -6.07974428E+00
 -4.77943298E+00 -6.07677069E-01 -6.07974441E+00  4.77943444E+00 -6.07672706E-01
 -1.31252280E+00  4.06449335E+00  1.24973281E+00 -1.31253738E+00 -4.06450482E+00
  1.24971276E+00 -7.82325841E+00  1.33062606E-05 -1.41016135E+00  1.94170347E+00
 -1.68675814E+00  3.58906828E+00  1.94170338E+00  1.68672197E+00  3.58908298E+00
 -7.38133967E+00 -4.61551971E+00 -2.20266595E+00 -7.18321679E+00 -5.35431165E+00
  1.04554331E+00 -4.74028337E+00 -6.29433306E+00 -1.02617761E+00 -7.18385528E+00
  5.35390989E+00  1.04526143E+00 -4.74025157E+00  6.29451520E+00 -1.02540975E+00
 -7.38076091E+00  4.61572536E+00 -2.20315666E+00
Force Field                                I                0
Int Atom Types                             I   N=          21
           0           0           0           0           0           0
           0           0           0           0           0           0
           0           0           0           0           0           0
           0           0           0
MM charges                                 R   N=          21
  0.00000000E+00  0.00000000E+00  0.00000000E+00  0.00000000E+00  0.00000000E+00
  0.00000000E+00  0.00000000E+00  0.00000000E+00  0.00000000E+00  0.00000000E+00
  0.00000000E+00  0.00000000E+00  0.00000000E+00  0.00000000E+00  0.00000000E+00
  0.00000000E+00  0.00000000E+00  0.00000000E+00  0.00000000E+00  0.00000000E+00
  0.00000000E+00
Integer atomic weights                     I   N=          21
         127          12          12          12          12          12
          12          12          12          12           1           1
           1           1           1           1           1           1
           1           1           1
Real atomic weights                        R   N=          21
  1.26900400E+02  1.20000000E+01  1.20000000E+01  1.20000000E+01  1.20000000E+01
  1.20000000E+01  1.20000000E+01  1.20000000E+01  1.20000000E+01  1.20000000E+01
  1.00782504E+00  1.00782504E+00  1.00782504E+00  1.00782504E+00  1.00782504E+00
  1.00782504E+00  1.00782504E+00  1.00782504E+00  1.00782504E+00  1.00782504E+00
  1.00782504E+00
Atom fragment info                         I   N=          21
           0           0           0           0           0           0
           0           0           0           0           0           0
           0           0           0           0           0           0
           0           0           0
Atom residue num                           I   N=          21
           0           0           0           0           0           0
           0           0           0           0           0           0
           0           0           0           0           0           0
           0           0           0
Nuclear spins                              I   N=          21
           5           0           0           0           0           0
           0           0           0           0           1           1
           1           1           1           1           1           1
           1           1           1
Nuclear ZEff                               R   N=          21
 -5.83000000E+03 -3.60000000E+00 -3.60000000E+00 -3.60000000E+00 -3.60000000E+00
 -3.60000000E+00 -3.60000000E+00 -3.60000000E+00 -3.60000000E+00 -3.60000000E+00
 -1.00000000E+00 -1.00000000E+00 -1.00000000E+00 -1.00000000E+00 -1.00000000E+00
 -1.00000000E+00 -1.00000000E+00 -1.00000000E+00 -1.00000000E+00 -1.00000000E+00
 -1.00000000E+00
Nuclear QMom                               R   N=          21
 -7.10000000E+01  0.00000000E+00  0.00000000E+00  0.00000000E+00  0.00000000E+00
  0.00000000E+00  0.00000000E+00  0.00000000E+00  0.00000000E+00  0.00000000E+00
  0.00000000E+00  0.00000000E+00  0.00000000E+00  0.00000000E+00  0.00000000E+00
  0.00000000E+00  0.00000000E+00  0.00000000E+00  0.00000000E+00  0.00000000E+00
  0.00000000E+00
Nuclear GFac                               R   N=          21
  2.81328000E+00  0.00000000E+00  0.00000000E+00  0.00000000E+00  0.00000000E+00
  0.00000000E+00  0.00000000E+00  0.00000000E+00  0.00000000E+00  0.00000000E+00
  2.79284600E+00  2.79284600E+00  2.79284600E+00  2.79284600E+00  2.79284600E+00
  2.79284600E+00  2.79284600E+00  2.79284600E+00  2.79284600E+00  2.79284600E+00
  2.79284600E+00
MicOpt                                     I   N=          21
          -1          -1          -1          -1          -1          -1
          -1          -1          -1          -1          -1          -1
          -1          -1          -1          -1          -1          -1
          -1          -1          -1
Number of contracted shells                I               88
Number of primitive shells                 I              186
Pure/Cartesian d shells                    I                0
Pure/Cartesian f shells                    I                0
Highest angular momentum                   I                2
Largest degree of contraction              I                6
Shell types                                I   N=          88
           0           0           0           0           1           1
           1           1          -2          -2           0          -1
          -1          -1          -2           0          -1          -1
          -1          -2           0          -1          -1          -1
          -2           0          -1          -1          -1          -2
           0          -1          -1          -1          -2           0
          -1          -1          -1          -2           0          -1
          -1          -1          -2           0          -1          -1
          -1          -2           0          -1          -1          -1
          -2           0           0           0           0           0
           0           0           0           0           0           0
           0           0           0           0           0           0
           0           0           0           0           0           0
           0           0           0           0           0           0
           0           0           0           0
Number of primitives per shell             I   N=          88
           6           2           1           1           4           1
           1           1           5           1           6           3
           1           1           1           6           3           1
           1           1           6           3           1           1
           1           6           3           1           1           1
           6           3           1           1           1           6
           3           1           1           1           6           3
           1           1           1           6           3           1
           1           1           6           3           1           1
           1           3           1           1           3           1
           1           3           1           1           3           1
           1           3           1           1           3           1
           1           3           1           1           3           1
           1           3           1           1           3           1
           1           3           1           1
Shell to atom map                          I   N=          88
           1           1           1           1           1           1
           1           1           1           1           2           2
           2           2           2           3           3           3
           3           3           4           4           4           4
           4           5           5           5           5           5
           6           6           6           6           6           7
           7           7           7           7           8           8
           8           8           8           9           9           9
           9           9          10          10          10          10
          10          11          11          11          12          12
          12          13          13          13          14          14
          14          15          15          15          16          16
          16          17          17          17          18          18
          18          19          19          19          20          20
          20          21          21          21
Primitive exponents                        R   N=         186
  4.45904892E+02  2.33368424E+01  1.95834461E+01  8.51120892E+00  2.19961619E+00
  1.06689705E+00  1.17205476E+01  1.76259864E+00  2.86974763E-01  1.12276096E-01
  2.04990273E+01  1.05587546E+01  1.50158955E+00  6.45971731E-01  3.02886568E+00
  3.45065918E-01  1.11345138E-01  5.12353549E+01  1.56162395E+01  4.52660021E+00
  2.05298088E+00  8.76402816E-01  3.09000000E-01  4.56324000E+03  6.82024000E+02
  1.54973000E+02  4.44553000E+01  1.30290000E+01  1.82773000E+00  2.09642000E+01
  4.80331000E+00  1.45933000E+00  4.83456000E-01  1.45585000E-01  6.26000000E-01
  4.56324000E+03  6.82024000E+02  1.54973000E+02  4.44553000E+01  1.30290000E+01
  1.82773000E+00  2.09642000E+01  4.80331000E+00  1.45933000E+00  4.83456000E-01
  1.45585000E-01  6.26000000E-01  4.56324000E+03  6.82024000E+02  1.54973000E+02
  4.44553000E+01  1.30290000E+01  1.82773000E+00  2.09642000E+01  4.80331000E+00
  1.45933000E+00  4.83456000E-01  1.45585000E-01  6.26000000E-01  4.56324000E+03
  6.82024000E+02  1.54973000E+02  4.44553000E+01  1.30290000E+01  1.82773000E+00
  2.09642000E+01  4.80331000E+00  1.45933000E+00  4.83456000E-01  1.45585000E-01
  6.26000000E-01  4.56324000E+03  6.82024000E+02  1.54973000E+02  4.44553000E+01
  1.30290000E+01  1.82773000E+00  2.09642000E+01  4.80331000E+00  1.45933000E+00
  4.83456000E-01  1.45585000E-01  6.26000000E-01  4.56324000E+03  6.82024000E+02
  1.54973000E+02  4.44553000E+01  1.30290000E+01  1.82773000E+00  2.09642000E+01
  4.80331000E+00  1.45933000E+00  4.83456000E-01  1.45585000E-01  6.26000000E-01
  4.56324000E+03  6.82024000E+02  1.54973000E+02  4.44553000E+01  1.30290000E+01
  1.82773000E+00  2.09642000E+01  4.80331000E+00  1.45933000E+00  4.83456000E-01
  1.45585000E-01  6.26000000E-01  4.56324000E+03  6.82024000E+02  1.54973000E+02
  4.44553000E+01  1.30290000E+01  1.82773000E+00  2.09642000E+01  4.80331000E+00
  1.45933000E+00  4.83456000E-01  1.45585000E-01  6.26000000E-01  4.56324000E+03
  6.82024000E+02  1.54973000E+02  4.44553000E+01  1.30290000E+01  1.82773000E+00
  2.09642000E+01  4.80331000E+00  1.45933000E+00  4.83456000E-01  1.45585000E-01
  6.26000000E-01  3.38650000E+01  5.09479000E+00  1.15879000E+00  3.25840000E-01
  1.02741000E-01  3.38650000E+01  5.09479000E+00  1.15879000E+00  3.25840000E-01
  1.02741000E-01  3.38650000E+01  5.09479000E+00  1.15879000E+00  3.25840000E-01
  1.02741000E-01  3.38650000E+01  5.09479000E+00  1.15879000E+00  3.25840000E-01
  1.02741000E-01  3.38650000E+01  5.09479000E+00  1.15879000E+00  3.25840000E-01
  1.02741000E-01  3.38650000E+01  5.09479000E+00  1.15879000E+00  3.25840000E-01
  1.02741000E-01  3.38650000E+01  5.09479000E+00  1.15879000E+00  3.25840000E-01
  1.02741000E-01  3.38650000E+01  5.09479000E+00  1.15879000E+00  3.25840000E-01
  1.02741000E-01  3.38650000E+01  5.09479000E+00  1.15879000E+00  3.25840000E-01
  1.02741000E-01  3.38650000E+01  5.09479000E+00  1.15879000E+00  3.25840000E-01
  1.02741000E-01  3.38650000E+01  5.09479000E+00  1.15879000E+00  3.25840000E-01
  1.02741000E-01
Contraction coefficients                   R   N=         186
  2.20257546E-03 -1.64769178E-01  4.00523643E-01 -8.30344053E-01  9.10349039E-01
  4.63450337E-01 -4.69729845E-02  1.02523810E+00  1.00000000E+00  1.00000000E+00
  8.45621086E-02 -4.20516792E-01  9.15704773E-01  1.83978523E-01  1.00000000E+00
  1.00000000E+00  1.00000000E+00  4.10151694E-03 -5.16112495E-03  2.96351970E-01
  5.19951965E-01  3.17507168E-01  1.00000000E+00  1.96665025E-03  1.52306019E-02
  7.61269097E-02  2.60801033E-01  6.16462078E-01  2.21006028E-01  1.14660081E-01
  9.19999648E-01 -3.03068213E-03  1.00000000E+00  1.00000000E+00  1.00000000E+00
  1.96665025E-03  1.52306019E-02  7.61269097E-02  2.60801033E-01  6.16462078E-01
  2.21006028E-01  1.14660081E-01  9.19999648E-01 -3.03068213E-03  1.00000000E+00
  1.00000000E+00  1.00000000E+00  1.96665025E-03  1.52306019E-02  7.61269097E-02
  2.60801033E-01  6.16462078E-01  2.21006028E-01  1.14660081E-01  9.19999648E-01
 -3.03068213E-03  1.00000000E+00  1.00000000E+00  1.00000000E+00  1.96665025E-03
  1.52306019E-02  7.61269097E-02  2.60801033E-01  6.16462078E-01  2.21006028E-01
  1.14660081E-01  9.19999648E-01 -3.03068213E-03  1.00000000E+00  1.00000000E+00
  1.00000000E+00  1.96665025E-03  1.52306019E-02  7.61269097E-02  2.60801033E-01
  6.16462078E-01  2.21006028E-01  1.14660081E-01  9.19999648E-01 -3.03068213E-03
  1.00000000E+00  1.00000000E+00  1.00000000E+00  1.96665025E-03  1.52306019E-02
  7.61269097E-02  2.60801033E-01  6.16462078E-01  2.21006028E-01  1.14660081E-01
  9.19999648E-01 -3.03068213E-03  1.00000000E+00  1.00000000E+00  1.00000000E+00
  1.96665025E-03  1.52306019E-02  7.61269097E-02  2.60801033E-01  6.16462078E-01
  2.21006028E-01  1.14660081E-01  9.19999648E-01 -3.03068213E-03  1.00000000E+00
  1.00000000E+00  1.00000000E+00  1.96665025E-03  1.52306019E-02  7.61269097E-02
  2.60801033E-01  6.16462078E-01  2.21006028E-01  1.14660081E-01  9.19999648E-01
 -3.03068213E-03  1.00000000E+00  1.00000000E+00  1.00000000E+00  1.96665025E-03
  1.52306019E-02  7.61269097E-02  2.60801033E-01  6.16462078E-01  2.21006028E-01
  1.14660081E-01  9.19999648E-01 -3.03068213E-03  1.00000000E+00  1.00000000E+00
  1.00000000E+00  2.54938145E-02  1.90373109E-01  8.52161486E-01  1.00000000E+00
  1.00000000E+00  2.54938145E-02  1.90373109E-01  8.52161486E-01  1.00000000E+00
  1.00000000E+00  2.54938145E-02  1.90373109E-01  8.52161486E-01  1.00000000E+00
  1.00000000E+00  2.54938145E-02  1.90373109E-01  8.52161486E-01  1.00000000E+00
  1.00000000E+00  2.54938145E-02  1.90373109E-01  8.52161486E-01  1.00000000E+00
  1.00000000E+00  2.54938145E-02  1.90373109E-01  8.52161486E-01  1.00000000E+00
  1.00000000E+00  2.54938145E-02  1.90373109E-01  8.52161486E-01  1.00000000E+00
  1.00000000E+00  2.54938145E-02  1.90373109E-01  8.52161486E-01  1.00000000E+00
  1.00000000E+00  2.54938145E-02  1.90373109E-01  8.52161486E-01  1.00000000E+00
  1.00000000E+00  2.54938145E-02  1.90373109E-01  8.52161486E-01  1.00000000E+00
  1.00000000E+00  2.54938145E-02  1.90373109E-01  8.52161486E-01  1.00000000E+00
  1.00000000E+00
P(S=P) Contraction coefficients            R   N=         186
  0.00000000E+00  0.00000000E+00  0.00000000E+00  0.00000000E+00  0.00000000E+00
  0.00000000E+00  0.00000000E+00  0.00000000E+00  0.00000000E+00  0.00000000E+00
  0.00000000E+00  0.00000000E+00  0.00000000E+00  0.00000000E+00  0.00000000E+00
  0.00000000E+00  0.00000000E+00  0.00000000E+00  0.00000000E+00  0.00000000E+00
  0.00000000E+00  0.00000000E+00  0.00000000E+00  0.00000000E+00  0.00000000E+00
  0.00000000E+00  0.00000000E+00  0.00000000E+00  0.00000000E+00  4.02486927E-02
  2.37593957E-01  8.15853851E-01  1.00000000E+00  1.00000000E+00  0.00000000E+00
  0.00000000E+00  0.00000000E+00  0.00000000E+00  0.00000000E+00  0.00000000E+00
  0.00000000E+00  4.02486927E-02  2.37593957E-01  8.15853851E-01  1.00000000E+00
  1.00000000E+00  0.00000000E+00  0.00000000E+00  0.00000000E+00  0.00000000E+00
  0.00000000E+00  0.00000000E+00  0.00000000E+00  4.02486927E-02  2.37593957E-01
  8.15853851E-01  1.00000000E+00  1.00000000E+00  0.00000000E+00  0.00000000E+00
  0.00000000E+00  0.00000000E+00  0.00000000E+00  0.00000000E+00  0.00000000E+00
  4.02486927E-02  2.37593957E-01  8.15853851E-01  1.00000000E+00  1.00000000E+00
  0.00000000E+00  0.00000000E+00  0.00000000E+00  0.00000000E+00  0.00000000E+00
  0.00000000E+00  0.00000000E+00  4.02486927E-02  2.37593957E-01  8.15853851E-01
  1.00000000E+00  1.00000000E+00  0.00000000E+00  0.00000000E+00  0.00000000E+00
  0.00000000E+00  0.00000000E+00  0.00000000E+00  0.00000000E+00  4.02486927E-02
  2.37593957E-01  8.15853851E-01  1.00000000E+00  1.00000000E+00  0.00000000E+00
  0.00000000E+00  0.00000000E+00  0.00000000E+00  0.00000000E+00  0.00000000E+00
  0.00000000E+00  4.02486927E-02  2.37593957E-01  8.15853851E-01  1.00000000E+00
  1.00000000E+00  0.00000000E+00  0.00000000E+00  0.00000000E+00  0.00000000E+00
  0.00000000E+00  0.00000000E+00  0.00000000E+00  4.02486927E-02  2.37593957E-01
  8.15853851E-01  1.00000000E+00  1.00000000E+00  0.00000000E+00  0.00000000E+00
  0.00000000E+00  0.00000000E+00  0.00000000E+00  0.00000000E+00  0.00000000E+00
  4.02486927E-02  2.37593957E-01  8.15853851E-01  1.00000000E+00  1.00000000E+00
  0.00000000E+00  0.00000000E+00  0.00000000E+00  0.00000000E+00  0.00000000E+00
  0.00000000E+00  0.00000000E+00  0.00000000E+00  0.00000000E+00  0.00000000E+00
  0.00000000E+00  0.00000000E+00  0.00000000E+00  0.00000000E+00  0.00000000E+00
  0.00000000E+00  0.00000000E+00  0.00000000E+00  0.00000000E+00  0.00000000E+00
  0.00000000E+00  0.00000000E+00  0.00000000E+00  0.00000000E+00  0.00000000E+00
  0.00000000E+00  0.00000000E+00  0.00000000E+00  0.00000000E+00  0.00000000E+00
  0.00000000E+00  0.00000000E+00  0.00000000E+00  0.00000000E+00  0.00000000E+00
  0.00000000E+00  0.00000000E+00  0.00000000E+00  0.00000000E+00  0.00000000E+00
  0.00000000E+00  0.00000000E+00  0.00000000E+00  0.00000000E+00  0.00000000E+00
  0.00000000E+00  0.00000000E+00  0.00000000E+00  0.00000000E+00  0.00000000E+00
  0.00000000E+00  0.00000000E+00  0.00000000E+00  0.00000000E+00  0.00000000E+00
  0.00000000E+00
Coordinates of each shell                  R   N=         264
  4.43095449E+00  1.87071614E-06 -4.77043784E-01  4.43095449E+00  1.87071614E-06
 -4.77043784E-01  4.43095449E+00  1.87071614E-06 -4.77043784E-01  4.43095449E+00
  1.87071614E-06 -4.77043784E-01  4.43095449E+00  1.87071614E-06 -4.77043784E-01
  4.43095449E+00  1.87071614E-06 -4.77043784E-01  4.43095449E+00  1.87071614E-06
 -4.77043784E-01  4.43095449E+00  1.87071614E-06 -4.77043784E-01  4.43095449E+00
  1.87071614E-06 -4.77043784E-01  4.43095449E+00  1.87071614E-06 -4.77043784E-01
 -1.04732563E+00 -7.98424691E-06  1.39263624E+00 -1.04732563E+00 -7.98424691E-06
  1.39263624E+00 -1.04732563E+00 -7.98424691E-06  1.39263624E+00 -1.04732563E+00
 -7.98424691E-06  1.39263624E+00 -1.04732563E+00 -7.98424691E-06  1.39263624E+00
 -4.73113089E+00 -2.31549140E+00 -1.22892289E-01 -4.73113089E+00 -2.31549140E+00
 -1.22892289E-01 -4.73113089E+00 -2.31549140E+00 -1.22892289E-01 -4.73113089E+00
 -2.31549140E+00 -1.22892289E-01 -4.73113089E+00 -2.31549140E+00 -1.22892289E-01
 -4.73111861E+00  2.31550106E+00 -1.22881221E-01 -4.73111861E+00  2.31550106E+00
 -1.22881221E-01 -4.73111861E+00  2.31550106E+00 -1.22881221E-01 -4.73111861E+00
  2.31550106E+00 -1.22881221E-01 -4.73111861E+00  2.31550106E+00 -1.22881221E-01
 -2.28563566E+00  2.28609768E+00  8.85777333E-01 -2.28563566E+00  2.28609768E+00
  8.85777333E-01 -2.28563566E+00  2.28609768E+00  8.85777333E-01 -2.28563566E+00
  2.28609768E+00  8.85777333E-01 -2.28563566E+00  2.28609768E+00  8.85777333E-01
 -2.28564197E+00 -2.28610187E+00  8.85766737E-01 -2.28564197E+00 -2.28610187E+00
  8.85766737E-01 -2.28564197E+00 -2.28610187E+00  8.85766737E-01 -2.28564197E+00
 -2.28610187E+00  8.85766737E-01 -2.28564197E+00 -2.28610187E+00  8.85766737E-01
 -5.92358623E+00  5.83211020E-06 -6.13310925E-01 -5.92358623E+00  5.83211020E-06
 -6.13310925E-01 -5.92358623E+00  5.83211020E-06 -6.13310925E-01 -5.92358623E+00
  5.83211020E-06 -6.13310925E-01 -5.92358623E+00  5.83211020E-06 -6.13310925E-01
  1.55293287E+00 -1.32440438E-05  2.47400229E+00  1.55293287E+00 -1.32440438E-05
  2.47400229E+00  1.55293287E+00 -1.32440438E-05  2.47400229E+00  1.55293287E+00
 -1.32440438E-05  2.47400229E+00  1.55293287E+00 -1.32440438E-05  2.47400229E+00
 -6.07974428E+00 -4.77943298E+00 -6.07677069E-01 -6.07974428E+00 -4.77943298E+00
 -6.07677069E-01 -6.07974428E+00 -4.77943298E+00 -6.07677069E-01 -6.07974428E+00
 -4.77943298E+00 -6.07677069E-01 -6.07974428E+00 -4.77943298E+00 -6.07677069E-01
 -6.07974441E+00  4.77943444E+00 -6.07672706E-01 -6.07974441E+00  4.77943444E+00
 -6.07672706E-01 -6.07974441E+00  4.77943444E+00 -6.07672706E-01 -6.07974441E+00
  4.77943444E+00 -6.07672706E-01 -6.07974441E+00  4.77943444E+00 -6.07672706E-01
 -1.31252280E+00  4.06449335E+00  1.24973281E+00 -1.31252280E+00  4.06449335E+00
  1.24973281E+00 -1.31252280E+00  4.06449335E+00  1.24973281E+00 -1.31253738E+00
 -4.06450482E+00  1.24971276E+00 -1.31253738E+00 -4.06450482E+00  1.24971276E+00
 -1.31253738E+00 -4.06450482E+00  1.24971276E+00 -7.82325841E+00  1.33062606E-05
 -1.41016135E+00 -7.82325841E+00  1.33062606E-05 -1.41016135E+00 -7.82325841E+00
  1.33062606E-05 -1.41016135E+00  1.94170347E+00 -1.68675814E+00  3.58906828E+00
  1.94170347E+00 -1.68675814E+00  3.58906828E+00  1.94170347E+00 -1.68675814E+00
  3.58906828E+00  1.94170338E+00  1.68672197E+00  3.58908298E+00  1.94170338E+00
  1.68672197E+00  3.58908298E+00  1.94170338E+00  1.68672197E+00  3.58908298E+00
 -7.38133967E+00 -4.61551971E+00 -2.20266595E+00 -7.38133967E+00 -4.61551971E+00
 -2.20266595E+00 -7.38133967E+00 -4.61551971E+00 -2.20266595E+00 -7.18321679E+00
 -5.35431165E+00  1.04554331E+00 -7.18321679E+00 -5.35431165E+00  1.04554331E+00
 -7.18321679E+00 -5.35431165E+00  1.04554331E+00 -4.74028337E+00 -6.29433306E+00
 -1.02617761E+00 -4.74028337E+00 -6.29433306E+00 -1.02617761E+00 -4.74028337E+00
 -6.29433306E+00 -1.02617761E+00 -7.18385528E+00  5.35390989E+00  1.04526143E+00
 -7.18385528E+00  5.35390989E+00  1.04526143E+00 -7.18385528E+00  5.35390989E+00
  1.04526143E+00 -4.74025157E+00  6.29451520E+00 -1.02540975E+00 -4.74025157E+00
  6.29451520E+00 -1.02540975E+00 -4.74025157E+00  6.29451520E+00 -1.02540975E+00
 -7.38076091E+00  4.61572536E+00 -2.20315666E+00 -7.38076091E+00  4.61572536E+00
 -2.20315666E+00 -7.38076091E+00  4.61572536E+00 -2.20315666E+00
Constraint Structure                       R   N=          63
  4.43095449E+00  1.87071614E-06 -4.77043784E-01 -1.04732563E+00 -7.98424691E-06
  1.39263624E+00 -4.73113089E+00 -2.31549140E+00 -1.22892289E-01 -4.73111861E+00
  2.31550106E+00 -1.22881221E-01 -2.28563566E+00  2.28609768E+00  8.85777333E-01
 -2.28564197E+00 -2.28610187E+00  8.85766737E-01 -5.92358623E+00  5.83211020E-06
 -6.13310925E-01  1.55293287E+00 -1.32440438E-05  2.47400229E+00 -6.07974428E+00
 -4.77943298E+00 -6.07677069E-01 -6.07974441E+00  4.77943444E+00 -6.07672706E-01
 -1.31252280E+00  4.06449335E+00  1.24973281E+00 -1.31253738E+00 -4.06450482E+00
  1.24971276E+00 -7.82325841E+00  1.33062606E-05 -1.41016135E+00  1.94170347E+00
 -1.68675814E+00  3.58906828E+00  1.94170338E+00  1.68672197E+00  3.58908298E+00
 -7.38133967E+00 -4.61551971E+00 -2.20266595E+00 -7.18321679E+00 -5.35431165E+00
  1.04554331E+00 -4.74028337E+00 -6.29433306E+00 -1.02617761E+00 -7.18385528E+00
  5.35390989E+00  1.04526143E+00 -4.74025157E+00  6.29451520E+00 -1.02540975E+00
 -7.38076091E+00  4.61572536E+00 -2.20315666E+00
Num ILSW                                   I              100
ILSW                                       I   N=         100
           0           0           0           0           2           0
           0           0           0           0           0          -1
           0           0           0           0           0           0
           0           0           0           0           1           0
           1           0           0           0           0           0
           0           0      100000           0          -1           0
           0           0           0           0           0           0
           0           0           0           1           1           0
           0           0           1           0           0           0
           0           0           4          40           0           0
           0           0           0           0           0           0
           0           0           0           0           0           0
           0           0           0           0           0           0
           0           0           0           0           0           0
           0           0           0           0           0           0
           0           0           0           0           0           0
           0           0           0           0
Num RLSW                                   I               40
RLSW                                       R   N=          40
  1.00000000E+00  1.00000000E+00  1.00000000E+00  1.00000000E+00  1.00000000E+00
  0.00000000E+00  0.00000000E+00  1.00000000E+00  0.00000000E+00  0.00000000E+00
  0.00000000E+00  0.00000000E+00  1.00000000E+00  0.00000000E+00  0.00000000E+00
  0.00000000E+00  0.00000000E+00  1.00000000E+00  0.00000000E+00  0.00000000E+00
  0.00000000E+00  0.00000000E+00  1.00000000E+00  0.00000000E+00  0.00000000E+00
  0.00000000E+00  0.00000000E+00  1.00000000E+00  0.00000000E+00  0.00000000E+00
  0.00000000E+00  0.00000000E+00  0.00000000E+00  0.00000000E+00  0.00000000E+00
  0.00000000E+00  0.00000000E+00  0.00000000E+00  1.00000000E+00  1.00000000E+00
ECP-MxAtEC                                 I           250000
ECP-MaxLECP                                I               10
ECP-MaxAtL                                 I          2250000
ECP-MxTECP                                 I         11250000
ECP-LenNCZ                                 I               29
ECP-KFirst                                 I   N=         210
           1           0           0           0           0           0
           0           0           0           0           0           0
           0           0           0           0           0           0
           0           0           0           5           0           0
           0           0           0           0           0           0
           0           0           0           0           0           0
           0           0           0           0           0           0
          12           0           0           0           0           0
           0           0           0           0           0           0
           0           0           0           0           0           0
           0           0           0          20           0           0
           0           0           0           0           0           0
           0           0           0           0           0           0
           0           0           0           0           0           0
           0           0           0           0           0           0
           0           0           0           0           0           0
           0           0           0           0           0           0
           0           0           0           0           0           0
           0           0           0           0           0           0
           0           0           0           0           0           0
           0           0           0           0           0           0
           0           0           0           0           0           0
           0           0           0           0           0           0
           0           0           0           0           0           0
           0           0           0           0           0           0
           0           0           0           0           0           0
           0           0           0           0           0           0
           0           0           0           0           0           0
           0           0           0           0           0           0
           0           0           0           0           0           0
           0           0           0           0           0           0
           0           0           0           0           0           0