183_CitricAcid Gaussian SP Calculation on node58.bme.utexas.edu         
Freq      RMP2-FC                                                     6-31G(d)            
Number of atoms                            I               21
Info1-9                                    I   N=           9
          32          31        1002           0           0         100
           6           2           1
Charge                                     I                0
Multiplicity                               I                1
Number of electrons                        I              100
Number of alpha electrons                  I               50
Number of beta electrons                   I               50
Number of basis functions                  I              211
Number of independent functions            I              211
Number of point charges in /Mol/           I                0
Number of translation vectors              I                0
Atomic numbers                             I   N=          21
           8           8           8           8           8           8
           8           6           6           6           6           6
           6           1           1           1           1           1
           1           1           1
Nuclear charges                            R   N=          21
  8.00000000E+00  8.00000000E+00  8.00000000E+00  8.00000000E+00  8.00000000E+00
  8.00000000E+00  8.00000000E+00  6.00000000E+00  6.00000000E+00  6.00000000E+00
  6.00000000E+00  6.00000000E+00  6.00000000E+00  1.00000000E+00  1.00000000E+00
  1.00000000E+00  1.00000000E+00  1.00000000E+00  1.00000000E+00  1.00000000E+00
  1.00000000E+00
Current cartesian coordinates              R   N=          63
 -5.65536170E-01  1.28622900E-01 -2.69775387E+00  2.24445476E+00  3.27341523E+00
  2.60278189E+00  1.71413873E+00  4.48605209E+00 -1.48443010E+00  4.34581900E+00
 -4.57649172E+00 -3.75479761E-02 -6.53358270E+00  1.43694713E-01 -1.05157079E+00
  4.98264165E+00 -4.41964637E-01 -9.32280165E-01 -4.60230273E+00 -3.03482769E+00
  1.06218832E+00 -2.02131466E-01  5.88924158E-01 -8.36183049E-02  1.05762543E+00
 -1.74009105E+00  1.04379893E+00 -2.77819786E+00  1.17257121E+00  1.16075436E+00
  1.40966476E+00  2.95702408E+00  2.12554986E-01  3.63505549E+00 -2.11820711E+00
 -9.74061389E-02 -4.67913307E+00 -8.19562647E-01  4.26418464E-01 -1.28867575E-01
 -3.39117050E+00  6.99062902E-01  1.27258568E+00 -1.54141815E+00  3.09371914E+00
 -3.43993216E+00  3.01804972E+00  5.08047841E-01 -2.59267260E+00  1.20788524E+00
  3.22045759E+00 -7.58389234E-02  1.69051677E+00 -3.56330912E+00  3.20819887E+00
  4.85575155E+00  2.60549383E+00  6.04922039E+00 -4.62417045E+00 -7.63845657E-01
 -7.63505381E+00 -1.28740307E+00 -1.46573874E+00
Force Field                                I                0
Int Atom Types                             I   N=          21
           0           0           0           0           0           0
           0           0           0           0           0           0
           0           0           0           0           0           0
           0           0           0
MM charges                                 R   N=          21
  0.00000000E+00  0.00000000E+00  0.00000000E+00  0.00000000E+00  0.00000000E+00
  0.00000000E+00  0.00000000E+00  0.00000000E+00  0.00000000E+00  0.00000000E+00
  0.00000000E+00  0.00000000E+00  0.00000000E+00  0.00000000E+00  0.00000000E+00
  0.00000000E+00  0.00000000E+00  0.00000000E+00  0.00000000E+00  0.00000000E+00
  0.00000000E+00
Integer atomic weights                     I   N=          21
          16          16          16          16          16          16
          16          12          12          12          12          12
          12           1           1           1           1           1
           1           1           1
Real atomic weights                        R   N=          21
  1.59949146E+01  1.59949146E+01  1.59949146E+01  1.59949146E+01  1.59949146E+01
  1.59949146E+01  1.59949146E+01  1.20000000E+01  1.20000000E+01  1.20000000E+01
  1.20000000E+01  1.20000000E+01  1.20000000E+01  1.00782504E+00  1.00782504E+00
  1.00782504E+00  1.00782504E+00  1.00782504E+00  1.00782504E+00  1.00782504E+00
  1.00782504E+00
Atom fragment info                         I   N=          21
           0           0           0           0           0           0
           0           0           0           0           0           0
           0           0           0           0           0           0
           0           0           0
Atom residue num                           I   N=          21
           0           0           0           0           0           0
           0           0           0           0           0           0
           0           0           0           0           0           0
           0           0           0
Nuclear spins                              I   N=          21
           0           0           0           0           0           0
           0           0           0           0           0           0
           0           1           1           1           1           1
           1           1           1
Nuclear ZEff                               R   N=          21
 -5.60000000E+00 -5.60000000E+00 -5.60000000E+00 -5.60000000E+00 -5.60000000E+00
 -5.60000000E+00 -5.60000000E+00 -3.60000000E+00 -3.60000000E+00 -3.60000000E+00
 -3.60000000E+00 -3.60000000E+00 -3.60000000E+00 -1.00000000E+00 -1.00000000E+00
 -1.00000000E+00 -1.00000000E+00 -1.00000000E+00 -1.00000000E+00 -1.00000000E+00
 -1.00000000E+00
Nuclear QMom                               R   N=          21
  0.00000000E+00  0.00000000E+00  0.00000000E+00  0.00000000E+00  0.00000000E+00
  0.00000000E+00  0.00000000E+00  0.00000000E+00  0.00000000E+00  0.00000000E+00
  0.00000000E+00  0.00000000E+00  0.00000000E+00  0.00000000E+00  0.00000000E+00
  0.00000000E+00  0.00000000E+00  0.00000000E+00  0.00000000E+00  0.00000000E+00
  0.00000000E+00
Nuclear GFac                               R   N=          21
  0.00000000E+00  0.00000000E+00  0.00000000E+00  0.00000000E+00  0.00000000E+00
  0.00000000E+00  0.00000000E+00  0.00000000E+00  0.00000000E+00  0.00000000E+00
  0.00000000E+00  0.00000000E+00  0.00000000E+00  2.79284600E+00  2.79284600E+00
  2.79284600E+00  2.79284600E+00  2.79284600E+00  2.79284600E+00  2.79284600E+00
  2.79284600E+00
MicOpt                                     I   N=          21
          -1          -1          -1          -1          -1          -1
          -1          -1          -1          -1          -1          -1
          -1          -1          -1          -1          -1          -1
          -1          -1          -1
Number of contracted shells                I               68
Number of primitive shells                 I              175
Pure/Cartesian d shells                    I                1
Pure/Cartesian f shells                    I                0
Highest angular momentum                   I                2
Largest degree of contraction              I                6
Shell types                                I   N=          68
           0          -1          -1           2           0          -1
          -1           2           0          -1          -1           2
           0          -1          -1           2           0          -1
          -1           2           0          -1          -1           2
           0          -1          -1           2           0          -1
          -1           2           0          -1          -1           2
           0          -1          -1           2           0          -1
          -1           2           0          -1          -1           2
           0          -1          -1           2           0           0
           0           0           0           0           0           0
           0           0           0           0           0           0
           0           0
Number of primitives per shell             I   N=          68
           6           3           1           1           6           3
           1           1           6           3           1           1
           6           3           1           1           6           3
           1           1           6           3           1           1
           6           3           1           1           6           3
           1           1           6           3           1           1
           6           3           1           1           6           3
           1           1           6           3           1           1
           6           3           1           1           3           1
           3           1           3           1           3           1
           3           1           3           1           3           1
           3           1
Shell to atom map                          I   N=          68
           1           1           1           1           2           2
           2           2           3           3           3           3
           4           4           4           4           5           5
           5           5           6           6           6           6
           7           7           7           7           8           8
           8           8           9           9           9           9
          10          10          10          10          11          11
          11          11          12          12          12          12
          13          13          13          13          14          14
          15          15          16          16          17          17
          18          18          19          19          20          20
          21          21
Primitive exponents                        R   N=         175
  5.48467166E+03  8.25234946E+02  1.88046958E+02  5.29645000E+01  1.68975704E+01
  5.79963534E+00  1.55396162E+01  3.59993359E+00  1.01376175E+00  2.70005823E-01
  8.00000000E-01  5.48467166E+03  8.25234946E+02  1.88046958E+02  5.29645000E+01
  1.68975704E+01  5.79963534E+00  1.55396162E+01  3.59993359E+00  1.01376175E+00
  2.70005823E-01  8.00000000E-01  5.48467166E+03  8.25234946E+02  1.88046958E+02
  5.29645000E+01  1.68975704E+01  5.79963534E+00  1.55396162E+01  3.59993359E+00
  1.01376175E+00  2.70005823E-01  8.00000000E-01  5.48467166E+03  8.25234946E+02
  1.88046958E+02  5.29645000E+01  1.68975704E+01  5.79963534E+00  1.55396162E+01
  3.59993359E+00  1.01376175E+00  2.70005823E-01  8.00000000E-01  5.48467166E+03
  8.25234946E+02  1.88046958E+02  5.29645000E+01  1.68975704E+01  5.79963534E+00
  1.55396162E+01  3.59993359E+00  1.01376175E+00  2.70005823E-01  8.00000000E-01
  5.48467166E+03  8.25234946E+02  1.88046958E+02  5.29645000E+01  1.68975704E+01
  5.79963534E+00  1.55396162E+01  3.59993359E+00  1.01376175E+00  2.70005823E-01
  8.00000000E-01  5.48467166E+03  8.25234946E+02  1.88046958E+02  5.29645000E+01
  1.68975704E+01  5.79963534E+00  1.55396162E+01  3.59993359E+00  1.01376175E+00
  2.70005823E-01  8.00000000E-01  3.04752488E+03  4.57369518E+02  1.03948685E+02
  2.92101553E+01  9.28666296E+00  3.16392696E+00  7.86827235E+00  1.88128854E+00
  5.44249258E-01  1.68714478E-01  8.00000000E-01  3.04752488E+03  4.57369518E+02
  1.03948685E+02  2.92101553E+01  9.28666296E+00  3.16392696E+00  7.86827235E+00
  1.88128854E+00  5.44249258E-01  1.68714478E-01  8.00000000E-01  3.04752488E+03
  4.57369518E+02  1.03948685E+02  2.92101553E+01  9.28666296E+00  3.16392696E+00
  7.86827235E+00  1.88128854E+00  5.44249258E-01  1.68714478E-01  8.00000000E-01
  3.04752488E+03  4.57369518E+02  1.03948685E+02  2.92101553E+01  9.28666296E+00
  3.16392696E+00  7.86827235E+00  1.88128854E+00  5.44249258E-01  1.68714478E-01
  8.00000000E-01  3.04752488E+03  4.57369518E+02  1.03948685E+02  2.92101553E+01
  9.28666296E+00  3.16392696E+00  7.86827235E+00  1.88128854E+00  5.44249258E-01
  1.68714478E-01  8.00000000E-01  3.04752488E+03  4.57369518E+02  1.03948685E+02
  2.92101553E+01  9.28666296E+00  3.16392696E+00  7.86827235E+00  1.88128854E+00
  5.44249258E-01  1.68714478E-01  8.00000000E-01  1.87311370E+01  2.82539436E+00
  6.40121692E-01  1.61277759E-01  1.87311370E+01  2.82539436E+00  6.40121692E-01
  1.61277759E-01  1.87311370E+01  2.82539436E+00  6.40121692E-01  1.61277759E-01
  1.87311370E+01  2.82539436E+00  6.40121692E-01  1.61277759E-01  1.87311370E+01
  2.82539436E+00  6.40121692E-01  1.61277759E-01  1.87311370E+01  2.82539436E+00
  6.40121692E-01  1.61277759E-01  1.87311370E+01  2.82539436E+00  6.40121692E-01
  1.61277759E-01  1.87311370E+01  2.82539436E+00  6.40121692E-01  1.61277759E-01
Contraction coefficients                   R   N=         175
  1.83107443E-03  1.39501722E-02  6.84450781E-02  2.32714336E-01  4.70192898E-01
  3.58520853E-01 -1.10777550E-01 -1.48026263E-01  1.13076702E+00  1.00000000E+00
  1.00000000E+00  1.83107443E-03  1.39501722E-02  6.84450781E-02  2.32714336E-01
  4.70192898E-01  3.58520853E-01 -1.10777550E-01 -1.48026263E-01  1.13076702E+00
  1.00000000E+00  1.00000000E+00  1.83107443E-03  1.39501722E-02  6.84450781E-02
  2.32714336E-01  4.70192898E-01  3.58520853E-01 -1.10777550E-01 -1.48026263E-01
  1.13076702E+00  1.00000000E+00  1.00000000E+00  1.83107443E-03  1.39501722E-02
  6.84450781E-02  2.32714336E-01  4.70192898E-01  3.58520853E-01 -1.10777550E-01
 -1.48026263E-01  1.13076702E+00  1.00000000E+00  1.00000000E+00  1.83107443E-03
  1.39501722E-02  6.84450781E-02  2.32714336E-01  4.70192898E-01  3.58520853E-01
 -1.10777550E-01 -1.48026263E-01  1.13076702E+00  1.00000000E+00  1.00000000E+00
  1.83107443E-03  1.39501722E-02  6.84450781E-02  2.32714336E-01  4.70192898E-01
  3.58520853E-01 -1.10777550E-01 -1.48026263E-01  1.13076702E+00  1.00000000E+00
  1.00000000E+00  1.83107443E-03  1.39501722E-02  6.84450781E-02  2.32714336E-01
  4.70192898E-01  3.58520853E-01 -1.10777550E-01 -1.48026263E-01  1.13076702E+00
  1.00000000E+00  1.00000000E+00  1.83473713E-03  1.40373228E-02  6.88426223E-02
  2.32184443E-01  4.67941348E-01  3.62311985E-01 -1.19332420E-01 -1.60854152E-01
  1.14345644E+00  1.00000000E+00  1.00000000E+00  1.83473713E-03  1.40373228E-02
  6.88426223E-02  2.32184443E-01  4.67941348E-01  3.62311985E-01 -1.19332420E-01
 -1.60854152E-01  1.14345644E+00  1.00000000E+00  1.00000000E+00  1.83473713E-03
  1.40373228E-02  6.88426223E-02  2.32184443E-01  4.67941348E-01  3.62311985E-01
 -1.19332420E-01 -1.60854152E-01  1.14345644E+00  1.00000000E+00  1.00000000E+00
  1.83473713E-03  1.40373228E-02  6.88426223E-02  2.32184443E-01  4.67941348E-01
  3.62311985E-01 -1.19332420E-01 -1.60854152E-01  1.14345644E+00  1.00000000E+00
  1.00000000E+00  1.83473713E-03  1.40373228E-02  6.88426223E-02  2.32184443E-01
  4.67941348E-01  3.62311985E-01 -1.19332420E-01 -1.60854152E-01  1.14345644E+00
  1.00000000E+00  1.00000000E+00  1.83473713E-03  1.40373228E-02  6.88426223E-02
  2.32184443E-01  4.67941348E-01  3.62311985E-01 -1.19332420E-01 -1.60854152E-01
  1.14345644E+00  1.00000000E+00  1.00000000E+00  3.34946043E-02  2.34726953E-01
  8.13757326E-01  1.00000000E+00  3.34946043E-02  2.34726953E-01  8.13757326E-01
  1.00000000E+00  3.34946043E-02  2.34726953E-01  8.13757326E-01  1.00000000E+00
  3.34946043E-02  2.34726953E-01  8.13757326E-01  1.00000000E+00  3.34946043E-02
  2.34726953E-01  8.13757326E-01  1.00000000E+00  3.34946043E-02  2.34726953E-01
  8.13757326E-01  1.00000000E+00  3.34946043E-02  2.34726953E-01  8.13757326E-01
  1.00000000E+00  3.34946043E-02  2.34726953E-01  8.13757326E-01  1.00000000E+00
P(S=P) Contraction coefficients            R   N=         175
  0.00000000E+00  0.00000000E+00  0.00000000E+00  0.00000000E+00  0.00000000E+00
  0.00000000E+00  7.08742682E-02  3.39752839E-01  7.27158577E-01  1.00000000E+00
  0.00000000E+00  0.00000000E+00  0.00000000E+00  0.00000000E+00  0.00000000E+00
  0.00000000E+00  0.00000000E+00  7.08742682E-02  3.39752839E-01  7.27158577E-01
  1.00000000E+00  0.00000000E+00  0.00000000E+00  0.00000000E+00  0.00000000E+00
  0.00000000E+00  0.00000000E+00  0.00000000E+00  7.08742682E-02  3.39752839E-01
  7.27158577E-01  1.00000000E+00  0.00000000E+00  0.00000000E+00  0.00000000E+00
  0.00000000E+00  0.00000000E+00  0.00000000E+00  0.00000000E+00  7.08742682E-02
  3.39752839E-01  7.27158577E-01  1.00000000E+00  0.00000000E+00  0.00000000E+00
  0.00000000E+00  0.00000000E+00  0.00000000E+00  0.00000000E+00  0.00000000E+00
  7.08742682E-02  3.39752839E-01  7.27158577E-01  1.00000000E+00  0.00000000E+00
  0.00000000E+00  0.00000000E+00  0.00000000E+00  0.00000000E+00  0.00000000E+00
  0.00000000E+00  7.08742682E-02  3.39752839E-01  7.27158577E-01  1.00000000E+00
  0.00000000E+00  0.00000000E+00  0.00000000E+00  0.00000000E+00  0.00000000E+00
  0.00000000E+00  0.00000000E+00  7.08742682E-02  3.39752839E-01  7.27158577E-01
  1.00000000E+00  0.00000000E+00  0.00000000E+00  0.00000000E+00  0.00000000E+00
  0.00000000E+00  0.00000000E+00  0.00000000E+00  6.89990666E-02  3.16423961E-01
  7.44308291E-01  1.00000000E+00  0.00000000E+00  0.00000000E+00  0.00000000E+00
  0.00000000E+00  0.00000000E+00  0.00000000E+00  0.00000000E+00  6.89990666E-02
  3.16423961E-01  7.44308291E-01  1.00000000E+00  0.00000000E+00  0.00000000E+00
  0.00000000E+00  0.00000000E+00  0.00000000E+00  0.00000000E+00  0.00000000E+00
  6.89990666E-02  3.16423961E-01  7.44308291E-01  1.00000000E+00  0.00000000E+00
  0.00000000E+00  0.00000000E+00  0.00000000E+00  0.00000000E+00  0.00000000E+00
  0.00000000E+00  6.89990666E-02  3.16423961E-01  7.44308291E-01  1.00000000E+00
  0.00000000E+00  0.00000000E+00  0.00000000E+00  0.00000000E+00  0.00000000E+00
  0.00000000E+00  0.00000000E+00  6.89990666E-02  3.16423961E-01  7.44308291E-01
  1.00000000E+00  0.00000000E+00  0.00000000E+00  0.00000000E+00  0.00000000E+00
  0.00000000E+00  0.00000000E+00  0.00000000E+00  6.89990666E-02  3.16423961E-01
  7.44308291E-01  1.00000000E+00  0.00000000E+00  0.00000000E+00  0.00000000E+00
  0.00000000E+00  0.00000000E+00  0.00000000E+00  0.00000000E+00  0.00000000E+00
  0.00000000E+00  0.00000000E+00  0.00000000E+00  0.00000000E+00  0.00000000E+00
  0.00000000E+00  0.00000000E+00  0.00000000E+00  0.00000000E+00  0.00000000E+00
  0.00000000E+00  0.00000000E+00  0.00000000E+00  0.00000000E+00  0.00000000E+00
  0.00000000E+00  0.00000000E+00  0.00000000E+00  0.00000000E+00  0.00000000E+00
  0.00000000E+00  0.00000000E+00  0.00000000E+00  0.00000000E+00  0.00000000E+00
Coordinates of each shell                  R   N=         204
 -5.65536170E-01  1.28622900E-01 -2.69775387E+00 -5.65536170E-01  1.28622900E-01
 -2.69775387E+00 -5.65536170E-01  1.28622900E-01 -2.69775387E+00 -5.65536170E-01
  1.28622900E-01 -2.69775387E+00  2.24445476E+00  3.27341523E+00  2.60278189E+00
  2.24445476E+00  3.27341523E+00  2.60278189E+00  2.24445476E+00  3.27341523E+00
  2.60278189E+00  2.24445476E+00  3.27341523E+00  2.60278189E+00  1.71413873E+00
  4.48605209E+00 -1.48443010E+00  1.71413873E+00  4.48605209E+00 -1.48443010E+00
  1.71413873E+00  4.48605209E+00 -1.48443010E+00  1.71413873E+00  4.48605209E+00
 -1.48443010E+00  4.34581900E+00 -4.57649172E+00 -3.75479761E-02  4.34581900E+00
 -4.57649172E+00 -3.75479761E-02  4.34581900E+00 -4.57649172E+00 -3.75479761E-02
  4.34581900E+00 -4.57649172E+00 -3.75479761E-02 -6.53358270E+00  1.43694713E-01
 -1.05157079E+00 -6.53358270E+00  1.43694713E-01 -1.05157079E+00 -6.53358270E+00
  1.43694713E-01 -1.05157079E+00 -6.53358270E+00  1.43694713E-01 -1.05157079E+00
  4.98264165E+00 -4.41964637E-01 -9.32280165E-01  4.98264165E+00 -4.41964637E-01
 -9.32280165E-01  4.98264165E+00 -4.41964637E-01 -9.32280165E-01  4.98264165E+00
 -4.41964637E-01 -9.32280165E-01 -4.60230273E+00 -3.03482769E+00  1.06218832E+00
 -4.60230273E+00 -3.03482769E+00  1.06218832E+00 -4.60230273E+00 -3.03482769E+00
  1.06218832E+00 -4.60230273E+00 -3.03482769E+00  1.06218832E+00 -2.02131466E-01
  5.88924158E-01 -8.36183049E-02 -2.02131466E-01  5.88924158E-01 -8.36183049E-02
 -2.02131466E-01  5.88924158E-01 -8.36183049E-02 -2.02131466E-01  5.88924158E-01
 -8.36183049E-02  1.05762543E+00 -1.74009105E+00  1.04379893E+00  1.05762543E+00
 -1.74009105E+00  1.04379893E+00  1.05762543E+00 -1.74009105E+00  1.04379893E+00
  1.05762543E+00 -1.74009105E+00  1.04379893E+00 -2.77819786E+00  1.17257121E+00
  1.16075436E+00 -2.77819786E+00  1.17257121E+00  1.16075436E+00 -2.77819786E+00
  1.17257121E+00  1.16075436E+00 -2.77819786E+00  1.17257121E+00  1.16075436E+00
  1.40966476E+00  2.95702408E+00  2.12554986E-01  1.40966476E+00  2.95702408E+00
  2.12554986E-01  1.40966476E+00  2.95702408E+00  2.12554986E-01  1.40966476E+00
  2.95702408E+00  2.12554986E-01  3.63505549E+00 -2.11820711E+00 -9.74061389E-02
  3.63505549E+00 -2.11820711E+00 -9.74061389E-02  3.63505549E+00 -2.11820711E+00
 -9.74061389E-02  3.63505549E+00 -2.11820711E+00 -9.74061389E-02 -4.67913307E+00
 -8.19562647E-01  4.26418464E-01 -4.67913307E+00 -8.19562647E-01  4.26418464E-01
 -4.67913307E+00 -8.19562647E-01  4.26418464E-01 -4.67913307E+00 -8.19562647E-01
  4.26418464E-01 -1.28867575E-01 -3.39117050E+00  6.99062902E-01 -1.28867575E-01
 -3.39117050E+00  6.99062902E-01  1.27258568E+00 -1.54141815E+00  3.09371914E+00
  1.27258568E+00 -1.54141815E+00  3.09371914E+00 -3.43993216E+00  3.01804972E+00
  5.08047841E-01 -3.43993216E+00  3.01804972E+00  5.08047841E-01 -2.59267260E+00
  1.20788524E+00  3.22045759E+00 -2.59267260E+00  1.20788524E+00  3.22045759E+00
 -7.58389234E-02  1.69051677E+00 -3.56330912E+00 -7.58389234E-02  1.69051677E+00
 -3.56330912E+00  3.20819887E+00  4.85575155E+00  2.60549383E+00  3.20819887E+00
  4.85575155E+00  2.60549383E+00  6.04922039E+00 -4.62417045E+00 -7.63845657E-01
  6.04922039E+00 -4.62417045E+00 -7.63845657E-01 -7.63505381E+00 -1.28740307E+00
 -1.46573874E+00 -7.63505381E+00 -1.28740307E+00 -1.46573874E+00
Constraint Structure                       R   N=          63
 -5.65536170E-01  1.28622900E-01 -2.69775387E+00  2.24445476E+00  3.27341523E+00
  2.60278189E+00  1.71413873E+00  4.48605209E+00 -1.48443010E+00  4.34581900E+00
 -4.57649172E+00 -3.75479761E-02 -6.53358270E+00  1.43694713E-01 -1.05157079E+00
  4.98264165E+00 -4.41964637E-01 -9.32280165E-01 -4.60230273E+00 -3.03482769E+00
  1.06218832E+00 -2.02131466E-01  5.88924158E-01 -8.36183049E-02  1.05762543E+00
 -1.74009105E+00  1.04379893E+00 -2.77819786E+00  1.17257121E+00  1.16075436E+00
  1.40966476E+00  2.95702408E+00  2.12554986E-01  3.63505549E+00 -2.11820711E+00
 -9.74061389E-02 -4.67913307E+00 -8.19562647E-01  4.26418464E-01 -1.28867575E-01
 -3.39117050E+00  6.99062902E-01  1.27258568E+00 -1.54141815E+00  3.09371914E+00
 -3.43993216E+00  3.01804972E+00  5.08047841E-01 -2.59267260E+00  1.20788524E+00
  3.22045759E+00 -7.58389234E-02  1.69051677E+00 -3.56330912E+00  3.20819887E+00
  4.85575155E+00  2.60549383E+00  6.04922039E+00 -4.62417045E+00 -7.63845657E-01
 -7.63505381E+00 -1.28740307E+00 -1.46573874E+00
Num ILSW                                   I              100
ILSW                                       I   N=         100
           0           1           0           0           2           0
           0           0           0           0           0          -1
           0           0           0           0           0           0
           0           0           0           0           1           0
           1           0           0           0           0           0
           0           0      100000           0          -1           0
           0           0           0           0           0           0
           0           0           0           1           1           0
           0           0           1           0           0           0
           0           0           4          40           0           0
           0           0           0           0           0           0
           0           0           0           0           0           0
           0           0           0           0           0           0
           0           0           0           0           0           0
           0           0           0           0           0           0
           0           0           0           0           0           0
           0           0           0           0
Num RLSW                                   I               40
RLSW                                       R   N=          40
  1.00000000E+00  1.00000000E+00  1.00000000E+00  1.00000000E+00  1.00000000E+00
  0.00000000E+00  0.00000000E+00  1.00000000E+00  0.00000000E+00  0.00000000E+00
  0.00000000E+00  0.00000000E+00  1.00000000E+00  0.00000000E+00  0.00000000E+00
  0.00000000E+00  0.00000000E+00  1.00000000E+00  0.00000000E+00  0.00000000E+00
  0.00000000E+00  0.00000000E+00  1.00000000E+00  0.00000000E+00  0.00000000E+00
  0.00000000E+00  0.00000000E+00  1.00000000E+00  0.00000000E+00  0.00000000E+00
  0.00000000E+00  0.00000000E+00  0.00000000E+00  0.00000000E+00  0.00000000E+00
  0.00000000E+00  0.00000000E+00  0.00000000E+00  1.00000000E+00  1.00000000E+00
MxBond                                     I                4
NBond                                      I   N=          21
           2           2           1           2           2           1
           1           4           4           4           3           3
           3           1           1           1           1           1
           1           1           1
IBond                                      I   N=          84
           8          18           0           0          11          19
           0           0          11           0           0           0
          12          20           0           0          13          21
           0           0          12           0           0           0
          13           0           0           0           1           9
          10          11           8          12          14          15
           8          13          16          17           2           3
           8           0           4           6           9           0
           5           7          10           0           9           0
           0           0           9           0           0           0
          10           0           0           0          10           0
           0           0           1           0           0           0
           2           0           0           0           4           0
           0           0           5           0           0           0
RBond                                      R   N=          84
  1.00000000E+00  1.00000000E+00  0.00000000E+00  0.00000000E+00  1.50000000E+00
  1.00000000E+00  0.00000000E+00  0.00000000E+00  2.00000000E+00  0.00000000E+00
  0.00000000E+00  0.00000000E+00  1.50000000E+00  1.00000000E+00  0.00000000E+00
  0.00000000E+00  1.50000000E+00  1.00000000E+00  0.00000000E+00  0.00000000E+00
  2.00000000E+00  0.00000000E+00  0.00000000E+00  0.00000000E+00  2.00000000E+00
  0.00000000E+00  0.00000000E+00  0.00000000E+00  1.00000000E+00  1.00000000E+00
  1.00000000E+00  1.00000000E+00  1.00000000E+00  1.00000000E+00  1.00000000E+00
  1.00000000E+00  1.00000000E+00  1.00000000E+00  1.00000000E+00  1.00000000E+00
  1.50000000E+00  2.00000000E+00  1.00000000E+00  0.00000000E+00  1.50000000E+00
  2.00000000E+00  1.00000000E+00  0.00000000E+00  1.50000000E+00  2.00000000E+00
  1.00000000E+00  0.00000000E+00  1.00000000E+00  0.00000000E+00  0.00000000E+00
  0.00000000E+00  1.00000000E+00  0.00000000E+00  0.00000000E+00  0.00000000E+00
  1.00000000E+00  0.00000000E+00  0.00000000E+00  0.00000000E+00  1.00000000E+00
  0.00000000E+00  0.00000000E+00  0.00000000E+00  1.00000000E+00  0.00000000E+00
  0.00000000E+00  0.00000000E+00  1.00000000E+00  0.00000000E+00  0.00000000E+00
  0.00000000E+00  1.00000000E+00  0.00000000E+00  0.00000000E+00  0.00000000E+00
  1.00000000E+00  0.00000000E+00  0.00000000E+00  0.00000000E+00
Virial Ratio                               R      2.003148496744481E+00
SCF Energy                                 R     -7.559500766863953E+02
MP2 Energy                                 R     -7.579674602526692E+02
Total Energy                               R     -7.579674602526692E+02
Post-SCF wavefunction norm                 R      1.787942659376020E+00
RMS Force                                  R      2.338682998328232E-07
RMS Density                                R      2.777786352256043E-09
External E-field                           R   N=          35
  0.00000000E+00  0.00000000E+00  0.00000000E+00  0.00000000E+00  0.00000000E+00
  0.00000000E+00  0.00000000E+00  0.00000000E+00  0.00000000E+00  0.00000000E+00
  0.00000000E+00  0.00000000E+00  0.00000000E+00  0.00000000E+00  0.00000000E+00
  0.00000000E+00  0.00000000E+00  0.00000000E+00  0.00000000E+00  0.00000000E+00
  0.00000000E+00  0.00000000E+00  0.00000000E+00  0.00000000E+00  0.00000000E+00
  0.00000000E+00  0.00000000E+00  0.00000000E+00  0.00000000E+00  0.00000000E+00
  0.00000000E+00  0.00000000E+00  0.00000000E+00  0.00000000E+00  0.00000000E+00
IOpCl                                      I                0
IROHF                                      I                0
Alpha Orbital Energies                     R   N=         211
 -2.06436982E+01 -2.06302372E+01 -2.06288947E+01 -2.05820832E+01 -2.05789878E+01
 -2.05682126E+01 -2.05679787E+01 -1.14136774E+01 -1.14072546E+01 -1.14040102E+01
 -1.13378847E+01 -1.12701610E+01 -1.12584978E+01 -1.48367955E+00 -1.46866770E+00
 -1.46727627E+00 -1.39552647E+00 -1.36932329E+00 -1.36452002E+00 -1.36292808E+00
 -1.11389715E+00 -1.03566775E+00 -9.49803742E-01 -8.49933186E-01 -8.26426283E-01
 -7.91902927E-01 -7.56061794E-01 -7.23008356E-01 -7.12395194E-01 -7.10483985E-01
 -7.00236446E-01 -6.86372481E-01 -6.64398518E-01 -6.48871009E-01 -6.39619932E-01
 -6.32678685E-01 -6.17628410E-01 -5.98877247E-01 -5.89161096E-01 -5.75163977E-01
 -5.57534244E-01 -5.54882982E-01 -5.40881606E-01 -4.99833462E-01 -4.87596278E-01