17595                                                                   
Freq      RMP2-FC                                                     6-31G(d)            
Number of atoms                            I               19
Info1-9                                    I   N=           9
          31          29        1002           0           0         100
           6           2           1
Charge                                     I                0
Multiplicity                               I                1
Number of electrons                        I               62
Number of alpha electrons                  I               31
Number of beta electrons                   I               31
Number of basis functions                  I              142
Number of independent functions            I              142
Number of point charges in /Mol/           I                0
Number of translation vectors              I                0
Atomic numbers                             I   N=          19
           8           7           6           6           6           6
           6           6           1           1           1           1
           1           1           1           1           1           1
           1
Nuclear charges                            R   N=          19
  8.00000000E+00  7.00000000E+00  6.00000000E+00  6.00000000E+00  6.00000000E+00
  6.00000000E+00  6.00000000E+00  6.00000000E+00  1.00000000E+00  1.00000000E+00
  1.00000000E+00  1.00000000E+00  1.00000000E+00  1.00000000E+00  1.00000000E+00
  1.00000000E+00  1.00000000E+00  1.00000000E+00  1.00000000E+00
Current cartesian coordinates              R   N=          57
 -1.91686402E-02  3.91340054E+00 -2.15505682E-01  4.44461029E-01 -4.11413622E-01
 -6.77224415E-01 -9.27542588E-01 -2.71042328E+00 -5.49501996E-02 -3.68546578E+00
 -1.81100887E+00 -9.12386372E-02 -3.49393245E+00  9.44801769E-01  7.57960107E-01
 -8.66047510E-01  1.75095112E+00 -9.63439619E-02  3.14021376E+00 -3.48599470E-01
 -1.17444253E+00  4.72032819E+00 -6.26258413E-01  1.22088340E+00 -3.89378248E-01
 -3.44180225E+00  1.81580250E+00 -5.39300145E-01 -4.18793856E+00 -1.45259455E+00
 -4.90417679E+00 -2.96893989E+00  1.10896091E+00 -4.40809007E+00 -1.90605214E+00
 -2.02590262E+00 -3.57477616E+00  1.12093643E+00  2.82206279E+00 -4.93342604E+00
  2.19621024E+00 -3.11266169E-02  3.58146183E+00 -1.84719968E+00 -2.53428570E+00
  3.51923394E+00  1.47177437E+00 -2.07280246E+00  4.29433588E+00  9.21673999E-01
  2.51937982E+00  4.33345525E+00 -2.41869746E+00  2.17395948E+00  6.73746077E+00
 -5.64051232E-01  7.69953764E-01
Force Field                                I                0
Int Atom Types                             I   N=          19
           0           0           0           0           0           0
           0           0           0           0           0           0
           0           0           0           0           0           0
           0
MM charges                                 R   N=          19
  0.00000000E+00  0.00000000E+00  0.00000000E+00  0.00000000E+00  0.00000000E+00
  0.00000000E+00  0.00000000E+00  0.00000000E+00  0.00000000E+00  0.00000000E+00
  0.00000000E+00  0.00000000E+00  0.00000000E+00  0.00000000E+00  0.00000000E+00
  0.00000000E+00  0.00000000E+00  0.00000000E+00  0.00000000E+00
Integer atomic weights                     I   N=          19
          16          14          12          12          12          12
          12          12           1           1           1           1
           1           1           1           1           1           1
           1
Real atomic weights                        R   N=          19
  1.59949146E+01  1.40030740E+01  1.20000000E+01  1.20000000E+01  1.20000000E+01
  1.20000000E+01  1.20000000E+01  1.20000000E+01  1.00782504E+00  1.00782504E+00
  1.00782504E+00  1.00782504E+00  1.00782504E+00  1.00782504E+00  1.00782504E+00
  1.00782504E+00  1.00782504E+00  1.00782504E+00  1.00782504E+00
Atom fragment info                         I   N=          19
           0           0           0           0           0           0
           0           0           0           0           0           0
           0           0           0           0           0           0
           0
Atom residue num                           I   N=          19
           0           0           0           0           0           0
           0           0           0           0           0           0
           0           0           0           0           0           0
           0
Nuclear spins                              I   N=          19
           0           2           0           0           0           0
           0           0           1           1           1           1
           1           1           1           1           1           1
           1
Nuclear ZEff                               R   N=          19
 -5.60000000E+00 -4.55000000E+00 -3.60000000E+00 -3.60000000E+00 -3.60000000E+00
 -3.60000000E+00 -3.60000000E+00 -3.60000000E+00 -1.00000000E+00 -1.00000000E+00
 -1.00000000E+00 -1.00000000E+00 -1.00000000E+00 -1.00000000E+00 -1.00000000E+00
 -1.00000000E+00 -1.00000000E+00 -1.00000000E+00 -1.00000000E+00
Nuclear QMom                               R   N=          19
  0.00000000E+00  2.04400000E+00  0.00000000E+00  0.00000000E+00  0.00000000E+00
  0.00000000E+00  0.00000000E+00  0.00000000E+00  0.00000000E+00  0.00000000E+00
  0.00000000E+00  0.00000000E+00  0.00000000E+00  0.00000000E+00  0.00000000E+00
  0.00000000E+00  0.00000000E+00  0.00000000E+00  0.00000000E+00
Nuclear GFac                               R   N=          19
  0.00000000E+00  4.03761000E-01  0.00000000E+00  0.00000000E+00  0.00000000E+00
  0.00000000E+00  0.00000000E+00  0.00000000E+00  2.79284600E+00  2.79284600E+00
  2.79284600E+00  2.79284600E+00  2.79284600E+00  2.79284600E+00  2.79284600E+00
  2.79284600E+00  2.79284600E+00  2.79284600E+00  2.79284600E+00
MicOpt                                     I   N=          19
          -1          -1          -1          -1          -1          -1
          -1          -1          -1          -1          -1          -1
          -1          -1          -1          -1          -1          -1
          -1
Number of contracted shells                I               54
Number of primitive shells                 I              132
Pure/Cartesian d shells                    I                1
Pure/Cartesian f shells                    I                0
Highest angular momentum                   I                2
Largest degree of contraction              I                6
Shell types                                I   N=          54
           0          -1          -1           2           0          -1
          -1           2           0          -1          -1           2
           0          -1          -1           2           0          -1
          -1           2           0          -1          -1           2
           0          -1          -1           2           0          -1
          -1           2           0           0           0           0
           0           0           0           0           0           0
           0           0           0           0           0           0
           0           0           0           0           0           0
Number of primitives per shell             I   N=          54
           6           3           1           1           6           3
           1           1           6           3           1           1
           6           3           1           1           6           3
           1           1           6           3           1           1
           6           3           1           1           6           3
           1           1           3           1           3           1
           3           1           3           1           3           1
           3           1           3           1           3           1
           3           1           3           1           3           1
Shell to atom map                          I   N=          54
           1           1           1           1           2           2
           2           2           3           3           3           3
           4           4           4           4           5           5
           5           5           6           6           6           6
           7           7           7           7           8           8
           8           8           9           9          10          10
          11          11          12          12          13          13
          14          14          15          15          16          16
          17          17          18          18          19          19
Primitive exponents                        R   N=         132
  5.48467166E+03  8.25234946E+02  1.88046958E+02  5.29645000E+01  1.68975704E+01
  5.79963534E+00  1.55396162E+01  3.59993359E+00  1.01376175E+00  2.70005823E-01
  8.00000000E-01  4.17351146E+03  6.27457911E+02  1.42902093E+02  4.02343293E+01
  1.28202129E+01  4.39043701E+00  1.16263619E+01  2.71627981E+00  7.72218397E-01
  2.12031498E-01  8.00000000E-01  3.04752488E+03  4.57369518E+02  1.03948685E+02
  2.92101553E+01  9.28666296E+00  3.16392696E+00  7.86827235E+00  1.88128854E+00
  5.44249258E-01  1.68714478E-01  8.00000000E-01  3.04752488E+03  4.57369518E+02
  1.03948685E+02  2.92101553E+01  9.28666296E+00  3.16392696E+00  7.86827235E+00
  1.88128854E+00  5.44249258E-01  1.68714478E-01  8.00000000E-01  3.04752488E+03
  4.57369518E+02  1.03948685E+02  2.92101553E+01  9.28666296E+00  3.16392696E+00
  7.86827235E+00  1.88128854E+00  5.44249258E-01  1.68714478E-01  8.00000000E-01
  3.04752488E+03  4.57369518E+02  1.03948685E+02  2.92101553E+01  9.28666296E+00
  3.16392696E+00  7.86827235E+00  1.88128854E+00  5.44249258E-01  1.68714478E-01
  8.00000000E-01  3.04752488E+03  4.57369518E+02  1.03948685E+02  2.92101553E+01
  9.28666296E+00  3.16392696E+00  7.86827235E+00  1.88128854E+00  5.44249258E-01
  1.68714478E-01  8.00000000E-01  3.04752488E+03  4.57369518E+02  1.03948685E+02
  2.92101553E+01  9.28666296E+00  3.16392696E+00  7.86827235E+00  1.88128854E+00
  5.44249258E-01  1.68714478E-01  8.00000000E-01  1.87311370E+01  2.82539436E+00
  6.40121692E-01  1.61277759E-01  1.87311370E+01  2.82539436E+00  6.40121692E-01
  1.61277759E-01  1.87311370E+01  2.82539436E+00  6.40121692E-01  1.61277759E-01
  1.87311370E+01  2.82539436E+00  6.40121692E-01  1.61277759E-01  1.87311370E+01
  2.82539436E+00  6.40121692E-01  1.61277759E-01  1.87311370E+01  2.82539436E+00
  6.40121692E-01  1.61277759E-01  1.87311370E+01  2.82539436E+00  6.40121692E-01
  1.61277759E-01  1.87311370E+01  2.82539436E+00  6.40121692E-01  1.61277759E-01
  1.87311370E+01  2.82539436E+00  6.40121692E-01  1.61277759E-01  1.87311370E+01
  2.82539436E+00  6.40121692E-01  1.61277759E-01  1.87311370E+01  2.82539436E+00
  6.40121692E-01  1.61277759E-01
Contraction coefficients                   R   N=         132
  1.83107443E-03  1.39501722E-02  6.84450781E-02  2.32714336E-01  4.70192898E-01
  3.58520853E-01 -1.10777550E-01 -1.48026263E-01  1.13076702E+00  1.00000000E+00
  1.00000000E+00  1.83477216E-03  1.39946270E-02  6.85865518E-02  2.32240873E-01
  4.69069948E-01  3.60455199E-01 -1.14961182E-01 -1.69117479E-01  1.14585195E+00
  1.00000000E+00  1.00000000E+00  1.83473713E-03  1.40373228E-02  6.88426223E-02
  2.32184443E-01  4.67941348E-01  3.62311985E-01 -1.19332420E-01 -1.60854152E-01
  1.14345644E+00  1.00000000E+00  1.00000000E+00  1.83473713E-03  1.40373228E-02
  6.88426223E-02  2.32184443E-01  4.67941348E-01  3.62311985E-01 -1.19332420E-01
 -1.60854152E-01  1.14345644E+00  1.00000000E+00  1.00000000E+00  1.83473713E-03
  1.40373228E-02  6.88426223E-02  2.32184443E-01  4.67941348E-01  3.62311985E-01
 -1.19332420E-01 -1.60854152E-01  1.14345644E+00  1.00000000E+00  1.00000000E+00
  1.83473713E-03  1.40373228E-02  6.88426223E-02  2.32184443E-01  4.67941348E-01
  3.62311985E-01 -1.19332420E-01 -1.60854152E-01  1.14345644E+00  1.00000000E+00
  1.00000000E+00  1.83473713E-03  1.40373228E-02  6.88426223E-02  2.32184443E-01
  4.67941348E-01  3.62311985E-01 -1.19332420E-01 -1.60854152E-01  1.14345644E+00
  1.00000000E+00  1.00000000E+00  1.83473713E-03  1.40373228E-02  6.88426223E-02
  2.32184443E-01  4.67941348E-01  3.62311985E-01 -1.19332420E-01 -1.60854152E-01
  1.14345644E+00  1.00000000E+00  1.00000000E+00  3.34946043E-02  2.34726953E-01
  8.13757326E-01  1.00000000E+00  3.34946043E-02  2.34726953E-01  8.13757326E-01
  1.00000000E+00  3.34946043E-02  2.34726953E-01  8.13757326E-01  1.00000000E+00
  3.34946043E-02  2.34726953E-01  8.13757326E-01  1.00000000E+00  3.34946043E-02
  2.34726953E-01  8.13757326E-01  1.00000000E+00  3.34946043E-02  2.34726953E-01
  8.13757326E-01  1.00000000E+00  3.34946043E-02  2.34726953E-01  8.13757326E-01
  1.00000000E+00  3.34946043E-02  2.34726953E-01  8.13757326E-01  1.00000000E+00
  3.34946043E-02  2.34726953E-01  8.13757326E-01  1.00000000E+00  3.34946043E-02
  2.34726953E-01  8.13757326E-01  1.00000000E+00  3.34946043E-02  2.34726953E-01
  8.13757326E-01  1.00000000E+00
P(S=P) Contraction coefficients            R   N=         132
  0.00000000E+00  0.00000000E+00  0.00000000E+00  0.00000000E+00  0.00000000E+00
  0.00000000E+00  7.08742682E-02  3.39752839E-01  7.27158577E-01  1.00000000E+00
  0.00000000E+00  0.00000000E+00  0.00000000E+00  0.00000000E+00  0.00000000E+00
  0.00000000E+00  0.00000000E+00  6.75797439E-02  3.23907296E-01  7.40895140E-01
  1.00000000E+00  0.00000000E+00  0.00000000E+00  0.00000000E+00  0.00000000E+00
  0.00000000E+00  0.00000000E+00  0.00000000E+00  6.89990666E-02  3.16423961E-01
  7.44308291E-01  1.00000000E+00  0.00000000E+00  0.00000000E+00  0.00000000E+00
  0.00000000E+00  0.00000000E+00  0.00000000E+00  0.00000000E+00  6.89990666E-02
  3.16423961E-01  7.44308291E-01  1.00000000E+00  0.00000000E+00  0.00000000E+00
  0.00000000E+00  0.00000000E+00  0.00000000E+00  0.00000000E+00  0.00000000E+00
  6.89990666E-02  3.16423961E-01  7.44308291E-01  1.00000000E+00  0.00000000E+00
  0.00000000E+00  0.00000000E+00  0.00000000E+00  0.00000000E+00  0.00000000E+00
  0.00000000E+00  6.89990666E-02  3.16423961E-01  7.44308291E-01  1.00000000E+00
  0.00000000E+00  0.00000000E+00  0.00000000E+00  0.00000000E+00  0.00000000E+00
  0.00000000E+00  0.00000000E+00  6.89990666E-02  3.16423961E-01  7.44308291E-01
  1.00000000E+00  0.00000000E+00  0.00000000E+00  0.00000000E+00  0.00000000E+00
  0.00000000E+00  0.00000000E+00  0.00000000E+00  6.89990666E-02  3.16423961E-01
  7.44308291E-01  1.00000000E+00  0.00000000E+00  0.00000000E+00  0.00000000E+00
  0.00000000E+00  0.00000000E+00  0.00000000E+00  0.00000000E+00  0.00000000E+00
  0.00000000E+00  0.00000000E+00  0.00000000E+00  0.00000000E+00  0.00000000E+00
  0.00000000E+00  0.00000000E+00  0.00000000E+00  0.00000000E+00  0.00000000E+00
  0.00000000E+00  0.00000000E+00  0.00000000E+00  0.00000000E+00  0.00000000E+00
  0.00000000E+00  0.00000000E+00  0.00000000E+00  0.00000000E+00  0.00000000E+00
  0.00000000E+00  0.00000000E+00  0.00000000E+00  0.00000000E+00  0.00000000E+00
  0.00000000E+00  0.00000000E+00  0.00000000E+00  0.00000000E+00  0.00000000E+00
  0.00000000E+00  0.00000000E+00  0.00000000E+00  0.00000000E+00  0.00000000E+00
  0.00000000E+00  0.00000000E+00
Coordinates of each shell                  R   N=         162
 -1.91686402E-02  3.91340054E+00 -2.15505682E-01 -1.91686402E-02  3.91340054E+00
 -2.15505682E-01 -1.91686402E-02  3.91340054E+00 -2.15505682E-01 -1.91686402E-02
  3.91340054E+00 -2.15505682E-01  4.44461029E-01 -4.11413622E-01 -6.77224415E-01
  4.44461029E-01 -4.11413622E-01 -6.77224415E-01  4.44461029E-01 -4.11413622E-01
 -6.77224415E-01  4.44461029E-01 -4.11413622E-01 -6.77224415E-01 -9.27542588E-01
 -2.71042328E+00 -5.49501996E-02 -9.27542588E-01 -2.71042328E+00 -5.49501996E-02
 -9.27542588E-01 -2.71042328E+00 -5.49501996E-02 -9.27542588E-01 -2.71042328E+00
 -5.49501996E-02 -3.68546578E+00 -1.81100887E+00 -9.12386372E-02 -3.68546578E+00
 -1.81100887E+00 -9.12386372E-02 -3.68546578E+00 -1.81100887E+00 -9.12386372E-02
 -3.68546578E+00 -1.81100887E+00 -9.12386372E-02 -3.49393245E+00  9.44801769E-01
  7.57960107E-01 -3.49393245E+00  9.44801769E-01  7.57960107E-01 -3.49393245E+00
  9.44801769E-01  7.57960107E-01 -3.49393245E+00  9.44801769E-01  7.57960107E-01
 -8.66047510E-01  1.75095112E+00 -9.63439619E-02 -8.66047510E-01  1.75095112E+00
 -9.63439619E-02 -8.66047510E-01  1.75095112E+00 -9.63439619E-02 -8.66047510E-01
  1.75095112E+00 -9.63439619E-02  3.14021376E+00 -3.48599470E-01 -1.17444253E+00
  3.14021376E+00 -3.48599470E-01 -1.17444253E+00  3.14021376E+00 -3.48599470E-01
 -1.17444253E+00  3.14021376E+00 -3.48599470E-01 -1.17444253E+00  4.72032819E+00
 -6.26258413E-01  1.22088340E+00  4.72032819E+00 -6.26258413E-01  1.22088340E+00
  4.72032819E+00 -6.26258413E-01  1.22088340E+00  4.72032819E+00 -6.26258413E-01
  1.22088340E+00 -3.89378248E-01 -3.44180225E+00  1.81580250E+00 -3.89378248E-01
 -3.44180225E+00  1.81580250E+00 -5.39300145E-01 -4.18793856E+00 -1.45259455E+00
 -5.39300145E-01 -4.18793856E+00 -1.45259455E+00 -4.90417679E+00 -2.96893989E+00
  1.10896091E+00 -4.90417679E+00 -2.96893989E+00  1.10896091E+00 -4.40809007E+00
 -1.90605214E+00 -2.02590262E+00 -4.40809007E+00 -1.90605214E+00 -2.02590262E+00
 -3.57477616E+00  1.12093643E+00  2.82206279E+00 -3.57477616E+00  1.12093643E+00
  2.82206279E+00 -4.93342604E+00  2.19621024E+00 -3.11266169E-02 -4.93342604E+00
  2.19621024E+00 -3.11266169E-02  3.58146183E+00 -1.84719968E+00 -2.53428570E+00
  3.58146183E+00 -1.84719968E+00 -2.53428570E+00  3.51923394E+00  1.47177437E+00
 -2.07280246E+00  3.51923394E+00  1.47177437E+00 -2.07280246E+00  4.29433588E+00
  9.21673999E-01  2.51937982E+00  4.29433588E+00  9.21673999E-01  2.51937982E+00
  4.33345525E+00 -2.41869746E+00  2.17395948E+00  4.33345525E+00 -2.41869746E+00
  2.17395948E+00  6.73746077E+00 -5.64051232E-01  7.69953764E-01  6.73746077E+00
 -5.64051232E-01  7.69953764E-01
Constraint Structure                       R   N=          57
 -1.91686402E-02  3.91340054E+00 -2.15505682E-01  4.44461029E-01 -4.11413622E-01
 -6.77224415E-01 -9.27542588E-01 -2.71042328E+00 -5.49501996E-02 -3.68546578E+00
 -1.81100887E+00 -9.12386372E-02 -3.49393245E+00  9.44801769E-01  7.57960107E-01
 -8.66047510E-01  1.75095112E+00 -9.63439619E-02  3.14021376E+00 -3.48599470E-01
 -1.17444253E+00  4.72032819E+00 -6.26258413E-01  1.22088340E+00 -3.89378248E-01
 -3.44180225E+00  1.81580250E+00 -5.39300145E-01 -4.18793856E+00 -1.45259455E+00
 -4.90417679E+00 -2.96893989E+00  1.10896091E+00 -4.40809007E+00 -1.90605214E+00
 -2.02590262E+00 -3.57477616E+00  1.12093643E+00  2.82206279E+00 -4.93342604E+00
  2.19621024E+00 -3.11266169E-02  3.58146183E+00 -1.84719968E+00 -2.53428570E+00
  3.51923394E+00  1.47177437E+00 -2.07280246E+00  4.29433588E+00  9.21673999E-01
  2.51937982E+00  4.33345525E+00 -2.41869746E+00  2.17395948E+00  6.73746077E+00
 -5.64051232E-01  7.69953764E-01
Num ILSW                                   I              100
ILSW                                       I   N=         100
           0           1           0           1           2           0
           0           0           0           0           0          -1
           0           0           0           0           0           0
           0           0           0           0           1           0
           1           0           0           0           0           0
           0           0      100000           0          -1           0
           0           0           0           0           0           0
           0           0           0           1           1           0
           0           0           1           0           0           0
           0           0           4          40           0           0
           0           0           0           0           0           0
           0           0           0           0           0           0
           0           0           0           0           0           0
           0           0           0           0           0           0
           0           0           0           0           0           0
           0           0           0           0           0           0
           0           0           0           0
Num RLSW                                   I               40
RLSW                                       R   N=          40
  1.00000000E+00  1.00000000E+00  1.00000000E+00  1.00000000E+00  1.00000000E+00
  0.00000000E+00  0.00000000E+00  1.00000000E+00  0.00000000E+00  0.00000000E+00
  0.00000000E+00  0.00000000E+00  1.00000000E+00  0.00000000E+00  0.00000000E+00
  0.00000000E+00  0.00000000E+00  1.00000000E+00  0.00000000E+00  0.00000000E+00
  0.00000000E+00  0.00000000E+00  1.00000000E+00  0.00000000E+00  0.00000000E+00
  0.00000000E+00  0.00000000E+00  1.00000000E+00  0.00000000E+00  0.00000000E+00
  0.00000000E+00  0.00000000E+00  0.00000000E+00  0.00000000E+00  0.00000000E+00
  0.00000000E+00  0.00000000E+00  0.00000000E+00  1.00000000E+00  1.00000000E+00
MxBond                                     I                4
NBond                                      I   N=          19
           1           3           4           4           4           3
           4           4           1           1           1           1
           1           1           1           1           1           1
           1
IBond                                      I   N=          76
           6           0           0           0           3           6
           7           0           2           4           9          10
           3           5          11          12           4           6
          13          14           1           2           5           0
           2           8          15          16           7          17
          18          19           3           0           0           0
           3           0           0           0           4           0
           0           0           4           0           0           0
           5           0           0           0           5           0
           0           0           7           0           0           0
           7           0           0           0           8           0
           0           0           8           0           0           0
           8           0           0           0
RBond                                      R   N=          76
  2.00000000E+00  0.00000000E+00  0.00000000E+00  0.00000000E+00  1.00000000E+00
  1.00000000E+00  1.00000000E+00  0.00000000E+00  1.00000000E+00  1.00000000E+00
  1.00000000E+00  1.00000000E+00  1.00000000E+00  1.00000000E+00  1.00000000E+00
  1.00000000E+00  1.00000000E+00  1.00000000E+00  1.00000000E+00  1.00000000E+00
  2.00000000E+00  1.00000000E+00  1.00000000E+00  0.00000000E+00  1.00000000E+00
  1.00000000E+00  1.00000000E+00  1.00000000E+00  1.00000000E+00  1.00000000E+00
  1.00000000E+00  1.00000000E+00  1.00000000E+00  0.00000000E+00  0.00000000E+00
  0.00000000E+00  1.00000000E+00  0.00000000E+00  0.00000000E+00  0.00000000E+00
  1.00000000E+00  0.00000000E+00  0.00000000E+00  0.00000000E+00  1.00000000E+00
  0.00000000E+00  0.00000000E+00  0.00000000E+00  1.00000000E+00  0.00000000E+00
  0.00000000E+00  0.00000000E+00  1.00000000E+00  0.00000000E+00  0.00000000E+00
  0.00000000E+00  1.00000000E+00  0.00000000E+00  0.00000000E+00  0.00000000E+00
  1.00000000E+00  0.00000000E+00  0.00000000E+00  0.00000000E+00  1.00000000E+00
  0.00000000E+00  0.00000000E+00  0.00000000E+00  1.00000000E+00  0.00000000E+00
  0.00000000E+00  0.00000000E+00  1.00000000E+00  0.00000000E+00  0.00000000E+00
  0.00000000E+00
Virial Ratio                               R      2.002058863974988E+00
SCF Energy                                 R     -3.629461418866733E+02
MP2 Energy                                 R     -3.640615340518834E+02
Total Energy                               R     -3.640615340518834E+02
Post-SCF wavefunction norm                 R      1.648554645490338E+00
RMS Force                                  R      6.298198550161863E-07
RMS Density                                R      2.354403223219793E-09
External E-field                           R   N=          35
  0.00000000E+00  0.00000000E+00  0.00000000E+00  0.00000000E+00  0.00000000E+00
  0.00000000E+00  0.00000000E+00  0.00000000E+00  0.00000000E+00  0.00000000E+00
  0.00000000E+00  0.00000000E+00  0.00000000E+00  0.00000000E+00  0.00000000E+00
  0.00000000E+00  0.00000000E+00  0.00000000E+00  0.00000000E+00  0.00000000E+00
  0.00000000E+00  0.00000000E+00  0.00000000E+00  0.00000000E+00  0.00000000E+00
  0.00000000E+00  0.00000000E+00  0.00000000E+00  0.00000000E+00  0.00000000E+00
  0.00000000E+00  0.00000000E+00  0.00000000E+00  0.00000000E+00  0.00000000E+00
IOpCl                                      I                0
IROHF                                      I                0
Alpha Orbital Energies                     R   N=         142
 -2.05165675E+01 -1.55835009E+01 -1.13428710E+01 -1.12747159E+01 -1.12605415E+01
 -1.12425383E+01 -1.12391286E+01 -1.12182895E+01 -1.36368911E+00 -1.25626757E+00
 -1.08720902E+00 -9.99603024E-01 -9.71153695E-01 -8.68994628E-01 -8.28224607E-01
 -7.24526818E-01 -6.91609215E-01 -6.65209540E-01 -6.36687794E-01 -6.03103393E-01
 -5.87997399E-01 -5.69544808E-01 -5.60846799E-01 -5.52599267E-01 -5.21368708E-01
 -5.11524498E-01 -5.08869085E-01 -4.88491340E-01 -4.74700686E-01 -4.03356558E-01
 -3.63668380E-01  1.96095762E-01  2.17354397E-01  2.41688761E-01  2.59828325E-01
  2.78844874E-01  2.92698851E-01  3.03910619E-01  3.19150210E-01  3.19710182E-01
  3.29233418E-01  3.45033247E-01  3.60142583E-01  3.70810421E-01  3.75229432E-01
  3.95601150E-01  4.12216392E-01  4.53247912E-01  4.73176545E-01  5.06043281E-01
  6.22341092E-01  6.96281418E-01  7.16726907E-01  7.20200904E-01  7.30638744E-01
  7.59791861E-01  7.65493629E-01  7.95213796E-01  8.05270177E-01  8.66381753E-01
  8.95749237E-01  9.00950671E-01  9.10278302E-01  9.33928693E-01  9.60079593E-01
  9.90148052E-01  1.01940556E+00  1.07044746E+00  1.07616640E+00  1.10002567E+00
  1.11037628E+00  1.12340312E+00  1.12755659E+00  1.13978617E+00  1.15606925E+00
  1.16190514E+00  1.17202302E+00  1.19544037E+00  1.20728891E+00  1.21425235E+00
  1.24447139E+00  1.25918014E+00  1.26246249E+00  1.31434441E+00  1.37706642E+00
  1.38497538E+00  1.39738350E+00  1.47220991E+00  1.53819291E+00  1.59833558E+00
  1.63576854E+00  1.69309284E+00  1.74021849E+00  1.79158303E+00  1.87010374E+00
  1.92872403E+00  1.98812096E+00  2.03485773E+00  2.03948530E+00  2.08828569E+00
  2.10685702E+00  2.13831205E+00  2.14677967E+00  2.15722280E+00  2.20084513E+00
  2.22614783E+00  2.24675445E+00  2.28997179E+00  2.30425959E+00  2.32103875E+00
  2.34005286E+00  2.37991048E+00  2.41091395E+00  2.45667934E+00  2.47644463E+00
  2.54534407E+00  2.60307444E+00  2.61636528E+00  2.62720067E+00  2.66491592E+00
  2.70402594E+00  2.73578414E+00  2.79412438E+00  2.81925856E+00  2.83442749E+00
  2.94159038E+00  2.96666487E+00  2.98422027E+00  3.04390591E+00  3.08189976E+00
  3.12757358E+00  3.31370311E+00  3.42789021E+00  3.55052357E+00  4.44977754E+00
  4.49615141E+00  4.60223058E+00  4.65268944E+00  4.77308973E+00  4.87095607E+00
  4.95636273E+00  5.08526535E+00
Alpha MO coefficients                      R   N=       20164
  9.94689264E-01  2.09608053E-02 -5.39725853E-04 -1.45008536E-03  7.00721787E-05
  4.55123317E-03  1.02922004E-05  2.59698222E-05 -2.12856307E-06 -3.89334616E-03
 -3.68099229E-03 -4.09595306E-03  1.16952268E-04 -6.90767327E-05 -4.49295700E-06
 -6.34628167E-06 -3.43318381E-05  1.71013440E-06 -2.50821841E-05 -4.46895091E-06
  5.29133706E-05 -8.82640432E-05  5.31566119E-05  6.58162815E-05  7.59052495E-05
 -6.77067326E-05 -3.24877182E-05 -5.31113933E-05 -4.77281419E-05  1.23462909E-05
  2.54191933E-06  2.59406074E-05  5.72337432E-06 -2.18121154E-06  3.37431896E-06
 -9.29950494E-05  4.47830197E-05 -8.11470146E-05 -8.81731274E-05  1.66558546E-05
 -2.33067071E-05  6.10023013E-06  1.84428434E-05 -8.94183814E-06 -6.66726305E-06
  8.57321240E-07  2.19631813E-05 -4.50800238E-07 -3.03884876E-06 -7.97739869E-06
 -3.13539760E-06 -2.46209494E-05 -5.90037736E-05  9.17864027E-05 -7.69406728E-06
 -9.60885182E-06  6.26958658E-09 -1.84789150E-05 -4.89525066E-07  4.11513298E-06
 -1.66558543E-06 -1.86151512E-05  2.75265162E-06 -1.77127409E-05 -1.54885492E-06
 -2.91288970E-05 -2.15232863E-05 -2.22733684E-07 -3.10301629E-05  3.55849637E-05
 -2.64630239E-05 -8.49331885E-06 -3.95796098E-05 -2.54299458E-05  1.96774175E-05
 -7.57014350E-06  5.18322473E-04 -1.43922666E-05 -3.21796004E-06  1.69550223E-06
 -4.50874785E-04 -1.94431883E-04 -4.88997312E-04  3.41885222E-05 -1.59426136E-04
 -7.19849545E-04 -5.28704209E-05 -2.83708634E-04  1.61319323E-05  3.85434792E-05
 -3.03171180E-06 -1.08047122E-06  8.02154183E-06  7.04189601E-06  1.15300587E-05
  1.42090135E-04  5.82022904E-06 -1.30334551E-05 -9.08381456E-05 -3.59843653E-05
 -2.61006394E-06 -5.36716954E-06 -6.81663712E-06  5.02769007E-06  3.39232242E-06
 -3.06649970E-06 -1.22469059E-05 -3.30907632E-06 -2.68587977E-06 -3.08813894E-06
  8.73767150E-05 -1.21379860E-05  3.35537203E-05  1.12616452E-05 -1.82582130E-06
 -3.40527929E-06 -8.19598061E-06 -2.24701640E-06  8.61350667E-07 -3.04610379E-06
  1.54322959E-05  2.35746350E-05 -4.97918623E-06 -4.63309659E-05 -7.00879888E-06
 -4.97518967E-05  1.39490004E-05  2.99074876E-05  1.25678508E-05 -2.20373120E-07
  5.22001185E-06 -1.78952596E-05 -1.54582127E-05 -5.12563741E-05  1.81320084E-05
 -1.21050055E-04  9.80869248E-06 -6.04853776E-05 -2.43534675E-06  2.85122824E-06
 -4.48717006E-06 -3.73340124E-06 -1.47684241E-05 -9.67497159E-05  9.84445207E-06
  1.24485711E-05  2.77103649E-06  5.96266450E-04 -2.97179512E-04  1.75351689E-06