
    -----------------------------------------------------------------------
          Psi4: An Open-Source Ab Initio Electronic Structure Package
                               Psi4 1.3.2 release

                         Git: Rev {HEAD} ecbda83 


    R. M. Parrish, L. A. Burns, D. G. A. Smith, A. C. Simmonett,
    A. E. DePrince III, E. G. Hohenstein, U. Bozkaya, A. Yu. Sokolov,
    R. Di Remigio, R. M. Richard, J. F. Gonthier, A. M. James,
    H. R. McAlexander, A. Kumar, M. Saitow, X. Wang, B. P. Pritchard,
    P. Verma, H. F. Schaefer III, K. Patkowski, R. A. King, E. F. Valeev,
    F. A. Evangelista, J. M. Turney, T. D. Crawford, and C. D. Sherrill,
    J. Chem. Theory Comput. 13(7) pp 3185--3197 (2017).
    (doi: 10.1021/acs.jctc.7b00174)


                         Additional Contributions by
    P. Kraus, H. Kruse, M. H. Lechner, M. C. Schieber, R. A. Shaw,
    A. Alenaizan, R. Galvelis, Z. L. Glick, S. Lehtola, and J. P. Misiewicz

    -----------------------------------------------------------------------


    Psi4 started on: Tuesday, 02 February 2021 04:59PM

    Process ID: 1929421
    Host:       node58.bme.utexas.edu
    PSIDATADIR: /home/xy3866/psi4conda/share/psi4
    Memory:     500.0 MiB
    Threads:    8
    
  ==> Input File <==

--------------------------------------------------------------------------
#psi4
#
memory 32 gb

molecule  {
0 1
  O       -0.8874150    -1.1053680    -0.0000120
  N       -0.2975850     1.0586860     0.0000180
  C        1.5208660    -0.6926320     0.0000250
  C        0.1840801    -0.2522004     0.0000028
  C        2.5397680     0.4426120    -0.0000230
  C       -2.0377090    -0.3588510    -0.0000130
  C       -1.6838560     0.9546860     0.0000050
  H        1.6599850    -1.3368650     0.8764330
  H        1.6599860    -1.3369460    -0.8763220
  H        2.4145620     1.0741370    -0.8814520
  H        3.5546530     0.0364140    -0.0000210
  H        2.4145820     1.0741970     0.8813660
  H       -2.9679600    -0.9049730    -0.0000050
  H       -2.3195540     1.8284960    -0.0000070
units angstrom
no_reorient  #important for SAPT in psi4, default
symmetry c1  #important for SAPT in psi4, default
}

set PROPERTIES_ORIGIN ["COM"]
properties('MP2/aug-cc-pvtz', properties = ['dipole'])
--------------------------------------------------------------------------

  Memory set to  29.802 GiB by Python driver.
    SCF Algorithm Type (re)set to DF.

*** tstart() called on node58.bme.utexas.edu
*** at Tue Feb  2 16:59:39 2021

   => Loading Basis Set <=

    Name: AUG-CC-PVTZ
    Role: ORBITAL
    Keyword: BASIS
    atoms 1    entry O          line   327 file /home/xy3866/psi4conda/share/psi4/basis/aug-cc-pvtz.gbs 
    atoms 2    entry N          line   281 file /home/xy3866/psi4conda/share/psi4/basis/aug-cc-pvtz.gbs 
    atoms 3-7  entry C          line   235 file /home/xy3866/psi4conda/share/psi4/basis/aug-cc-pvtz.gbs 
    atoms 8-14 entry H          line    36 file /home/xy3866/psi4conda/share/psi4/basis/aug-cc-pvtz.gbs 


         ---------------------------------------------------------
                                   SCF
               by Justin Turney, Rob Parrish, Andy Simmonett
                          and Daniel G. A. Smith
                              RHF Reference
                        8 Threads,  30517 MiB Core
         ---------------------------------------------------------

  ==> Geometry <==

    Molecular point group: c1
    Full point group: C1

    Geometry (in Angstrom), charge = 0, multiplicity = 1:

       Center              X                  Y                   Z               Mass       
    ------------   -----------------  -----------------  -----------------  -----------------
         O           -0.829539457691    -1.092033258537    -0.000012140684    15.994914619570
         N           -0.239709457691     1.072020741463     0.000017859316    14.003074004430
         C            1.578741542309    -0.679297258537     0.000024859316    12.000000000000
         C            0.241955642309    -0.238865658537     0.000002659316    12.000000000000
         C            2.597643542309     0.455946741463    -0.000023140684    12.000000000000
         C           -1.979833457691    -0.345516258537    -0.000013140684    12.000000000000
         C           -1.625980457691     0.968020741463     0.000004859316    12.000000000000
         H            1.717860542309    -1.323530258537     0.876432859316     1.007825032230
         H            1.717861542309    -1.323611258537    -0.876322140684     1.007825032230
         H            2.472437542309     1.087471741463    -0.881452140684     1.007825032230
         H            3.612528542309     0.049748741463    -0.000021140684     1.007825032230
         H            2.472457542309     1.087531741463     0.881365859316     1.007825032230
         H           -2.910084457691    -0.891638258537    -0.000005140684     1.007825032230
         H           -2.261678457691     1.841830741463    -0.000007140684     1.007825032230

  Running in c1 symmetry.

  Rotational constants: A =      0.24147  B =      0.06733  C =      0.05369 [cm^-1]
  Rotational constants: A =   7239.10689  B =   2018.40313  C =   1609.64172 [MHz]
  Nuclear repulsion =  291.652289730794621

  Charge       = 0
  Multiplicity = 1
  Electrons    = 52
  Nalpha       = 26
  Nbeta        = 26

  ==> Algorithm <==

  SCF Algorithm Type is DF.
  DIIS enabled.
  MOM disabled.
  Fractional occupation disabled.
  Guess Type is SAD.
  Energy threshold   = 1.00e-10
  Density threshold  = 1.00e-10
  Integral threshold = 0.00e+00

  ==> Primary Basis <==

  Basis Set: AUG-CC-PVTZ
    Blend: AUG-CC-PVTZ
    Number of shells: 161
    Number of basis function: 483
    Number of Cartesian functions: 560
    Spherical Harmonics?: true
    Max angular momentum: 3

   => Loading Basis Set <=

    Name: (AUG-CC-PVTZ AUX)
    Role: JKFIT
    Keyword: DF_BASIS_SCF
    atoms 1    entry O          line   286 file /home/xy3866/psi4conda/share/psi4/basis/aug-cc-pvtz-jkfit.gbs 
    atoms 2    entry N          line   224 file /home/xy3866/psi4conda/share/psi4/basis/aug-cc-pvtz-jkfit.gbs 
    atoms 3-7  entry C          line   162 file /home/xy3866/psi4conda/share/psi4/basis/aug-cc-pvtz-jkfit.gbs 
    atoms 8-14 entry H          line    70 file /home/xy3866/psi4conda/share/psi4/basis/aug-cc-pvtz-jkfit.gbs 

  ==> Pre-Iterations <==

   -------------------------------------------------------
    Irrep   Nso     Nmo     Nalpha   Nbeta   Ndocc  Nsocc
   -------------------------------------------------------
     A        483     483       0       0       0       0
   -------------------------------------------------------
    Total     483     483      26      26      26       0
   -------------------------------------------------------

  ==> Integral Setup <==

  DFHelper Memory: AOs need 1.836 GiB; user supplied 22.352 GiB. Using in-core AOs.

  ==> MemDFJK: Density-Fitted J/K Matrices <==

    J tasked:                   Yes
    K tasked:                   Yes
    wK tasked:                   No
    OpenMP threads:               8
    Memory [MiB]:             22888
    Algorithm:                 Core
    Schwarz Cutoff:           1E-12
    Mask sparsity (%):       3.2055
    Fitting Condition:        1E-10

   => Auxiliary Basis Set <=

  Basis Set: (AUG-CC-PVTZ AUX)
    Blend: AUG-CC-PVTZ-JKFIT
    Number of shells: 308
    Number of basis function: 1050
    Number of Cartesian functions: 1302
    Spherical Harmonics?: true
    Max angular momentum: 4

  Minimum eigenvalue in the overlap matrix is 4.6428254135E-06.
  Using Symmetric Orthogonalization.

  SCF Guess: Superposition of Atomic Densities via on-the-fly atomic UHF.

  ==> Iterations <==

                           Total Energy        Delta E     RMS |[F,P]|

   @DF-RHF iter SAD:  -322.15519941454625   -3.22155e+02   0.00000e+00 
   @DF-RHF iter   1:  -322.59700487374477   -4.41805e-01   1.23617e-03 DIIS
   @DF-RHF iter   2:  -322.75766301308312   -1.60658e-01   6.56242e-04 DIIS
   @DF-RHF iter   3:  -322.80112166795283   -4.34587e-02   1.75744e-04 DIIS
   @DF-RHF iter   4:  -322.80517678898036   -4.05512e-03   7.49969e-05 DIIS
   @DF-RHF iter   5:  -322.80592068279032   -7.43894e-04   1.19364e-05 DIIS
   @DF-RHF iter   6:  -322.80595301347097   -3.23307e-05   5.47920e-06 DIIS
   @DF-RHF iter   7:  -322.80595856554532   -5.55207e-06   1.97447e-06 DIIS
   @DF-RHF iter   8:  -322.80595973790656   -1.17236e-06   7.60265e-07 DIIS
   @DF-RHF iter   9:  -322.80595997786423   -2.39958e-07   2.68777e-07 DIIS
   @DF-RHF iter  10:  -322.80595999995160   -2.20874e-08   9.54983e-08 DIIS
   @DF-RHF iter  11:  -322.80596000400357   -4.05197e-09   4.23499e-08 DIIS
   @DF-RHF iter  12:  -322.80596000466102   -6.57451e-10   1.74569e-08 DIIS
   @DF-RHF iter  13:  -322.80596000481404   -1.53022e-10   7.64707e-09 DIIS
   @DF-RHF iter  14:  -322.80596000484422   -3.01839e-11   1.81723e-09 DIIS
   @DF-RHF iter  15:  -322.80596000484604   -1.81899e-12   7.10866e-10 DIIS
   @DF-RHF iter  16:  -322.80596000484542    6.25278e-13   3.82146e-10 DIIS
   @DF-RHF iter  17:  -322.80596000484576   -3.41061e-13   1.19346e-10 DIIS
   @DF-RHF iter  18:  -322.80596000484599   -2.27374e-13   4.40091e-11 DIIS
  Energy and wave function converged.


  ==> Post-Iterations <==

    Orbital Energies [Eh]
    ---------------------

    Doubly Occupied:                                                      

       1A    -20.636738     2A    -15.561805     3A    -11.346359  
       4A    -11.287762     5A    -11.258509     6A    -11.249011  
       7A    -11.225580     8A     -1.471406     9A     -1.195378  
      10A     -1.101870    11A     -0.995125    12A     -0.897644  
      13A     -0.819806    14A     -0.777299    15A     -0.715596  
      16A     -0.669230    17A     -0.639749    18A     -0.611190  
      19A     -0.585264    20A     -0.564505    21A     -0.539257  
      22A     -0.519425    23A     -0.511280    24A     -0.442244  
      25A     -0.434611    26A     -0.320609  

    Virtual:                                                              

      27A      0.028347    28A      0.031662    29A      0.038813  
      30A      0.043339    31A      0.049051    32A      0.055196  
      33A      0.065764    34A      0.089759    35A      0.090709  
      36A      0.092509    37A      0.102988    38A      0.108337  
      39A      0.112544    40A      0.119288    41A      0.126715  
      42A      0.131238    43A      0.132196    44A      0.137408  
      45A      0.139156    46A      0.139361    47A      0.146755  
      48A      0.156651    49A      0.165961    50A      0.168976  
      51A      0.186961    52A      0.201044    53A      0.213058  
      54A      0.217581    55A      0.218787    56A      0.223271  
      57A      0.228453    58A      0.235254    59A      0.241733  
      60A      0.256068    61A      0.260932    62A      0.270385  
      63A      0.277896    64A      0.281418    65A      0.286715  
      66A      0.294983    67A      0.298301    68A      0.304556  
      69A      0.319310    70A      0.331714    71A      0.338472  
      72A      0.342229    73A      0.351212    74A      0.358172  
      75A      0.360702    76A      0.367015    77A      0.374470  
      78A      0.382014    79A      0.390941    80A      0.391851  
      81A      0.395096    82A      0.397327    83A      0.405889  
      84A      0.413567    85A      0.416495    86A      0.423569  
      87A      0.430937    88A      0.431656    89A      0.445157  
      90A      0.452086    91A      0.457426    92A      0.462302  
      93A      0.464752    94A      0.474466    95A      0.482816  
      96A      0.488973    97A      0.492464    98A      0.495031  
      99A      0.502490   100A      0.504296   101A      0.519772  
     102A      0.521060   103A      0.525850   104A      0.528757  
     105A      0.533973   106A      0.547015   107A      0.547547  
     108A      0.556274   109A      0.568964   110A      0.572840  
     111A      0.588933   112A      0.593949   113A      0.610009  
     114A      0.611408   115A      0.624764   116A      0.647385  
     117A      0.647961   118A      0.652151   119A      0.662281  
     120A      0.672815   121A      0.696181   122A      0.703157  
     123A      0.716069   124A      0.727169   125A      0.734251  
     126A      0.752226   127A      0.773675   128A      0.781572  
     129A      0.781970   130A      0.787099   131A      0.800820  
     132A      0.812557   133A      0.819802   134A      0.822243  
     135A      0.829662   136A      0.846807   137A      0.856711  
     138A      0.858295   139A      0.874073   140A      0.874502  
     141A      0.888407   142A      0.889804   143A      0.900008  
     144A      0.909669   145A      0.914591   146A      0.922669  
     147A      0.923057   148A      0.937733   149A      0.945140  
     150A      0.950388   151A      0.953255   152A      0.971091  
     153A      0.971430   154A      0.973959   155A      0.983050  
     156A      0.993460   157A      0.994268   158A      1.005919  
     159A      1.008558   160A      1.025958   161A      1.035963  
     162A      1.050523   163A      1.059016   164A      1.065186  
     165A      1.071286   166A      1.082225   167A      1.095887  
     168A      1.099062   169A      1.106996   170A      1.113405  
     171A      1.116344   172A      1.124940   173A      1.126842  
     174A      1.142251   175A      1.144366   176A      1.148288  
     177A      1.158055   178A      1.161211   179A      1.183454  
     180A      1.189189   181A      1.199738   182A      1.205750  
     183A      1.222975   184A      1.230687   185A      1.238357  
     186A      1.248101   187A      1.253164   188A      1.263287  
     189A      1.277513   190A      1.292229   191A      1.299868  
     192A      1.318082   193A      1.326863   194A      1.338630  
     195A      1.347310   196A      1.350174   197A      1.359258  
     198A      1.364090   199A      1.402998   200A      1.409606  
     201A      1.442178   202A      1.448288   203A      1.455365  
     204A      1.456149   205A      1.474736   206A      1.500141  
     207A      1.504260   208A      1.519255   209A      1.524748  
     210A      1.541660   211A      1.546300   212A      1.552619  
     213A      1.569660   214A      1.570499   215A      1.598052  
     216A      1.616638   217A      1.625093   218A      1.627680  
     219A      1.641298   220A      1.647171   221A      1.662529  
     222A      1.674511   223A      1.676931   224A      1.695897  
     225A      1.706918   226A      1.712978   227A      1.721117  
     228A      1.723187   229A      1.745066   230A      1.747458  
     231A      1.751751   232A      1.785684   233A      1.797136  
     234A      1.808498   235A      1.809637   236A      1.824418  
     237A      1.833573   238A      1.839713   239A      1.840101  
     240A      1.858729   241A      1.866594   242A      1.896300  
     243A      1.907630   244A      1.927858   245A      1.945858  
     246A      1.966735   247A      1.975473   248A      1.982948  
     249A      1.987161   250A      2.000415   251A      2.006224  
     252A      2.026442   253A      2.041726   254A      2.062902  
     255A      2.065518   256A      2.066101   257A      2.081512  
     258A      2.106493   259A      2.109035   260A      2.122811  
     261A      2.143300   262A      2.165712   263A      2.200172  
     264A      2.205333   265A      2.241081   266A      2.243744  
     267A      2.261417   268A      2.265390   269A      2.271904  
     270A      2.296734   271A      2.304270   272A      2.320932  
     273A      2.336708   274A      2.343728   275A      2.374452  
     276A      2.387673   277A      2.394714   278A      2.423180  
     279A      2.426479   280A      2.454208   281A      2.458349  
     282A      2.511778   283A      2.517130   284A      2.540123  
     285A      2.564258   286A      2.568388   287A      2.615520  
     288A      2.628583   289A      2.633915   290A      2.654574  
     291A      2.686083   292A      2.730713   293A      2.775758  
     294A      2.782492   295A      2.845139   296A      2.855344  
     297A      2.903080   298A      2.918240   299A      3.004784  
     300A      3.022794   301A      3.024013   302A      3.062063  
     303A      3.070559   304A      3.116928   305A      3.168871  
     306A      3.212573   307A      3.244710   308A      3.265002  
     309A      3.302552   310A      3.311820   311A      3.311910  
     312A      3.321166   313A      3.371619   314A      3.384744  
     315A      3.396077   316A      3.407230   317A      3.422734  
     318A      3.432377   319A      3.515107   320A      3.525859  
     321A      3.536265   322A      3.546880   323A      3.556523  
     324A      3.562572   325A      3.573848   326A      3.606948  
     327A      3.626865   328A      3.643573   329A      3.657367  
     330A      3.674163   331A      3.682129   332A      3.694190  
     333A      3.704223   334A      3.730688   335A      3.743127  
     336A      3.751198   337A      3.753732   338A      3.774786  
     339A      3.784534   340A      3.809039   341A      3.822850  
     342A      3.823799   343A      3.842196   344A      3.856634  
     345A      3.873102   346A      3.904893   347A      3.921600  
     348A      3.922573   349A      3.936731   350A      3.944382  
     351A      3.970902   352A      3.978064   353A      3.998359  
     354A      4.000808   355A      4.014571   356A      4.032932  
     357A      4.051535   358A      4.057133   359A      4.084172  
     360A      4.101520   361A      4.106821   362A      4.146284  
     363A      4.148737   364A      4.164249   365A      4.172239  
     366A      4.202106   367A      4.207544   368A      4.223312  
     369A      4.226246   370A      4.251852   371A      4.271939  
     372A      4.296547   373A      4.299200   374A      4.313110  
     375A      4.352631   376A      4.380642   377A      4.388389  
     378A      4.394884   379A      4.447906   380A      4.468324  
     381A      4.477325   382A      4.504760   383A      4.513123  
     384A      4.525416   385A      4.549405   386A      4.560003  
     387A      4.566911   388A      4.597331   389A      4.628599  
     390A      4.640058   391A      4.682196   392A      4.706876  
     393A      4.730803   394A      4.766966   395A      4.788108  
     396A      4.803235   397A      4.834476   398A      4.860831  
     399A      4.861734   400A      4.891092   401A      4.907469  
     402A      4.913383   403A      4.931841   404A      4.963336  
     405A      4.987369   406A      5.011243   407A      5.012975  
     408A      5.072870   409A      5.091248   410A      5.099686  
     411A      5.127490   412A      5.154453   413A      5.155490  
     414A      5.199365   415A      5.205554   416A      5.227408  
     417A      5.237574   418A      5.245569   419A      5.284411  
     420A      5.304678   421A      5.362505   422A      5.382331  
     423A      5.406776   424A      5.423871   425A      5.461325  
     426A      5.480630   427A      5.492319   428A      5.542114  
     429A      5.575325   430A      5.625628   431A      5.659382  
     432A      5.679222   433A      5.688970   434A      5.718070  
     435A      5.761672   436A      5.776618   437A      5.797251  
     438A      5.798003   439A      5.829952   440A      5.865693  
     441A      5.891302   442A      5.955226   443A      6.000735  
     444A      6.022778   445A      6.052338   446A      6.131908  
     447A      6.144122   448A      6.186337   449A      6.239088  
     450A      6.248295   451A      6.270956   452A      6.307129  
     453A      6.400633   454A      6.459298   455A      6.575045  
     456A      6.608579   457A      6.618761   458A      6.686736  
     459A      6.726602   460A      6.778156   461A      6.842393  
     462A      6.852431   463A      6.897094   464A      6.946732  
     465A      6.988252   466A      7.041168   467A      7.085202  
     468A      7.114252   469A      7.446703   470A      7.498940  
     471A      7.600112   472A      7.747301   473A      7.760845  
     474A      7.864120   475A      8.326480   476A      8.410256  
     477A     14.461822   478A     15.538391   479A     17.174670  
     480A     17.532225   481A     17.783505   482A     18.425820  
     483A     20.172157  

    Final Occupation by Irrep:
              A 
    DOCC [    26 ]

  @DF-RHF Final Energy:  -322.80596000484599

   => Energetics <=

    Nuclear Repulsion Energy =            291.6522897307946209
    One-Electron Energy =               -1016.1619869064682007
    Two-Electron Energy =                 401.7037371708276510
    Total Energy =                       -322.8059600048459856

Computation Completed

*** tstop() called on node58.bme.utexas.edu at Tue Feb  2 16:59:54 2021
Module time:
	user time   =      97.15 seconds =       1.62 minutes
	system time =       4.21 seconds =       0.07 minutes
	total time  =         15 seconds =       0.25 minutes
Total time:
	user time   =      97.15 seconds =       1.62 minutes
	system time =       4.21 seconds =       0.07 minutes
	total time  =         15 seconds =       0.25 minutes
   => Loading Basis Set <=

    Name: (AUG-CC-PVTZ AUX)
    Role: RIFIT
    Keyword: DF_BASIS_MP2
    atoms 1    entry O          line   264 file /home/xy3866/psi4conda/share/psi4/basis/aug-cc-pvtz-ri.gbs 
    atoms 2    entry N          line   206 file /home/xy3866/psi4conda/share/psi4/basis/aug-cc-pvtz-ri.gbs 
    atoms 3-7  entry C          line   148 file /home/xy3866/psi4conda/share/psi4/basis/aug-cc-pvtz-ri.gbs 
    atoms 8-14 entry H          line    30 file /home/xy3866/psi4conda/share/psi4/basis/aug-cc-pvtz-ri.gbs 


*** tstart() called on node58.bme.utexas.edu
*** at Tue Feb  2 16:59:54 2021


  //>>>>>>>>>>>>>>>>>>>>>>>>>>>>>>>>>>>//
  //               DFMP2               //
  //<<<<<<<<<<<<<<<<<<<<<<<<<<<<<<<<<<<//

	 --------------------------------------------------------
	                          DF-MP2                         
	      2nd-Order Density-Fitted Moller-Plesset Theory     
	              RMP2 Wavefunction,   8 Threads             
	                                                         
	        Rob Parrish, Justin Turney, Andy Simmonett,      
	           Ed Hohenstein, and C. David Sherrill          
	 --------------------------------------------------------

   => Auxiliary Basis Set <=

  Basis Set: (AUG-CC-PVTZ AUX)
    Blend: AUG-CC-PVTZ-RI
    Number of shells: 294
    Number of basis function: 1064
    Number of Cartesian functions: 1337
    Spherical Harmonics?: true
    Max angular momentum: 4

	 --------------------------------------------------------
	                 NBF =   483, NAUX =  1064
	 --------------------------------------------------------
	   CLASS    FOCC     OCC    AOCC    AVIR     VIR    FVIR
	   PAIRS       0      26      26     457     457       0
	 --------------------------------------------------------

  DFHelper Memory: AOs need 1.836 GiB; user supplied 22.352 GiB. Using in-core AOs.


         ------------------------------------------------------------
                                     CPHF                           
                                  Rob Parrish                       
         ------------------------------------------------------------

  ==> Geometry <==

    Molecular point group: c1
    Full point group: C1

    Geometry (in Angstrom), charge = 0, multiplicity = 1:

       Center              X                  Y                   Z               Mass       
    ------------   -----------------  -----------------  -----------------  -----------------
         O           -0.829539457691    -1.092033258537    -0.000012140684    15.994914619570
         N           -0.239709457691     1.072020741463     0.000017859316    14.003074004430
         C            1.578741542309    -0.679297258537     0.000024859316    12.000000000000
         C            0.241955642309    -0.238865658537     0.000002659316    12.000000000000
         C            2.597643542309     0.455946741463    -0.000023140684    12.000000000000
         C           -1.979833457691    -0.345516258537    -0.000013140684    12.000000000000
         C           -1.625980457691     0.968020741463     0.000004859316    12.000000000000
         H            1.717860542309    -1.323530258537     0.876432859316     1.007825032230
         H            1.717861542309    -1.323611258537    -0.876322140684     1.007825032230
         H            2.472437542309     1.087471741463    -0.881452140684     1.007825032230
         H            3.612528542309     0.049748741463    -0.000021140684     1.007825032230
         H            2.472457542309     1.087531741463     0.881365859316     1.007825032230
         H           -2.910084457691    -0.891638258537    -0.000005140684     1.007825032230
         H           -2.261678457691     1.841830741463    -0.000007140684     1.007825032230

  Nuclear repulsion =  291.652289730794621
  Reference energy  = -322.805960004845986

  ==> Basis Set <==

  Basis Set: AUG-CC-PVTZ
    Blend: AUG-CC-PVTZ
    Number of shells: 161
    Number of basis function: 483
    Number of Cartesian functions: 560
    Spherical Harmonics?: true
    Max angular momentum: 3

  ==> CGRSolver (by Rob Parrish) <==

   Number of roots    =         1
   Preconditioning    =    JACOBI
   Convergence cutoff =     1E-06
   Maximum iterations =       100

  ==> CPHFRHamiltonian (by Rob Parrish) <== 

  ==> MemDFJK: Density-Fitted J/K Matrices <==

    J tasked:                   Yes
    K tasked:                   Yes
    wK tasked:                   No
    OpenMP threads:               8
    Memory [MiB]:             22888
    Algorithm:                 Core
    Schwarz Cutoff:           1E-12
    Mask sparsity (%):       3.2055
    Fitting Condition:        1E-10

   => Auxiliary Basis Set <=

  Basis Set: (AUG-CC-PVTZ AUX)
    Blend: AUG-CC-PVTZ-JKFIT
    Number of shells: 308
    Number of basis function: 1050
    Number of Cartesian functions: 1302
    Spherical Harmonics?: true
    Max angular momentum: 4

  ==> CPHF Iterations <==

  => Iterations <=

             Iter  Converged  Remaining    Residual
  CGR           1          0          1   1.218E-01
  CGR           2          0          1   4.746E-02
  CGR           3          0          1   2.351E-02
  CGR           4          0          1   7.583E-03
  CGR           5          0          1   3.351E-03
  CGR           6          0          1   1.610E-03
  CGR           7          0          1   6.219E-04
  CGR           8          0          1   2.105E-04
  CGR           9          0          1   7.498E-05
  CGR          10          0          1   1.854E-05
  CGR          11          0          1   6.406E-06
  CGR          12          0          1   1.952E-06
  CGR          13          1          0   5.910E-07

    CGRSolver converged.

	-----------------------------------------------------------
	 ==================> DF-MP2 Energies <==================== 
	-----------------------------------------------------------
	 Reference Energy          =    -322.8059600048459856 [Eh]
	 Singles Energy            =      -0.0000000000000000 [Eh]
	 Same-Spin Energy          =      -0.3389334420456974 [Eh]
	 Opposite-Spin Energy      =      -1.0664492502843177 [Eh]
	 Correlation Energy        =      -1.4053826923300150 [Eh]
	 Total Energy              =    -324.2113426971760077 [Eh]
	-----------------------------------------------------------
	 ================> DF-SCS-MP2 Energies <================== 
	-----------------------------------------------------------
	 SCS Same-Spin Scale       =       0.3333333333333333 [-]
	 SCS Opposite-Spin Scale   =       1.2000000000000000 [-]
	 SCS Same-Spin Energy      =      -0.1129778140152325 [Eh]
	 SCS Opposite-Spin Energy  =      -1.2797391003411811 [Eh]
	 SCS Correlation Energy    =      -1.3927169143564135 [Eh]
	 SCS Total Energy          =    -324.1986769192023985 [Eh]
	-----------------------------------------------------------



Properties will be evaluated at   0.000000,   0.000000,   0.000000 [a0]

Properties computed using the MP2 density matrix

  Nuclear Dipole Moment: [e a0]
     X:     6.3915      Y:     0.4864      Z:    -0.0000

  Electronic Dipole Moment: [e a0]
     X:    -6.4767      Y:    -1.0163      Z:     0.0000

  Dipole Moment: [e a0]
     X:    -0.0851      Y:    -0.5299      Z:    -0.0000     Total:     0.5367

  Dipole Moment: [D]
     X:    -0.2163      Y:    -1.3469      Z:    -0.0000     Total:     1.3641


*** tstop() called on node58.bme.utexas.edu at Tue Feb  2 17:00:38 2021
Module time:
	user time   =     293.55 seconds =       4.89 minutes
	system time =       6.91 seconds =       0.12 minutes
	total time  =         44 seconds =       0.73 minutes
Total time:
	user time   =     391.56 seconds =       6.53 minutes
	system time =      11.16 seconds =       0.19 minutes
	total time  =         59 seconds =       0.98 minutes

    Psi4 stopped on: Tuesday, 02 February 2021 05:00PM
    Psi4 wall time for execution: 0:00:59.51

*** Psi4 exiting successfully. Buy a developer a beer!
