
    -----------------------------------------------------------------------
          Psi4: An Open-Source Ab Initio Electronic Structure Package
                               Psi4 1.3.2 release

                         Git: Rev {HEAD} ecbda83 


    R. M. Parrish, L. A. Burns, D. G. A. Smith, A. C. Simmonett,
    A. E. DePrince III, E. G. Hohenstein, U. Bozkaya, A. Yu. Sokolov,
    R. Di Remigio, R. M. Richard, J. F. Gonthier, A. M. James,
    H. R. McAlexander, A. Kumar, M. Saitow, X. Wang, B. P. Pritchard,
    P. Verma, H. F. Schaefer III, K. Patkowski, R. A. King, E. F. Valeev,
    F. A. Evangelista, J. M. Turney, T. D. Crawford, and C. D. Sherrill,
    J. Chem. Theory Comput. 13(7) pp 3185--3197 (2017).
    (doi: 10.1021/acs.jctc.7b00174)


                         Additional Contributions by
    P. Kraus, H. Kruse, M. H. Lechner, M. C. Schieber, R. A. Shaw,
    A. Alenaizan, R. Galvelis, Z. L. Glick, S. Lehtola, and J. P. Misiewicz

    -----------------------------------------------------------------------


    Psi4 started on: Tuesday, 02 February 2021 04:54PM

    Process ID: 1928522
    Host:       node58.bme.utexas.edu
    PSIDATADIR: /home/xy3866/psi4conda/share/psi4
    Memory:     500.0 MiB
    Threads:    8
    
  ==> Input File <==

--------------------------------------------------------------------------
#psi4
#
memory 32 gb

molecule  {
0 1
  O       -0.8874150    -1.1053680    -0.0000120
  N       -0.2975850     1.0586860     0.0000180
  C        1.5208660    -0.6926320     0.0000250
  C        0.0890300    -0.1448725     0.0000031
  C        2.5397680     0.4426120    -0.0000230
  C       -2.0377090    -0.3588510    -0.0000130
  C       -1.6838560     0.9546860     0.0000050
  H        1.6599850    -1.3368650     0.8764330
  H        1.6599860    -1.3369460    -0.8763220
  H        2.4145620     1.0741370    -0.8814520
  H        3.5546530     0.0364140    -0.0000210
  H        2.4145820     1.0741970     0.8813660
  H       -2.9679600    -0.9049730    -0.0000050
  H       -2.3195540     1.8284960    -0.0000070
units angstrom
no_reorient  #important for SAPT in psi4, default
symmetry c1  #important for SAPT in psi4, default
}

set PROPERTIES_ORIGIN ["COM"]
properties('MP2/aug-cc-pvtz', properties = ['dipole'])
--------------------------------------------------------------------------

  Memory set to  29.802 GiB by Python driver.
    SCF Algorithm Type (re)set to DF.

*** tstart() called on node58.bme.utexas.edu
*** at Tue Feb  2 16:54:51 2021

   => Loading Basis Set <=

    Name: AUG-CC-PVTZ
    Role: ORBITAL
    Keyword: BASIS
    atoms 1    entry O          line   327 file /home/xy3866/psi4conda/share/psi4/basis/aug-cc-pvtz.gbs 
    atoms 2    entry N          line   281 file /home/xy3866/psi4conda/share/psi4/basis/aug-cc-pvtz.gbs 
    atoms 3-7  entry C          line   235 file /home/xy3866/psi4conda/share/psi4/basis/aug-cc-pvtz.gbs 
    atoms 8-14 entry H          line    36 file /home/xy3866/psi4conda/share/psi4/basis/aug-cc-pvtz.gbs 


         ---------------------------------------------------------
                                   SCF
               by Justin Turney, Rob Parrish, Andy Simmonett
                          and Daniel G. A. Smith
                              RHF Reference
                        8 Threads,  30517 MiB Core
         ---------------------------------------------------------

  ==> Geometry <==

    Molecular point group: c1
    Full point group: C1

    Geometry (in Angstrom), charge = 0, multiplicity = 1:

       Center              X                  Y                   Z               Mass       
    ------------   -----------------  -----------------  -----------------  -----------------
         O           -0.817787075226    -1.105303718325    -0.000012177777    15.994914619570
         N           -0.227957075226     1.058750281675     0.000017822223    14.003074004430
         C            1.590493924774    -0.692567718325     0.000024822223    12.000000000000
         C            0.158657924774    -0.144808218325     0.000002922223    12.000000000000
         C            2.609395924774     0.442676281675    -0.000023177777    12.000000000000
         C           -1.968081075226    -0.358786718325    -0.000013177777    12.000000000000
         C           -1.614228075226     0.954750281675     0.000004822223    12.000000000000
         H            1.729612924774    -1.336800718325     0.876432822223     1.007825032230
         H            1.729613924774    -1.336881718325    -0.876322177777     1.007825032230
         H            2.484189924774     1.074201281675    -0.881452177777     1.007825032230
         H            3.624280924774     0.036478281675    -0.000021177777     1.007825032230
         H            2.484209924774     1.074261281675     0.881365822223     1.007825032230
         H           -2.898332075226    -0.904908718325    -0.000005177777     1.007825032230
         H           -2.249926075226     1.828560281675    -0.000007177777     1.007825032230

  Running in c1 symmetry.

  Rotational constants: A =      0.24320  B =      0.06745  C =      0.05386 [cm^-1]
  Rotational constants: A =   7291.00922  B =   2022.07049  C =   1614.53251 [MHz]
  Nuclear repulsion =  292.760472344077186

  Charge       = 0
  Multiplicity = 1
  Electrons    = 52
  Nalpha       = 26
  Nbeta        = 26

  ==> Algorithm <==

  SCF Algorithm Type is DF.
  DIIS enabled.
  MOM disabled.
  Fractional occupation disabled.
  Guess Type is SAD.
  Energy threshold   = 1.00e-10
  Density threshold  = 1.00e-10
  Integral threshold = 0.00e+00

  ==> Primary Basis <==

  Basis Set: AUG-CC-PVTZ
    Blend: AUG-CC-PVTZ
    Number of shells: 161
    Number of basis function: 483
    Number of Cartesian functions: 560
    Spherical Harmonics?: true
    Max angular momentum: 3

   => Loading Basis Set <=

    Name: (AUG-CC-PVTZ AUX)
    Role: JKFIT
    Keyword: DF_BASIS_SCF
    atoms 1    entry O          line   286 file /home/xy3866/psi4conda/share/psi4/basis/aug-cc-pvtz-jkfit.gbs 
    atoms 2    entry N          line   224 file /home/xy3866/psi4conda/share/psi4/basis/aug-cc-pvtz-jkfit.gbs 
    atoms 3-7  entry C          line   162 file /home/xy3866/psi4conda/share/psi4/basis/aug-cc-pvtz-jkfit.gbs 
    atoms 8-14 entry H          line    70 file /home/xy3866/psi4conda/share/psi4/basis/aug-cc-pvtz-jkfit.gbs 

  ==> Pre-Iterations <==

   -------------------------------------------------------
    Irrep   Nso     Nmo     Nalpha   Nbeta   Ndocc  Nsocc
   -------------------------------------------------------
     A        483     483       0       0       0       0
   -------------------------------------------------------
    Total     483     483      26      26      26       0
   -------------------------------------------------------

  ==> Integral Setup <==

  DFHelper Memory: AOs need 1.836 GiB; user supplied 22.352 GiB. Using in-core AOs.

  ==> MemDFJK: Density-Fitted J/K Matrices <==

    J tasked:                   Yes
    K tasked:                   Yes
    wK tasked:                   No
    OpenMP threads:               8
    Memory [MiB]:             22888
    Algorithm:                 Core
    Schwarz Cutoff:           1E-12
    Mask sparsity (%):       3.2072
    Fitting Condition:        1E-10

   => Auxiliary Basis Set <=

  Basis Set: (AUG-CC-PVTZ AUX)
    Blend: AUG-CC-PVTZ-JKFIT
    Number of shells: 308
    Number of basis function: 1050
    Number of Cartesian functions: 1302
    Spherical Harmonics?: true
    Max angular momentum: 4

  Minimum eigenvalue in the overlap matrix is 5.3693699632E-06.
  Using Symmetric Orthogonalization.

  SCF Guess: Superposition of Atomic Densities via on-the-fly atomic UHF.

  ==> Iterations <==

                           Total Energy        Delta E     RMS |[F,P]|

   @DF-RHF iter SAD:  -322.25592488610175   -3.22256e+02   0.00000e+00 
   @DF-RHF iter   1:  -322.62504310890927   -3.69118e-01   1.22314e-03 DIIS
   @DF-RHF iter   2:  -322.78538972794604   -1.60347e-01   6.03071e-04 DIIS
   @DF-RHF iter   3:  -322.82271064860640   -3.73209e-02   1.54295e-04 DIIS
   @DF-RHF iter   4:  -322.82604758348288   -3.33693e-03   7.26701e-05 DIIS
   @DF-RHF iter   5:  -322.82670543136567   -6.57848e-04   1.20270e-05 DIIS
   @DF-RHF iter   6:  -322.82674124671405   -3.58153e-05   5.57658e-06 DIIS
   @DF-RHF iter   7:  -322.82674755376024   -6.30705e-06   1.96796e-06 DIIS
   @DF-RHF iter   8:  -322.82674876528415   -1.21152e-06   6.71117e-07 DIIS
   @DF-RHF iter   9:  -322.82674893946648   -1.74182e-07   1.74577e-07 DIIS
   @DF-RHF iter  10:  -322.82674894886509   -9.39860e-09   6.39010e-08 DIIS
   @DF-RHF iter  11:  -322.82674894992039   -1.05530e-09   1.95891e-08 DIIS
   @DF-RHF iter  12:  -322.82674895004533   -1.24942e-10   8.28518e-09 DIIS
   @DF-RHF iter  13:  -322.82674895006772   -2.23963e-11   3.72676e-09 DIIS
   @DF-RHF iter  14:  -322.82674895007358   -5.85487e-12   9.54880e-10 DIIS
   @DF-RHF iter  15:  -322.82674895007409   -5.11591e-13   5.25477e-10 DIIS
   @DF-RHF iter  16:  -322.82674895007432   -2.27374e-13   1.88137e-10 DIIS
   @DF-RHF iter  17:  -322.82674895007375    5.68434e-13   7.38353e-11 DIIS
  Energy and wave function converged.


  ==> Post-Iterations <==

    Orbital Energies [Eh]
    ---------------------

    Doubly Occupied:                                                      

       1A    -20.633158     2A    -15.559346     3A    -11.333439  
       4A    -11.292354     5A    -11.262024     6A    -11.248172  
       7A    -11.218607     8A     -1.479667     9A     -1.244336  
      10A     -1.074401    11A     -0.997883    12A     -0.877945  
      13A     -0.831444    14A     -0.781599    15A     -0.718099  
      16A     -0.667792    17A     -0.627131    18A     -0.607759  
      19A     -0.585962    20A     -0.574632    21A     -0.521607  
      22A     -0.509130    23A     -0.501943    24A     -0.462414  
      25A     -0.458349    26A     -0.336942  

    Virtual:                                                              

      27A      0.028811    28A      0.031515    29A      0.037915  
      30A      0.044266    31A      0.049581    32A      0.055372  
      33A      0.065930    34A      0.090225    35A      0.090395  
      36A      0.093633    37A      0.102715    38A      0.106898  
      39A      0.111991    40A      0.118996    41A      0.127179  
      42A      0.132160    43A      0.132747    44A      0.135122  
      45A      0.139944    46A      0.144730    47A      0.155749  
      48A      0.156262    49A      0.164222    50A      0.170333  
      51A      0.189322    52A      0.201528    53A      0.214290  
      54A      0.220364    55A      0.221569    56A      0.224792  
      57A      0.229707    58A      0.234949    59A      0.244886  
      60A      0.257469    61A      0.260795    62A      0.268842  
      63A      0.278321    64A      0.282772    65A      0.289465  
      66A      0.296126    67A      0.300487    68A      0.303969  
      69A      0.318353    70A      0.331748    71A      0.339527  
      72A      0.344243    73A      0.349457    74A      0.359814  
      75A      0.361520    76A      0.367796    77A      0.373387  
      78A      0.382752    79A      0.390153    80A      0.390620  
      81A      0.395265    82A      0.397198    83A      0.411343  
      84A      0.413462    85A      0.419326    86A      0.422405  
      87A      0.433319    88A      0.434705    89A      0.445803  
      90A      0.459084    91A      0.459903    92A      0.463054  
      93A      0.465404    94A      0.471949    95A      0.480027  
      96A      0.487748    97A      0.488552    98A      0.496161  
      99A      0.498039   100A      0.504013   101A      0.522898  
     102A      0.523283   103A      0.526458   104A      0.530928  
     105A      0.538084   106A      0.544446   107A      0.547831  
     108A      0.555549   109A      0.566695   110A      0.567811  
     111A      0.581953   112A      0.591157   113A      0.607514  
     114A      0.612091   115A      0.620516   116A      0.634955  
     117A      0.637786   118A      0.661315   119A      0.663030  
     120A      0.685787   121A      0.697226   122A      0.700741  
     123A      0.712234   124A      0.730364   125A      0.738149  
     126A      0.753236   127A      0.776715   128A      0.782332  
     129A      0.791626   130A      0.791636   131A      0.799956  
     132A      0.813790   133A      0.823696   134A      0.831769  
     135A      0.834654   136A      0.844032   137A      0.857317  
     138A      0.861307   139A      0.866797   140A      0.870981  
     141A      0.886369   142A      0.888806   143A      0.906961  
     144A      0.911166   145A      0.912397   146A      0.926740  
     147A      0.928124   148A      0.939009   149A      0.943076  
     150A      0.948776   151A      0.951429   152A      0.968527  
     153A      0.970596   154A      0.976140   155A      0.989214  
     156A      0.992767   157A      0.997149   158A      1.002057  
     159A      1.005348   160A      1.034595   161A      1.039677  
     162A      1.055051   163A      1.059343   164A      1.068264  
     165A      1.075389   166A      1.086208   167A      1.092788  
     168A      1.098454   169A      1.104197   170A      1.113256  
     171A      1.122788   172A      1.124178   173A      1.127599  
     174A      1.142459   175A      1.147044   176A      1.147191  
     177A      1.160780   178A      1.166251   179A      1.180327  
     180A      1.180601   181A      1.195806   182A      1.202049  
     183A      1.224649   184A      1.227795   185A      1.239279  
     186A      1.252631   187A      1.253710   188A      1.259263  
     189A      1.274610   190A      1.297979   191A      1.304347  
     192A      1.316328   193A      1.329414   194A      1.337735  
     195A      1.351472   196A      1.353033   197A      1.361787  
     198A      1.367218   199A      1.412955   200A      1.413424  
     201A      1.432161   202A      1.452410   203A      1.460815  
     204A      1.463943   205A      1.480675   206A      1.496960  
     207A      1.499310   208A      1.518215   209A      1.521822  
     210A      1.534372   211A      1.541044   212A      1.551962  
     213A      1.557270   214A      1.563798   215A      1.584980  
     216A      1.613647   217A      1.628386   218A      1.630048  
     219A      1.642309   220A      1.652648   221A      1.663867  
     222A      1.682594   223A      1.687383   224A      1.695499  
     225A      1.706578   226A      1.714535   227A      1.717872  
     228A      1.724518   229A      1.736820   230A      1.745295  
     231A      1.762964   232A      1.780362   233A      1.794162  
     234A      1.796362   235A      1.812794   236A      1.825320  
     237A      1.836636   238A      1.842541   239A      1.845968  
     240A      1.848149   241A      1.874903   242A      1.887400  
     243A      1.907256   244A      1.935094   245A      1.941312  
     246A      1.965425   247A      1.979324   248A      1.981756  
     249A      1.988846   250A      1.996717   251A      1.998295  
     252A      2.018194   253A      2.047759   254A      2.051865  
     255A      2.060574   256A      2.075613   257A      2.101612  
     258A      2.108788   259A      2.119696   260A      2.120996  
     261A      2.140205   262A      2.187444   263A      2.192344  
     264A      2.209460   265A      2.244252   266A      2.245760  
     267A      2.264957   268A      2.270779   269A      2.273531  
     270A      2.301647   271A      2.305747   272A      2.326182  
     273A      2.335459   274A      2.355890   275A      2.370408  
     276A      2.393595   277A      2.410614   278A      2.413281  
     279A      2.440062   280A      2.446371   281A      2.466002  
     282A      2.492791   283A      2.517738   284A      2.522448  
     285A      2.572327   286A      2.586215   287A      2.608722  
     288A      2.624343   289A      2.651511   290A      2.651600  
     291A      2.680598   292A      2.706422   293A      2.772808  
     294A      2.806853   295A      2.828178   296A      2.841595  
     297A      2.874469   298A      2.916824   299A      2.995846  
     300A      2.996598   301A      3.036473   302A      3.082083  
     303A      3.101578   304A      3.116373   305A      3.160937  
     306A      3.233361   307A      3.248468   308A      3.277651  
     309A      3.290920   310A      3.308778   311A      3.314237  
     312A      3.341465   313A      3.356923   314A      3.375269  
     315A      3.399877   316A      3.405792   317A      3.446407  
     318A      3.449276   319A      3.490032   320A      3.508227  
     321A      3.532404   322A      3.549594   323A      3.554390  
     324A      3.567038   325A      3.580596   326A      3.588676  
     327A      3.624179   328A      3.639378   329A      3.672830  
     330A      3.686251   331A      3.690088   332A      3.700081  
     333A      3.723311   334A      3.740599   335A      3.741069  
     336A      3.761820   337A      3.763500   338A      3.779383  
     339A      3.791034   340A      3.803916   341A      3.816911  
     342A      3.837216   343A      3.852755   344A      3.859333  
     345A      3.872116   346A      3.888311   347A      3.925069  
     348A      3.931280   349A      3.933894   350A      3.950193  
     351A      3.969785   352A      3.979709   353A      3.991482  
     354A      4.011533   355A      4.028707   356A      4.031726  
     357A      4.044831   358A      4.059080   359A      4.079401  
     360A      4.086783   361A      4.109032   362A      4.143562  
     363A      4.157171   364A      4.161575   365A      4.176558  
     366A      4.199811   367A      4.217452   368A      4.231495  
     369A      4.238271   370A      4.248263   371A      4.274482  
     372A      4.300159   373A      4.310069   374A      4.310725  
     375A      4.342683   376A      4.392591   377A      4.412222  
     378A      4.420786   379A      4.427641   380A      4.474196  
     381A      4.482326   382A      4.496647   383A      4.504264  
     384A      4.536323   385A      4.552864   386A      4.570959  
     387A      4.572176   388A      4.592457   389A      4.608890  
     390A      4.618525   391A      4.693753   392A      4.699857  
     393A      4.708072   394A      4.716958   395A      4.791952  
     396A      4.799633   397A      4.840327   398A      4.854590  
     399A      4.861054   400A      4.872059   401A      4.884973  
     402A      4.917110   403A      4.933549   404A      4.956330  
     405A      4.964809   406A      5.004735   407A      5.011479  
     408A      5.068053   409A      5.091306   410A      5.097540  
     411A      5.112208   412A      5.144775   413A      5.161631  
     414A      5.173243   415A      5.188428   416A      5.227616  
     417A      5.243968   418A      5.253952   419A      5.287352  
     420A      5.287836   421A      5.373548   422A      5.409088  
     423A      5.421439   424A      5.436505   425A      5.462342  
     426A      5.470501   427A      5.471576   428A      5.563568  
     429A      5.567838   430A      5.641799   431A      5.658143  
     432A      5.672504   433A      5.703816   434A      5.713616  
     435A      5.787985   436A      5.798497   437A      5.826435  
     438A      5.827496   439A      5.860441   440A      5.876892  
     441A      5.885173   442A      6.005547   443A      6.013276  
     444A      6.062809   445A      6.085976   446A      6.148452  
     447A      6.174040   448A      6.181092   449A      6.198069  
     450A      6.235933   451A      6.280252   452A      6.312354  
     453A      6.372349   454A      6.404586   455A      6.567246  
     456A      6.582188   457A      6.655860   458A      6.684443  
     459A      6.726657   460A      6.840911   461A      6.847870  
     462A      6.872607   463A      6.911015   464A      6.965141  
     465A      7.035752   466A      7.055717   467A      7.094033  
     468A      7.140795   469A      7.431066   470A      7.530336  
     471A      7.581253   472A      7.734112   473A      7.758590  
     474A      7.828028   475A      8.334347   476A      8.400137  
     477A     14.678760   478A     16.920953   479A     16.970698  
     480A     17.812372   481A     18.033275   482A     18.714474  
     483A     19.821190  

    Final Occupation by Irrep:
              A 
    DOCC [    26 ]

  @DF-RHF Final Energy:  -322.82674895007375

   => Energetics <=

    Nuclear Repulsion Energy =            292.7604723440771863
    One-Electron Energy =               -1018.3621692669613594
    Two-Electron Energy =                 402.7749479728104802
    Total Energy =                       -322.8267489500737497

Computation Completed

*** tstop() called on node58.bme.utexas.edu at Tue Feb  2 16:55:04 2021
Module time:
	user time   =      87.47 seconds =       1.46 minutes
	system time =       2.54 seconds =       0.04 minutes
	total time  =         13 seconds =       0.22 minutes
Total time:
	user time   =      87.47 seconds =       1.46 minutes
	system time =       2.54 seconds =       0.04 minutes
	total time  =         13 seconds =       0.22 minutes
   => Loading Basis Set <=

    Name: (AUG-CC-PVTZ AUX)
    Role: RIFIT
    Keyword: DF_BASIS_MP2
    atoms 1    entry O          line   264 file /home/xy3866/psi4conda/share/psi4/basis/aug-cc-pvtz-ri.gbs 
    atoms 2    entry N          line   206 file /home/xy3866/psi4conda/share/psi4/basis/aug-cc-pvtz-ri.gbs 
    atoms 3-7  entry C          line   148 file /home/xy3866/psi4conda/share/psi4/basis/aug-cc-pvtz-ri.gbs 
    atoms 8-14 entry H          line    30 file /home/xy3866/psi4conda/share/psi4/basis/aug-cc-pvtz-ri.gbs 


*** tstart() called on node58.bme.utexas.edu
*** at Tue Feb  2 16:55:04 2021


  //>>>>>>>>>>>>>>>>>>>>>>>>>>>>>>>>>>>//
  //               DFMP2               //
  //<<<<<<<<<<<<<<<<<<<<<<<<<<<<<<<<<<<//

	 --------------------------------------------------------
	                          DF-MP2                         
	      2nd-Order Density-Fitted Moller-Plesset Theory     
	              RMP2 Wavefunction,   8 Threads             
	                                                         
	        Rob Parrish, Justin Turney, Andy Simmonett,      
	           Ed Hohenstein, and C. David Sherrill          
	 --------------------------------------------------------

   => Auxiliary Basis Set <=

  Basis Set: (AUG-CC-PVTZ AUX)
    Blend: AUG-CC-PVTZ-RI
    Number of shells: 294
    Number of basis function: 1064
    Number of Cartesian functions: 1337
    Spherical Harmonics?: true
    Max angular momentum: 4

	 --------------------------------------------------------
	                 NBF =   483, NAUX =  1064
	 --------------------------------------------------------
	   CLASS    FOCC     OCC    AOCC    AVIR     VIR    FVIR
	   PAIRS       0      26      26     457     457       0
	 --------------------------------------------------------

  DFHelper Memory: AOs need 1.836 GiB; user supplied 22.352 GiB. Using in-core AOs.


         ------------------------------------------------------------
                                     CPHF                           
                                  Rob Parrish                       
         ------------------------------------------------------------

  ==> Geometry <==

    Molecular point group: c1
    Full point group: C1

    Geometry (in Angstrom), charge = 0, multiplicity = 1:

       Center              X                  Y                   Z               Mass       
    ------------   -----------------  -----------------  -----------------  -----------------
         O           -0.817787075226    -1.105303718325    -0.000012177777    15.994914619570
         N           -0.227957075226     1.058750281675     0.000017822223    14.003074004430
         C            1.590493924774    -0.692567718325     0.000024822223    12.000000000000
         C            0.158657924774    -0.144808218325     0.000002922223    12.000000000000
         C            2.609395924774     0.442676281675    -0.000023177777    12.000000000000
         C           -1.968081075226    -0.358786718325    -0.000013177777    12.000000000000
         C           -1.614228075226     0.954750281675     0.000004822223    12.000000000000
         H            1.729612924774    -1.336800718325     0.876432822223     1.007825032230
         H            1.729613924774    -1.336881718325    -0.876322177777     1.007825032230
         H            2.484189924774     1.074201281675    -0.881452177777     1.007825032230
         H            3.624280924774     0.036478281675    -0.000021177777     1.007825032230
         H            2.484209924774     1.074261281675     0.881365822223     1.007825032230
         H           -2.898332075226    -0.904908718325    -0.000005177777     1.007825032230
         H           -2.249926075226     1.828560281675    -0.000007177777     1.007825032230

  Nuclear repulsion =  292.760472344077186
  Reference energy  = -322.826748950073750

  ==> Basis Set <==

  Basis Set: AUG-CC-PVTZ
    Blend: AUG-CC-PVTZ
    Number of shells: 161
    Number of basis function: 483
    Number of Cartesian functions: 560
    Spherical Harmonics?: true
    Max angular momentum: 3

  ==> CGRSolver (by Rob Parrish) <==

   Number of roots    =         1
   Preconditioning    =    JACOBI
   Convergence cutoff =     1E-06
   Maximum iterations =       100

  ==> CPHFRHamiltonian (by Rob Parrish) <== 

  ==> MemDFJK: Density-Fitted J/K Matrices <==

    J tasked:                   Yes
    K tasked:                   Yes
    wK tasked:                   No
    OpenMP threads:               8
    Memory [MiB]:             22888
    Algorithm:                 Core
    Schwarz Cutoff:           1E-12
    Mask sparsity (%):       3.2072
    Fitting Condition:        1E-10

   => Auxiliary Basis Set <=

  Basis Set: (AUG-CC-PVTZ AUX)
    Blend: AUG-CC-PVTZ-JKFIT
    Number of shells: 308
    Number of basis function: 1050
    Number of Cartesian functions: 1302
    Spherical Harmonics?: true
    Max angular momentum: 4

  ==> CPHF Iterations <==

  => Iterations <=

             Iter  Converged  Remaining    Residual
  CGR           1          0          1   1.158E-01
  CGR           2          0          1   4.028E-02
  CGR           3          0          1   1.917E-02
  CGR           4          0          1   6.339E-03
  CGR           5          0          1   2.559E-03
  CGR           6          0          1   9.088E-04
  CGR           7          0          1   3.258E-04
  CGR           8          0          1   1.145E-04
  CGR           9          0          1   3.750E-05
  CGR          10          0          1   9.347E-06
  CGR          11          0          1   3.112E-06
  CGR          12          1          0   8.433E-07

    CGRSolver converged.

	-----------------------------------------------------------
	 ==================> DF-MP2 Energies <==================== 
	-----------------------------------------------------------
	 Reference Energy          =    -322.8267489500737497 [Eh]
	 Singles Energy            =      -0.0000000000000000 [Eh]
	 Same-Spin Energy          =      -0.3345530572043917 [Eh]
	 Opposite-Spin Energy      =      -1.0602877302669689 [Eh]
	 Correlation Energy        =      -1.3948407874713604 [Eh]
	 Total Energy              =    -324.2215897375451163 [Eh]
	-----------------------------------------------------------
	 ================> DF-SCS-MP2 Energies <================== 
	-----------------------------------------------------------
	 SCS Same-Spin Scale       =       0.3333333333333333 [-]
	 SCS Opposite-Spin Scale   =       1.2000000000000000 [-]
	 SCS Same-Spin Energy      =      -0.1115176857347972 [Eh]
	 SCS Opposite-Spin Energy  =      -1.2723452763203627 [Eh]
	 SCS Correlation Energy    =      -1.3838629620551599 [Eh]
	 SCS Total Energy          =    -324.2106119121289112 [Eh]
	-----------------------------------------------------------



Properties will be evaluated at  -0.000000,  -0.000000,   0.000000 [a0]

Properties computed using the MP2 density matrix

  Nuclear Dipole Moment: [e a0]
     X:     6.4687      Y:     0.3993      Z:    -0.0000

  Electronic Dipole Moment: [e a0]
     X:    -6.6480      Y:    -0.8277      Z:     0.0000

  Dipole Moment: [e a0]
     X:    -0.1793      Y:    -0.4284      Z:    -0.0000     Total:     0.4644

  Dipole Moment: [D]
     X:    -0.4557      Y:    -1.0889      Z:    -0.0000     Total:     1.1804


*** tstop() called on node58.bme.utexas.edu at Tue Feb  2 16:55:45 2021
Module time:
	user time   =     279.22 seconds =       4.65 minutes
	system time =       5.91 seconds =       0.10 minutes
	total time  =         41 seconds =       0.68 minutes
Total time:
	user time   =     367.76 seconds =       6.13 minutes
	system time =       8.51 seconds =       0.14 minutes
	total time  =         54 seconds =       0.90 minutes

    Psi4 stopped on: Tuesday, 02 February 2021 04:55PM
    Psi4 wall time for execution: 0:00:54.14

*** Psi4 exiting successfully. Buy a developer a beer!
