
    -----------------------------------------------------------------------
          Psi4: An Open-Source Ab Initio Electronic Structure Package
                               Psi4 1.4a3.dev225 

                         Git: Rev {master} 7105e37 


    D. G. A. Smith, L. A. Burns, A. C. Simmonett, R. M. Parrish,
    M. C. Schieber, R. Galvelis, P. Kraus, H. Kruse, R. Di Remigio,
    A. Alenaizan, A. M. James, S. Lehtola, J. P. Misiewicz, M. Scheurer,
    R. A. Shaw, J. B. Schriber, Y. Xie, Z. L. Glick, D. A. Sirianni,
    J. S. O'Brien, J. M. Waldrop, A. Kumar, E. G. Hohenstein,
    B. P. Pritchard, B. R. Brooks, H. F. Schaefer III, A. Yu. Sokolov,
    K. Patkowski, A. E. DePrince III, U. Bozkaya, R. A. King,
    F. A. Evangelista, J. M. Turney, T. D. Crawford, C. D. Sherrill,
    J. Chem. Phys. 152(18) 184108 (2020). https://doi.org/10.1063/5.0006002

                            Additional Code Authors
    E. T. Seidl, C. L. Janssen, E. F. Valeev, M. L. Leininger,
    J. F. Gonthier, R. M. Richard, H. R. McAlexander, M. Saitow, X. Wang,
    P. Verma, and M. H. Lechner

             Previous Authors, Complete List of Code Contributors,
                       and Citations for Specific Modules
    https://github.com/psi4/psi4/blob/master/codemeta.json
    https://github.com/psi4/psi4/graphs/contributors
    http://psicode.org/psi4manual/master/introduction.html#citing-psifour

    -----------------------------------------------------------------------


    Psi4 started on: Saturday, 20 March 2021 12:26PM

    Process ID: 171814
    Host:       c446-101.stampede2.tacc.utexas.edu
    PSIDATADIR: /home1/07844/xy3866/miniconda3/envs/p4env/share/psi4
    Memory:     500.0 MiB
    Threads:    32
    
  ==> Input File <==

--------------------------------------------------------------------------
#psi4
#
memory 32 gb

molecule  {
0 1
  O       -0.8874150    -1.1053680    -0.0000120
  N       -0.2975850     1.0586860     0.0000180
  C        1.5208660    -0.6926320     0.0000250
  C        0.1219560    -0.1795350     0.0000030
  C        2.5397680     0.4426120    -0.0000230
  C       -2.0796507    -0.3316317    -0.0000130
  C       -1.6838560     0.9546860     0.0000050
  H        1.6599850    -1.3368650     0.8764330
  H        1.6599860    -1.3369460    -0.8763220
  H        2.4145620     1.0741370    -0.8814520
  H        3.5546530     0.0364140    -0.0000210
  H        2.4145820     1.0741970     0.8813660
  H       -2.9679600    -0.9049730    -0.0000050
  H       -2.3195540     1.8284960    -0.0000070
units angstrom
no_reorient  #important for SAPT in psi4, default
symmetry c1  #important for SAPT in psi4, default
}

set PROPERTIES_ORIGIN ["COM"]
properties('MP2/aug-cc-pvtz', properties = ['dipole'])
--------------------------------------------------------------------------

  Memory set to  29.802 GiB by Python driver.
    SCF Algorithm Type (re)set to DF.

*** tstart() called on c446-101.stampede2.tacc.utexas.edu
*** at Sat Mar 20 12:26:55 2021

   => Loading Basis Set <=

    Name: AUG-CC-PVTZ
    Role: ORBITAL
    Keyword: BASIS
    atoms 1    entry O          line   331 file /home1/07844/xy3866/miniconda3/envs/p4env/share/psi4/basis/aug-cc-pvtz.gbs 
    atoms 2    entry N          line   285 file /home1/07844/xy3866/miniconda3/envs/p4env/share/psi4/basis/aug-cc-pvtz.gbs 
    atoms 3-7  entry C          line   239 file /home1/07844/xy3866/miniconda3/envs/p4env/share/psi4/basis/aug-cc-pvtz.gbs 
    atoms 8-14 entry H          line    40 file /home1/07844/xy3866/miniconda3/envs/p4env/share/psi4/basis/aug-cc-pvtz.gbs 


         ---------------------------------------------------------
                                   SCF
               by Justin Turney, Rob Parrish, Andy Simmonett
                          and Daniel G. A. Smith
                              RHF Reference
                       32 Threads,  30517 MiB Core
         ---------------------------------------------------------

  ==> Geometry <==

    Molecular point group: c1
    Full point group: C1

    Geometry (in Angstrom), charge = 0, multiplicity = 1:

       Center              X                  Y                   Z               Mass       
    ------------   -----------------  -----------------  -----------------  -----------------
         O           -0.816672337266    -1.104383410685    -0.000012165413    15.994914619570
         N           -0.226842337266     1.059670589315     0.000017834587    14.003074004430
         C            1.591608662734    -0.691647410685     0.000024834587    12.000000000000
         C            0.192698662734    -0.178550410685     0.000002834587    12.000000000000
         C            2.610510662734     0.443596589315    -0.000023165413    12.000000000000
         C           -2.008908037266    -0.330647110685    -0.000013165413    12.000000000000
         C           -1.613113337266     0.955670589315     0.000004834587    12.000000000000
         H            1.730727662734    -1.335880410685     0.876432834587     1.007825032230
         H            1.730728662734    -1.335961410685    -0.876322165413     1.007825032230
         H            2.485304662734     1.075121589315    -0.881452165413     1.007825032230
         H            3.625395662734     0.037398589315    -0.000021165413     1.007825032230
         H            2.485324662734     1.075181589315     0.881365834587     1.007825032230
         H           -2.897217337266    -0.903988410685    -0.000005165413     1.007825032230
         H           -2.248811337266     1.829480589315    -0.000007165413     1.007825032230

  Running in c1 symmetry.

  Rotational constants: A =      0.24351  B =      0.06688  C =      0.05350 [cm^-1]
  Rotational constants: A =   7300.22663  B =   2004.92548  C =   1604.02878 [MHz]
  Nuclear repulsion =  291.567844795927442

  Charge       = 0
  Multiplicity = 1
  Electrons    = 52
  Nalpha       = 26
  Nbeta        = 26

  ==> Algorithm <==

  SCF Algorithm Type is DF.
  DIIS enabled.
  MOM disabled.
  Fractional occupation disabled.
  Guess Type is SAD.
  Energy threshold   = 1.00e-10
  Density threshold  = 1.00e-10
  Integral threshold = 1.00e-12

  ==> Primary Basis <==

  Basis Set: AUG-CC-PVTZ
    Blend: AUG-CC-PVTZ
    Number of shells: 161
    Number of basis functions: 483
    Number of Cartesian functions: 560
    Spherical Harmonics?: true
    Max angular momentum: 3

   => Loading Basis Set <=

    Name: (AUG-CC-PVTZ AUX)
    Role: JKFIT
    Keyword: DF_BASIS_SCF
    atoms 1    entry O          line   286 file /home1/07844/xy3866/miniconda3/envs/p4env/share/psi4/basis/aug-cc-pvtz-jkfit.gbs 
    atoms 2    entry N          line   224 file /home1/07844/xy3866/miniconda3/envs/p4env/share/psi4/basis/aug-cc-pvtz-jkfit.gbs 
    atoms 3-7  entry C          line   162 file /home1/07844/xy3866/miniconda3/envs/p4env/share/psi4/basis/aug-cc-pvtz-jkfit.gbs 
    atoms 8-14 entry H          line    70 file /home1/07844/xy3866/miniconda3/envs/p4env/share/psi4/basis/aug-cc-pvtz-jkfit.gbs 

  ==> Integral Setup <==

  DFHelper Memory: AOs need 1.834 GiB; user supplied 22.352 GiB. Using in-core AOs.

  ==> MemDFJK: Density-Fitted J/K Matrices <==

    J tasked:                   Yes
    K tasked:                   Yes
    wK tasked:                   No
    OpenMP threads:              32
    Memory [MiB]:             22888
    Algorithm:                 Core
    Schwarz Cutoff:           1E-12
    Mask sparsity (%):       5.5588
    Fitting Condition:        1E-10

   => Auxiliary Basis Set <=

  Basis Set: (AUG-CC-PVTZ AUX)
    Blend: AUG-CC-PVTZ-JKFIT
    Number of shells: 308
    Number of basis functions: 1050
    Number of Cartesian functions: 1302
    Spherical Harmonics?: true
    Max angular momentum: 4

  Minimum eigenvalue in the overlap matrix is 5.2917776931E-06.
  Reciprocal condition number of the overlap matrix is 3.1466301393E-07.
    Using symmetric orthogonalization.

  ==> Pre-Iterations <==

  SCF Guess: Superposition of Atomic Densities via on-the-fly atomic UHF (no occupation information).

   -------------------------
    Irrep   Nso     Nmo    
   -------------------------
     A        483     483 
   -------------------------
    Total     483     483
   -------------------------

  ==> Iterations <==

                           Total Energy        Delta E     RMS |[F,P]|

   @DF-RHF iter SAD:  -322.14988265225907   -3.22150e+02   0.00000e+00 
   @DF-RHF iter   1:  -322.62180161215770   -4.71919e-01   1.22361e-03 DIIS
   @DF-RHF iter   2:  -322.78221412140039   -1.60413e-01   6.11363e-04 DIIS
   @DF-RHF iter   3:  -322.82040525162853   -3.81911e-02   1.57583e-04 DIIS
   @DF-RHF iter   4:  -322.82386008034791   -3.45483e-03   7.27492e-05 DIIS
   @DF-RHF iter   5:  -322.82452808468366   -6.68004e-04   1.23237e-05 DIIS
   @DF-RHF iter   6:  -322.82456370115148   -3.56165e-05   5.86171e-06 DIIS
   @DF-RHF iter   7:  -322.82457037609561   -6.67494e-06   1.99259e-06 DIIS
   @DF-RHF iter   8:  -322.82457170283709   -1.32674e-06   7.16102e-07 DIIS
   @DF-RHF iter   9:  -322.82457190729633   -2.04459e-07   1.95219e-07 DIIS
   @DF-RHF iter  10:  -322.82457191900045   -1.17041e-08   6.87697e-08 DIIS
   @DF-RHF iter  11:  -322.82457192029329   -1.29285e-09   2.29454e-08 DIIS
   @DF-RHF iter  12:  -322.82457192044239   -1.49100e-10   9.54532e-09 DIIS
   @DF-RHF iter  13:  -322.82457192047605   -3.36513e-11   4.16949e-09 DIIS
   @DF-RHF iter  14:  -322.82457192048344   -7.38964e-12   1.05994e-09 DIIS
   @DF-RHF iter  15:  -322.82457192048389   -4.54747e-13   5.66381e-10 DIIS
   @DF-RHF iter  16:  -322.82457192048383    5.68434e-14   2.18253e-10 DIIS
   @DF-RHF iter  17:  -322.82457192048355    2.84217e-13   8.48695e-11 DIIS
  Energy and wave function converged.


  ==> Post-Iterations <==

    Orbital Energies [Eh]
    ---------------------

    Doubly Occupied:                                                      

       1A    -20.627279     2A    -15.559368     3A    -11.339806  
       4A    -11.289384     5A    -11.263378     6A    -11.249005  
       7A    -11.220944     8A     -1.458770     9A     -1.223230  
      10A     -1.082914    11A     -1.000416    12A     -0.884798  
      13A     -0.825323    14A     -0.775763    15A     -0.714685  
      16A     -0.660882    17A     -0.632366    18A     -0.605420  
      19A     -0.585908    20A     -0.568958    21A     -0.525656  
      22A     -0.514939    23A     -0.504723    24A     -0.456678  
      25A     -0.448147    26A     -0.338232  

    Virtual:                                                              

      27A      0.028799    28A      0.031419    29A      0.038146  
      30A      0.044088    31A      0.049466    32A      0.055301  
      33A      0.065943    34A      0.090398    35A      0.090669  
      36A      0.093620    37A      0.102815    38A      0.106909  
      39A      0.112208    40A      0.119152    41A      0.127256  
      42A      0.131869    43A      0.132352    44A      0.135792  
      45A      0.139271    46A      0.144244    47A      0.150619  
      48A      0.156621    49A      0.165537    50A      0.169384  
      51A      0.188369    52A      0.201979    53A      0.213652  
      54A      0.219754    55A      0.220167    56A      0.225010  
      57A      0.229553    58A      0.234733    59A      0.243163  
      60A      0.257139    61A      0.262150    62A      0.266869  
      63A      0.278219    64A      0.282400    65A      0.289118  
      66A      0.295070    67A      0.299428    68A      0.304214  
      69A      0.318423    70A      0.331469    71A      0.339479  
      72A      0.343892    73A      0.350656    74A      0.358293  
      75A      0.361636    76A      0.368018    77A      0.373446  
      78A      0.381398    79A      0.389907    80A      0.392465  
      81A      0.394222    82A      0.397403    83A      0.412245  
      84A      0.413055    85A      0.413330    86A      0.421567  
      87A      0.429948    88A      0.432944    89A      0.445382  
      90A      0.459037    91A      0.459778    92A      0.463134  
      93A      0.463878    94A      0.473217    95A      0.481326  
      96A      0.485262    97A      0.487563    98A      0.495806  
      99A      0.500121   100A      0.503651   101A      0.521448  
     102A      0.521763   103A      0.527069   104A      0.531516  
     105A      0.537250   106A      0.547675   107A      0.548089  
     108A      0.554763   109A      0.564235   110A      0.566922  
     111A      0.580490   112A      0.589817   113A      0.609138  
     114A      0.612366   115A      0.622498   116A      0.636242  
     117A      0.641813   118A      0.659716   119A      0.663410  
     120A      0.680659   121A      0.694557   122A      0.702115  
     123A      0.716497   124A      0.732106   125A      0.732958  
     126A      0.756257   127A      0.776820   128A      0.779966  
     129A      0.781278   130A      0.788401   131A      0.800658  
     132A      0.816498   133A      0.821963   134A      0.829320  
     135A      0.832299   136A      0.844235   137A      0.850784  
     138A      0.860039   139A      0.868513   140A      0.872861  
     141A      0.885693   142A      0.886473   143A      0.901683  
     144A      0.911806   145A      0.913280   146A      0.923328  
     147A      0.923631   148A      0.938322   149A      0.942002  
     150A      0.950384   151A      0.951080   152A      0.970436  
     153A      0.972016   154A      0.977963   155A      0.987495  
     156A      0.994294   157A      0.994362   158A      1.003524  
     159A      1.006006   160A      1.032875   161A      1.037667  
     162A      1.053116   163A      1.062068   164A      1.067605  
     165A      1.072982   166A      1.083513   167A      1.100453  
     168A      1.101249   169A      1.101926   170A      1.114557  
     171A      1.118774   172A      1.121946   173A      1.128204  
     174A      1.144199   175A      1.147091   176A      1.158678  
     177A      1.160357   178A      1.163359   179A      1.177187  
     180A      1.181215   181A      1.192651   182A      1.203369  
     183A      1.224115   184A      1.231129   185A      1.239377  
     186A      1.252323   187A      1.254607   188A      1.260162  
     189A      1.273990   190A      1.297528   191A      1.301898  
     192A      1.317151   193A      1.329943   194A      1.336007  
     195A      1.353168   196A      1.358944   197A      1.359063  
     198A      1.366540   199A      1.408192   200A      1.412260  
     201A      1.432449   202A      1.451811   203A      1.458206  
     204A      1.459161   205A      1.475373   206A      1.501527  
     207A      1.503911   208A      1.518511   209A      1.527096  
     210A      1.535088   211A      1.542585   212A      1.552718  
     213A      1.561963   214A      1.565600   215A      1.588838  
     216A      1.614414   217A      1.627051   218A      1.628378  
     219A      1.640200   220A      1.650541   221A      1.662731  
     222A      1.678555   223A      1.685369   224A      1.695174  
     225A      1.700634   226A      1.705400   227A      1.715718  
     228A      1.725588   229A      1.739267   230A      1.743985  
     231A      1.759068   232A      1.784547   233A      1.792017  
     234A      1.798514   235A      1.812703   236A      1.826518  
     237A      1.837402   238A      1.837820   239A      1.838929  
     240A      1.849928   241A      1.870644   242A      1.892770  
     243A      1.903522   244A      1.930421   245A      1.943728  
     246A      1.966032   247A      1.977455   248A      1.979979  
     249A      1.993235   250A      1.999930   251A      2.000342  
     252A      2.017976   253A      2.042869   254A      2.048263  
     255A      2.056250   256A      2.071686   257A      2.091920  
     258A      2.109972   259A      2.116386   260A      2.116996  
     261A      2.153099   262A      2.178685   263A      2.198286  
     264A      2.207756   265A      2.244334   266A      2.246199  
     267A      2.263961   268A      2.268106   269A      2.272862  
     270A      2.303097   271A      2.303827   272A      2.312078  
     273A      2.329808   274A      2.345789   275A      2.369406  
     276A      2.391892   277A      2.396497   278A      2.412876  
     279A      2.433113   280A      2.450249   281A      2.466307  
     282A      2.491517   283A      2.523009   284A      2.527788  
     285A      2.567502   286A      2.584302   287A      2.609513  
     288A      2.631513   289A      2.645787   290A      2.654043  
     291A      2.699612   292A      2.700813   293A      2.776140  
     294A      2.792146   295A      2.832455   296A      2.842837  
     297A      2.881450   298A      2.904948   299A      2.999989  
     300A      3.003320   301A      3.027616   302A      3.061659  
     303A      3.073582   304A      3.104811   305A      3.150168  
     306A      3.205337   307A      3.257307   308A      3.267036  
     309A      3.298776   310A      3.304100   311A      3.312148  
     312A      3.329601   313A      3.355081   314A      3.377046  
     315A      3.397289   316A      3.405408   317A      3.424406  
     318A      3.442042   319A      3.512772   320A      3.513873  
     321A      3.530765   322A      3.541317   323A      3.543309  
     324A      3.563342   325A      3.580246   326A      3.597484  
     327A      3.625742   328A      3.629099   329A      3.676758  
     330A      3.681471   331A      3.689917   332A      3.690754  
     333A      3.712557   334A      3.733733   335A      3.740423  
     336A      3.755981   337A      3.764367   338A      3.777745  
     339A      3.781072   340A      3.798252   341A      3.825441  
     342A      3.830802   343A      3.847209   344A      3.852078  
     345A      3.878346   346A      3.899933   347A      3.919121  
     348A      3.920364   349A      3.931824   350A      3.950025  
     351A      3.962263   352A      3.968270   353A      3.992026  
     354A      4.013247   355A      4.013738   356A      4.035296  
     357A      4.041577   358A      4.060638   359A      4.075234  
     360A      4.084157   361A      4.104527   362A      4.143069  
     363A      4.157194   364A      4.163138   365A      4.185317  
     366A      4.193284   367A      4.216479   368A      4.220731  
     369A      4.230650   370A      4.255556   371A      4.271220  
     372A      4.287996   373A      4.304244   374A      4.312687  
     375A      4.353521   376A      4.377401   377A      4.403762  
     378A      4.404915   379A      4.410782   380A      4.473013  
     381A      4.493352   382A      4.502574   383A      4.515259  
     384A      4.528220   385A      4.546741   386A      4.551818  
     387A      4.573986   388A      4.601080   389A      4.604617  
     390A      4.614620   391A      4.690781   392A      4.708541  
     393A      4.725385   394A      4.727343   395A      4.784037  
     396A      4.799506   397A      4.813000   398A      4.859926  
     399A      4.868067   400A      4.880617   401A      4.890741  
     402A      4.911123   403A      4.926011   404A      4.956538  
     405A      4.967490   406A      4.994878   407A      5.017299  
     408A      5.077197   409A      5.098640   410A      5.099557  
     411A      5.109358   412A      5.146296   413A      5.170154  
     414A      5.187114   415A      5.196608   416A      5.235639  
     417A      5.242168   418A      5.250159   419A      5.299414  
     420A      5.326388   421A      5.366142   422A      5.403387  
     423A      5.420689   424A      5.425816   425A      5.463396  
     426A      5.471513   427A      5.491420   428A      5.567216  
     429A      5.571283   430A      5.634196   431A      5.657113  
     432A      5.667344   433A      5.704196   434A      5.715807  
     435A      5.788523   436A      5.791108   437A      5.835963  
     438A      5.837947   439A      5.861552   440A      5.880735  
     441A      5.927408   442A      5.990037   443A      6.002982  
     444A      6.063976   445A      6.074064   446A      6.133516  
     447A      6.168460   448A      6.188768   449A      6.200832  
     450A      6.236598   451A      6.255758   452A      6.321214  
     453A      6.361058   454A      6.424050   455A      6.532645  
     456A      6.571385   457A      6.634340   458A      6.712960  
     459A      6.725860   460A      6.818300   461A      6.845152  
     462A      6.857308   463A      6.909308   464A      7.000986  
     465A      7.033051   466A      7.034908   467A      7.088922  
     468A      7.123890   469A      7.428057   470A      7.508161  
     471A      7.530998   472A      7.713571   473A      7.715809  
     474A      7.826768   475A      8.285452   476A      8.421381  
     477A     14.562743   478A     16.428555   479A     16.922028  
     480A     17.791392   481A     17.864219   482A     18.567784  
     483A     19.926440  

    Final Occupation by Irrep:
              A 
    DOCC [    26 ]

  @DF-RHF Final Energy:  -322.82457192048355

   => Energetics <=

    Nuclear Repulsion Energy =            291.5678447959274422
    One-Electron Energy =               -1016.0708905785780871
    Two-Electron Energy =                 401.6784738621670385
    Total Energy =                       -322.8245719204835495

Computation Completed

*** tstop() called on c446-101.stampede2.tacc.utexas.edu at Sat Mar 20 12:27:14 2021
Module time:
	user time   =     311.24 seconds =       5.19 minutes
	system time =      23.16 seconds =       0.39 minutes
	total time  =         19 seconds =       0.32 minutes
Total time:
	user time   =     311.24 seconds =       5.19 minutes
	system time =      23.16 seconds =       0.39 minutes
	total time  =         19 seconds =       0.32 minutes
   => Loading Basis Set <=

    Name: (AUG-CC-PVTZ AUX)
    Role: RIFIT
    Keyword: DF_BASIS_MP2
    atoms 1    entry O          line   264 file /home1/07844/xy3866/miniconda3/envs/p4env/share/psi4/basis/aug-cc-pvtz-ri.gbs 
    atoms 2    entry N          line   206 file /home1/07844/xy3866/miniconda3/envs/p4env/share/psi4/basis/aug-cc-pvtz-ri.gbs 
    atoms 3-7  entry C          line   148 file /home1/07844/xy3866/miniconda3/envs/p4env/share/psi4/basis/aug-cc-pvtz-ri.gbs 
    atoms 8-14 entry H          line    30 file /home1/07844/xy3866/miniconda3/envs/p4env/share/psi4/basis/aug-cc-pvtz-ri.gbs 


*** tstart() called on c446-101.stampede2.tacc.utexas.edu
*** at Sat Mar 20 12:27:15 2021


  //>>>>>>>>>>>>>>>>>>>>>>>>>>>>>>>>>>>//
  //               DFMP2               //
  //<<<<<<<<<<<<<<<<<<<<<<<<<<<<<<<<<<<//

	 --------------------------------------------------------
	                          DF-MP2                         
	      2nd-Order Density-Fitted Moller-Plesset Theory     
	              RMP2 Wavefunction,  32 Threads             
	                                                         
	        Rob Parrish, Justin Turney, Andy Simmonett,      
	           Ed Hohenstein, and C. David Sherrill          
	 --------------------------------------------------------

   => Auxiliary Basis Set <=

  Basis Set: (AUG-CC-PVTZ AUX)
    Blend: AUG-CC-PVTZ-RI
    Number of shells: 294
    Number of basis functions: 1064
    Number of Cartesian functions: 1337
    Spherical Harmonics?: true
    Max angular momentum: 4

	 --------------------------------------------------------
	                 NBF =   483, NAUX =  1064
	 --------------------------------------------------------
	   CLASS    FOCC     OCC    AOCC    AVIR     VIR    FVIR
	   PAIRS       0      26      26     457     457       0
	 --------------------------------------------------------

  DFHelper Memory: AOs need 1.877 GiB; user supplied 22.352 GiB. Using in-core AOs.


         ------------------------------------------------------------
                                     CPHF                           
                                  Rob Parrish                       
         ------------------------------------------------------------

  ==> Geometry <==

    Molecular point group: c1
    Full point group: C1

    Geometry (in Angstrom), charge = 0, multiplicity = 1:

       Center              X                  Y                   Z               Mass       
    ------------   -----------------  -----------------  -----------------  -----------------
         O           -0.816672337266    -1.104383410685    -0.000012165413    15.994914619570
         N           -0.226842337266     1.059670589315     0.000017834587    14.003074004430
         C            1.591608662734    -0.691647410685     0.000024834587    12.000000000000
         C            0.192698662734    -0.178550410685     0.000002834587    12.000000000000
         C            2.610510662734     0.443596589315    -0.000023165413    12.000000000000
         C           -2.008908037266    -0.330647110685    -0.000013165413    12.000000000000
         C           -1.613113337266     0.955670589315     0.000004834587    12.000000000000
         H            1.730727662734    -1.335880410685     0.876432834587     1.007825032230
         H            1.730728662734    -1.335961410685    -0.876322165413     1.007825032230
         H            2.485304662734     1.075121589315    -0.881452165413     1.007825032230
         H            3.625395662734     0.037398589315    -0.000021165413     1.007825032230
         H            2.485324662734     1.075181589315     0.881365834587     1.007825032230
         H           -2.897217337266    -0.903988410685    -0.000005165413     1.007825032230
         H           -2.248811337266     1.829480589315    -0.000007165413     1.007825032230

  Nuclear repulsion =  291.567844795927442
  Reference energy  = -322.824571920483550

  ==> Basis Set <==

  Basis Set: AUG-CC-PVTZ
    Blend: AUG-CC-PVTZ
    Number of shells: 161
    Number of basis functions: 483
    Number of Cartesian functions: 560
    Spherical Harmonics?: true
    Max angular momentum: 3

  ==> CGRSolver (by Rob Parrish) <==

   Number of roots    =         1
   Preconditioning    =    JACOBI
   Convergence cutoff =     1E-06
   Maximum iterations =       100

  ==> CPHFRHamiltonian (by Rob Parrish) <== 

  ==> MemDFJK: Density-Fitted J/K Matrices <==

    J tasked:                   Yes
    K tasked:                   Yes
    wK tasked:                   No
    OpenMP threads:              32
    Memory [MiB]:             22888
    Algorithm:                 Core
    Schwarz Cutoff:           1E-12
    Mask sparsity (%):       3.2380
    Fitting Condition:        1E-10

   => Auxiliary Basis Set <=

  Basis Set: (AUG-CC-PVTZ AUX)
    Blend: AUG-CC-PVTZ-JKFIT
    Number of shells: 308
    Number of basis functions: 1050
    Number of Cartesian functions: 1302
    Spherical Harmonics?: true
    Max angular momentum: 4

  ==> CPHF Iterations <==

  => Iterations <=

             Iter  Converged  Remaining    Residual
  CGR           1          0          1   1.231E-01
  CGR           2          0          1   4.429E-02
  CGR           3          0          1   2.148E-02
  CGR           4          0          1   7.051E-03
  CGR           5          0          1   2.955E-03
  CGR           6          0          1   1.141E-03
  CGR           7          0          1   4.121E-04
  CGR           8          0          1   1.341E-04
  CGR           9          0          1   4.221E-05
  CGR          10          0          1   1.115E-05
  CGR          11          0          1   3.542E-06
  CGR          12          0          1   1.119E-06
  CGR          13          1          0   3.510E-07

    CGRSolver converged.

	-----------------------------------------------------------
	 ==================> DF-MP2 Energies <==================== 
	-----------------------------------------------------------
	 Reference Energy          =    -322.8245719204835495 [Eh]
	 Singles Energy            =      -0.0000000000000000 [Eh]
	 Same-Spin Energy          =      -0.3353793212770911 [Eh]
	 Opposite-Spin Energy      =      -1.0621372796785642 [Eh]
	 Correlation Energy        =      -1.3975166009556554 [Eh]
	 Total Energy              =    -324.2220885214392183 [Eh]
	-----------------------------------------------------------
	 ================> DF-SCS-MP2 Energies <================== 
	-----------------------------------------------------------
	 SCS Same-Spin Scale       =       0.3333333333333333 [-]
	 SCS Opposite-Spin Scale   =       1.2000000000000000 [-]
	 SCS Same-Spin Energy      =      -0.1117931070923637 [Eh]
	 SCS Opposite-Spin Energy  =      -1.2745647356142771 [Eh]
	 SCS Correlation Energy    =      -1.3863578427066408 [Eh]
	 SCS Total Energy          =    -324.2109297631901654 [Eh]
	-----------------------------------------------------------



Properties will be evaluated at  -0.000000,   0.000000,   0.000000 [a0]

Properties computed using the MP2 density matrix

  Nuclear Dipole Moment: [e a0]
     X:     6.4760      Y:     0.4054      Z:    -0.0000

  Electronic Dipole Moment: [e a0]
     X:    -6.6376      Y:    -0.8478      Z:     0.0000

  Dipole Moment: [e a0]
     X:    -0.1616      Y:    -0.4424      Z:    -0.0000     Total:     0.4710

  Dipole Moment: [D]
     X:    -0.4108      Y:    -1.1245      Z:    -0.0000     Total:     1.1972


*** tstop() called on c446-101.stampede2.tacc.utexas.edu at Sat Mar 20 12:28:55 2021
Module time:
	user time   =     753.98 seconds =      12.57 minutes
	system time =      31.31 seconds =       0.52 minutes
	total time  =        100 seconds =       1.67 minutes
Total time:
	user time   =    1065.92 seconds =      17.77 minutes
	system time =      54.49 seconds =       0.91 minutes
	total time  =        120 seconds =       2.00 minutes

    Psi4 stopped on: Saturday, 20 March 2021 12:28PM
    Psi4 wall time for execution: 0:02:00.81

*** Psi4 exiting successfully. Buy a developer a beer!
