
    -----------------------------------------------------------------------
          Psi4: An Open-Source Ab Initio Electronic Structure Package
                               Psi4 1.3.2 release

                         Git: Rev {HEAD} ecbda83 


    R. M. Parrish, L. A. Burns, D. G. A. Smith, A. C. Simmonett,
    A. E. DePrince III, E. G. Hohenstein, U. Bozkaya, A. Yu. Sokolov,
    R. Di Remigio, R. M. Richard, J. F. Gonthier, A. M. James,
    H. R. McAlexander, A. Kumar, M. Saitow, X. Wang, B. P. Pritchard,
    P. Verma, H. F. Schaefer III, K. Patkowski, R. A. King, E. F. Valeev,
    F. A. Evangelista, J. M. Turney, T. D. Crawford, and C. D. Sherrill,
    J. Chem. Theory Comput. 13(7) pp 3185--3197 (2017).
    (doi: 10.1021/acs.jctc.7b00174)


                         Additional Contributions by
    P. Kraus, H. Kruse, M. H. Lechner, M. C. Schieber, R. A. Shaw,
    A. Alenaizan, R. Galvelis, Z. L. Glick, S. Lehtola, and J. P. Misiewicz

    -----------------------------------------------------------------------


    Psi4 started on: Tuesday, 02 February 2021 03:44PM

    Process ID: 1914442
    Host:       node58.bme.utexas.edu
    PSIDATADIR: /home/xy3866/psi4conda/share/psi4
    Memory:     500.0 MiB
    Threads:    8
    
  ==> Input File <==

--------------------------------------------------------------------------
#psi4
#
memory 32 gb

molecule  {
0 1
  O       -0.8544890    -1.1400305    -0.0000124
  N       -0.2975850     1.0586860     0.0000180
  C        1.5208660    -0.6926320     0.0000250
  C        0.1219560    -0.1795350     0.0000030
  C        2.5397680     0.4426120    -0.0000230
  C       -2.0377090    -0.3588510    -0.0000130
  C       -1.6838560     0.9546860     0.0000050
  H        1.6599850    -1.3368650     0.8764330
  H        1.6599860    -1.3369460    -0.8763220
  H        2.4145620     1.0741370    -0.8814520
  H        3.5546530     0.0364140    -0.0000210
  H        2.4145820     1.0741970     0.8813660
  H       -2.9679600    -0.9049730    -0.0000050
  H       -2.3195540     1.8284960    -0.0000070
units angstrom
no_reorient  #important for SAPT in psi4, default
symmetry c1  #important for SAPT in psi4, default
}

set PROPERTIES_ORIGIN ["COM"]
properties('MP2/aug-cc-pvtz', properties = ['dipole'])
--------------------------------------------------------------------------

  Memory set to  29.802 GiB by Python driver.
    SCF Algorithm Type (re)set to DF.

*** tstart() called on node58.bme.utexas.edu
*** at Tue Feb  2 15:44:17 2021

   => Loading Basis Set <=

    Name: AUG-CC-PVTZ
    Role: ORBITAL
    Keyword: BASIS
    atoms 1    entry O          line   327 file /home/xy3866/psi4conda/share/psi4/basis/aug-cc-pvtz.gbs 
    atoms 2    entry N          line   281 file /home/xy3866/psi4conda/share/psi4/basis/aug-cc-pvtz.gbs 
    atoms 3-7  entry C          line   235 file /home/xy3866/psi4conda/share/psi4/basis/aug-cc-pvtz.gbs 
    atoms 8-14 entry H          line    36 file /home/xy3866/psi4conda/share/psi4/basis/aug-cc-pvtz.gbs 


         ---------------------------------------------------------
                                   SCF
               by Justin Turney, Rob Parrish, Andy Simmonett
                          and Daniel G. A. Smith
                              RHF Reference
                        8 Threads,  30517 MiB Core
         ---------------------------------------------------------

  ==> Geometry <==

    Molecular point group: c1
    Full point group: C1

    Geometry (in Angstrom), charge = 0, multiplicity = 1:

       Center              X                  Y                   Z               Mass       
    ------------   -----------------  -----------------  -----------------  -----------------
         O           -0.794358595155    -1.129967804168    -0.000012499490    15.994914619570
         N           -0.237454595155     1.068748695832     0.000017900510    14.003074004430
         C            1.580996404845    -0.682569304168     0.000024900510    12.000000000000
         C            0.182086404845    -0.169472304168     0.000002900510    12.000000000000
         C            2.599898404845     0.452674695832    -0.000023099490    12.000000000000
         C           -1.977578595155    -0.348788304168    -0.000013099490    12.000000000000
         C           -1.623725595155     0.964748695832     0.000004900510    12.000000000000
         H            1.720115404845    -1.326802304168     0.876432900510     1.007825032230
         H            1.720116404845    -1.326883304168    -0.876322099490     1.007825032230
         H            2.474692404845     1.084199695832    -0.881452099490     1.007825032230
         H            3.614783404845     0.046476695832    -0.000021099490     1.007825032230
         H            2.474712404845     1.084259695832     0.881365900510     1.007825032230
         H           -2.907829595155    -0.894910304168    -0.000005099490     1.007825032230
         H           -2.259423595155     1.838558695832    -0.000007099490     1.007825032230

  Running in c1 symmetry.

  Rotational constants: A =      0.23848  B =      0.06764  C =      0.05374 [cm^-1]
  Rotational constants: A =   7149.50204  B =   2027.88254  C =   1611.15798 [MHz]
  Nuclear repulsion =  291.500498485737182

  Charge       = 0
  Multiplicity = 1
  Electrons    = 52
  Nalpha       = 26
  Nbeta        = 26

  ==> Algorithm <==

  SCF Algorithm Type is DF.
  DIIS enabled.
  MOM disabled.
  Fractional occupation disabled.
  Guess Type is SAD.
  Energy threshold   = 1.00e-10
  Density threshold  = 1.00e-10
  Integral threshold = 0.00e+00

  ==> Primary Basis <==

  Basis Set: AUG-CC-PVTZ
    Blend: AUG-CC-PVTZ
    Number of shells: 161
    Number of basis function: 483
    Number of Cartesian functions: 560
    Spherical Harmonics?: true
    Max angular momentum: 3

   => Loading Basis Set <=

    Name: (AUG-CC-PVTZ AUX)
    Role: JKFIT
    Keyword: DF_BASIS_SCF
    atoms 1    entry O          line   286 file /home/xy3866/psi4conda/share/psi4/basis/aug-cc-pvtz-jkfit.gbs 
    atoms 2    entry N          line   224 file /home/xy3866/psi4conda/share/psi4/basis/aug-cc-pvtz-jkfit.gbs 
    atoms 3-7  entry C          line   162 file /home/xy3866/psi4conda/share/psi4/basis/aug-cc-pvtz-jkfit.gbs 
    atoms 8-14 entry H          line    70 file /home/xy3866/psi4conda/share/psi4/basis/aug-cc-pvtz-jkfit.gbs 

  ==> Pre-Iterations <==

   -------------------------------------------------------
    Irrep   Nso     Nmo     Nalpha   Nbeta   Ndocc  Nsocc
   -------------------------------------------------------
     A        483     483       0       0       0       0
   -------------------------------------------------------
    Total     483     483      26      26      26       0
   -------------------------------------------------------

  ==> Integral Setup <==

  DFHelper Memory: AOs need 1.836 GiB; user supplied 22.352 GiB. Using in-core AOs.

  ==> MemDFJK: Density-Fitted J/K Matrices <==

    J tasked:                   Yes
    K tasked:                   Yes
    wK tasked:                   No
    OpenMP threads:               8
    Memory [MiB]:             22888
    Algorithm:                 Core
    Schwarz Cutoff:           1E-12
    Mask sparsity (%):       3.2089
    Fitting Condition:        1E-10

   => Auxiliary Basis Set <=

  Basis Set: (AUG-CC-PVTZ AUX)
    Blend: AUG-CC-PVTZ-JKFIT
    Number of shells: 308
    Number of basis function: 1050
    Number of Cartesian functions: 1302
    Spherical Harmonics?: true
    Max angular momentum: 4

  Minimum eigenvalue in the overlap matrix is 5.3811242094E-06.
  Using Symmetric Orthogonalization.

  SCF Guess: Superposition of Atomic Densities via on-the-fly atomic UHF.

  ==> Iterations <==

                           Total Energy        Delta E     RMS |[F,P]|

   @DF-RHF iter SAD:  -322.13652612898210   -3.22137e+02   0.00000e+00 
   @DF-RHF iter   1:  -322.62080624000407   -4.84280e-01   1.22119e-03 DIIS
   @DF-RHF iter   2:  -322.78024905538223   -1.59443e-01   6.15200e-04 DIIS
   @DF-RHF iter   3:  -322.81897452065186   -3.87255e-02   1.61855e-04 DIIS
   @DF-RHF iter   4:  -322.82255452536594   -3.58000e-03   7.39002e-05 DIIS
   @DF-RHF iter   5:  -322.82324977253074   -6.95247e-04   1.22983e-05 DIIS
   @DF-RHF iter   6:  -322.82328643778192   -3.66653e-05   5.88729e-06 DIIS
   @DF-RHF iter   7:  -322.82329334916813   -6.91139e-06   2.05240e-06 DIIS
   @DF-RHF iter   8:  -322.82329474733677   -1.39817e-06   7.29773e-07 DIIS
   @DF-RHF iter   9:  -322.82329495986500   -2.12528e-07   2.02100e-07 DIIS
   @DF-RHF iter  10:  -322.82329497230705   -1.24421e-08   7.12106e-08 DIIS
   @DF-RHF iter  11:  -322.82329497371319   -1.40614e-09   2.37000e-08 DIIS
   @DF-RHF iter  12:  -322.82329497388753   -1.74339e-10   1.01164e-08 DIIS
   @DF-RHF iter  13:  -322.82329497392760   -4.00746e-11   4.67551e-09 DIIS
   @DF-RHF iter  14:  -322.82329497393698   -9.37916e-12   1.17068e-09 DIIS
   @DF-RHF iter  15:  -322.82329497393812   -1.13687e-12   6.66473e-10 DIIS
   @DF-RHF iter  16:  -322.82329497393823   -1.13687e-13   2.41444e-10 DIIS
   @DF-RHF iter  17:  -322.82329497393818    5.68434e-14   9.10311e-11 DIIS
  Energy and wave function converged.


  ==> Post-Iterations <==

    Orbital Energies [Eh]
    ---------------------

    Doubly Occupied:                                                      

       1A    -20.633977     2A    -15.561082     3A    -11.339889  
       4A    -11.293845     5A    -11.266311     6A    -11.247099  
       7A    -11.219816     8A     -1.462845     9A     -1.227604  
      10A     -1.081327    11A     -0.995318    12A     -0.883887  
      13A     -0.824345    14A     -0.777334    15A     -0.713200  
      16A     -0.662679    17A     -0.626529    18A     -0.605287  
      19A     -0.586517    20A     -0.577213    21A     -0.523211  
      22A     -0.513625    23A     -0.503700    24A     -0.457457  
      25A     -0.451784    26A     -0.334907  

    Virtual:                                                              

      27A      0.028914    28A      0.031436    29A      0.038025  
      30A      0.044183    31A      0.049496    32A      0.055328  
      33A      0.065953    34A      0.090486    35A      0.090841  
      36A      0.093531    37A      0.102837    38A      0.106041  
      39A      0.111881    40A      0.119369    41A      0.127242  
      42A      0.132040    43A      0.132527    44A      0.135195  
      45A      0.139749    46A      0.144339    47A      0.149464  
      48A      0.156469    49A      0.164916    50A      0.169556  
      51A      0.188924    52A      0.201331    53A      0.213935  
      54A      0.219111    55A      0.220083    56A      0.224863  
      57A      0.229752    58A      0.234125    59A      0.243580  
      60A      0.257415    61A      0.261675    62A      0.267489  
      63A      0.278463    64A      0.282315    65A      0.289251  
      66A      0.293905    67A      0.299470    68A      0.303908  
      69A      0.318143    70A      0.331418    71A      0.339177  
      72A      0.343812    73A      0.350601    74A      0.359407  
      75A      0.360901    76A      0.368311    77A      0.373833  
      78A      0.381148    79A      0.389914    80A      0.390890  
      81A      0.394393    82A      0.397107    83A      0.410455  
      84A      0.413484    85A      0.414446    86A      0.420768  
      87A      0.432261    88A      0.432962    89A      0.445308  
      90A      0.459167    91A      0.460885    92A      0.463266  
      93A      0.463391    94A      0.472902    95A      0.481143  
      96A      0.487337    97A      0.487412    98A      0.495796  
      99A      0.498471   100A      0.504036   101A      0.521900  
     102A      0.522946   103A      0.527602   104A      0.529556  
     105A      0.536394   106A      0.544238   107A      0.549023  
     108A      0.555201   109A      0.562701   110A      0.566980  
     111A      0.584532   112A      0.590833   113A      0.611116  
     114A      0.611589   115A      0.619035   116A      0.634924  
     117A      0.640924   118A      0.660601   119A      0.662300  
     120A      0.678598   121A      0.693159   122A      0.702403  
     123A      0.713105   124A      0.730640   125A      0.731765  
     126A      0.753183   127A      0.778247   128A      0.780326  
     129A      0.788300   130A      0.791384   131A      0.798395  
     132A      0.813236   133A      0.823349   134A      0.828876  
     135A      0.833275   136A      0.842775   137A      0.854664  
     138A      0.860652   139A      0.868258   140A      0.872442  
     141A      0.885418   142A      0.886766   143A      0.902221  
     144A      0.911000   145A      0.914841   146A      0.925028  
     147A      0.925947   148A      0.938952   149A      0.943807  
     150A      0.948029   151A      0.953099   152A      0.969014  
     153A      0.969777   154A      0.975570   155A      0.988025  
     156A      0.990955   157A      0.993930   158A      1.002071  
     159A      1.005267   160A      1.031524   161A      1.036680  
     162A      1.052784   163A      1.058107   164A      1.067766  
     165A      1.074933   166A      1.083310   167A      1.092436  
     168A      1.100391   169A      1.104336   170A      1.113679  
     171A      1.121046   172A      1.122115   173A      1.126911  
     174A      1.142028   175A      1.146697   176A      1.147484  
     177A      1.160254   178A      1.164410   179A      1.181373  
     180A      1.181566   181A      1.193134   182A      1.201158  
     183A      1.224598   184A      1.229268   185A      1.237425  
     186A      1.250912   187A      1.253663   188A      1.260311  
     189A      1.276183   190A      1.295294   191A      1.303062  
     192A      1.317329   193A      1.326617   194A      1.336740  
     195A      1.350462   196A      1.355051   197A      1.360097  
     198A      1.363318   199A      1.409824   200A      1.414793  
     201A      1.433251   202A      1.451187   203A      1.458499  
     204A      1.460407   205A      1.479551   206A      1.498166  
     207A      1.501382   208A      1.515996   209A      1.520371  
     210A      1.533201   211A      1.540820   212A      1.550716  
     213A      1.560782   214A      1.562381   215A      1.587061  
     216A      1.615045   217A      1.627015   218A      1.628621  
     219A      1.640292   220A      1.649646   221A      1.663575  
     222A      1.681797   223A      1.688613   224A      1.695087  
     225A      1.706194   226A      1.711121   227A      1.713641  
     228A      1.723588   229A      1.740036   230A      1.742533  
     231A      1.759178   232A      1.781131   233A      1.791246  
     234A      1.802290   235A      1.809848   236A      1.826206  
     237A      1.833000   238A      1.839741   239A      1.840936  
     240A      1.850340   241A      1.872653   242A      1.893802  
     243A      1.905557   244A      1.933063   245A      1.941058  
     246A      1.965744   247A      1.978648   248A      1.980645  
     249A      1.987294   250A      1.991578   251A      2.000143  
     252A      2.016906   253A      2.045722   254A      2.049926  
     255A      2.060308   256A      2.072627   257A      2.094112  
     258A      2.110476   259A      2.115831   260A      2.116709  
     261A      2.143994   262A      2.179593   263A      2.198860  
     264A      2.207991   265A      2.240370   266A      2.242256  
     267A      2.266867   268A      2.268135   269A      2.273596  
     270A      2.305892   271A      2.307241   272A      2.316614  
     273A      2.331555   274A      2.347759   275A      2.366680  
     276A      2.392176   277A      2.400545   278A      2.414200  
     279A      2.432637   280A      2.449011   281A      2.462334  
     282A      2.491106   283A      2.517156   284A      2.522424  
     285A      2.568185   286A      2.581956   287A      2.605950  
     288A      2.626749   289A      2.647985   290A      2.651470  
     291A      2.692039   292A      2.700066   293A      2.773038  
     294A      2.797642   295A      2.833128   296A      2.843977  
     297A      2.877140   298A      2.928193   299A      2.996899  
     300A      3.003009   301A      3.031160   302A      3.068744  
     303A      3.070254   304A      3.104806   305A      3.155860  
     306A      3.232657   307A      3.237307   308A      3.260899  
     309A      3.289757   310A      3.304290   311A      3.314677  
     312A      3.335532   313A      3.348756   314A      3.375387  
     315A      3.399562   316A      3.406760   317A      3.428837  
     318A      3.444888   319A      3.506340   320A      3.512304  
     321A      3.533156   322A      3.544003   323A      3.544935  
     324A      3.565197   325A      3.573063   326A      3.594287  
     327A      3.625604   328A      3.634241   329A      3.667583  
     330A      3.674789   331A      3.687337   332A      3.693501  
     333A      3.712508   334A      3.739216   335A      3.742566  
     336A      3.751505   337A      3.760279   338A      3.770580  
     339A      3.787861   340A      3.801272   341A      3.815184  
     342A      3.834283   343A      3.852394   344A      3.854028  
     345A      3.872019   346A      3.893124   347A      3.919918  
     348A      3.922875   349A      3.933164   350A      3.949845  
     351A      3.965312   352A      3.970089   353A      3.992687  
     354A      4.006907   355A      4.021410   356A      4.023166  
     357A      4.033568   358A      4.051909   359A      4.074104  
     360A      4.074679   361A      4.106446   362A      4.140594  
     363A      4.156804   364A      4.159382   365A      4.171640  
     366A      4.190981   367A      4.217052   368A      4.219637  
     369A      4.232466   370A      4.249965   371A      4.270449  
     372A      4.291475   373A      4.304381   374A      4.314200  
     375A      4.347067   376A      4.374645   377A      4.403105  
     378A      4.411422   379A      4.415538   380A      4.455688  
     381A      4.478445   382A      4.494147   383A      4.496375  
     384A      4.529431   385A      4.547841   386A      4.554141  
     387A      4.561209   388A      4.600580   389A      4.602440  
     390A      4.613208   391A      4.689407   392A      4.699365  
     393A      4.718412   394A      4.727588   395A      4.779101  
     396A      4.807224   397A      4.811976   398A      4.859713  
     399A      4.860893   400A      4.872499   401A      4.885427  
     402A      4.902492   403A      4.912767   404A      4.957528  
     405A      4.965255   406A      5.004185   407A      5.004744  
     408A      5.067679   409A      5.089580   410A      5.093036  
     411A      5.109002   412A      5.150764   413A      5.157254  
     414A      5.178266   415A      5.188964   416A      5.229610  
     417A      5.234453   418A      5.248200   419A      5.281567  
     420A      5.285003   421A      5.361558   422A      5.402221  
     423A      5.420626   424A      5.423475   425A      5.465558  
     426A      5.467378   427A      5.471471   428A      5.565733  
     429A      5.568713   430A      5.634690   431A      5.661771  
     432A      5.666414   433A      5.699679   434A      5.715949  
     435A      5.778305   436A      5.788104   437A      5.813674  
     438A      5.818011   439A      5.835824   440A      5.873372  
     441A      5.879373   442A      5.989831   443A      6.002118  
     444A      6.062459   445A      6.072425   446A      6.133154  
     447A      6.171583   448A      6.182186   449A      6.193639  
     450A      6.237090   451A      6.253718   452A      6.320478  
     453A      6.346559   454A      6.425162   455A      6.532491  
     456A      6.570961   457A      6.633230   458A      6.662948  
     459A      6.727772   460A      6.828742   461A      6.846796  
     462A      6.861332   463A      6.908948   464A      6.989082  
     465A      7.016703   466A      7.032966   467A      7.080280  
     468A      7.099406   469A      7.403738   470A      7.506857  
     471A      7.517590   472A      7.707631   473A      7.718478  
     474A      7.813339   475A      8.293958   476A      8.408063  
     477A     14.529190   478A     16.377042   479A     16.906540  
     480A     17.584132   481A     17.678168   482A     18.550571  
     483A     19.953079  

    Final Occupation by Irrep:
              A 
    DOCC [    26 ]

  @DF-RHF Final Energy:  -322.82329497393818

   => Energetics <=

    Nuclear Repulsion Energy =            291.5004984857371824
    One-Electron Energy =               -1015.9060092347807540
    Two-Electron Energy =                 401.5822157751053396
    Total Energy =                       -322.8232949739381752

Computation Completed

*** tstop() called on node58.bme.utexas.edu at Tue Feb  2 15:44:29 2021
Module time:
	user time   =      83.59 seconds =       1.39 minutes
	system time =       2.64 seconds =       0.04 minutes
	total time  =         12 seconds =       0.20 minutes
Total time:
	user time   =      83.59 seconds =       1.39 minutes
	system time =       2.64 seconds =       0.04 minutes
	total time  =         12 seconds =       0.20 minutes
   => Loading Basis Set <=

    Name: (AUG-CC-PVTZ AUX)
    Role: RIFIT
    Keyword: DF_BASIS_MP2
    atoms 1    entry O          line   264 file /home/xy3866/psi4conda/share/psi4/basis/aug-cc-pvtz-ri.gbs 
    atoms 2    entry N          line   206 file /home/xy3866/psi4conda/share/psi4/basis/aug-cc-pvtz-ri.gbs 
    atoms 3-7  entry C          line   148 file /home/xy3866/psi4conda/share/psi4/basis/aug-cc-pvtz-ri.gbs 
    atoms 8-14 entry H          line    30 file /home/xy3866/psi4conda/share/psi4/basis/aug-cc-pvtz-ri.gbs 


*** tstart() called on node58.bme.utexas.edu
*** at Tue Feb  2 15:44:29 2021


  //>>>>>>>>>>>>>>>>>>>>>>>>>>>>>>>>>>>//
  //               DFMP2               //
  //<<<<<<<<<<<<<<<<<<<<<<<<<<<<<<<<<<<//

	 --------------------------------------------------------
	                          DF-MP2                         
	      2nd-Order Density-Fitted Moller-Plesset Theory     
	              RMP2 Wavefunction,   8 Threads             
	                                                         
	        Rob Parrish, Justin Turney, Andy Simmonett,      
	           Ed Hohenstein, and C. David Sherrill          
	 --------------------------------------------------------

   => Auxiliary Basis Set <=

  Basis Set: (AUG-CC-PVTZ AUX)
    Blend: AUG-CC-PVTZ-RI
    Number of shells: 294
    Number of basis function: 1064
    Number of Cartesian functions: 1337
    Spherical Harmonics?: true
    Max angular momentum: 4

	 --------------------------------------------------------
	                 NBF =   483, NAUX =  1064
	 --------------------------------------------------------
	   CLASS    FOCC     OCC    AOCC    AVIR     VIR    FVIR
	   PAIRS       0      26      26     457     457       0
	 --------------------------------------------------------

  DFHelper Memory: AOs need 1.836 GiB; user supplied 22.352 GiB. Using in-core AOs.


         ------------------------------------------------------------
                                     CPHF                           
                                  Rob Parrish                       
         ------------------------------------------------------------

  ==> Geometry <==

    Molecular point group: c1
    Full point group: C1

    Geometry (in Angstrom), charge = 0, multiplicity = 1:

       Center              X                  Y                   Z               Mass       
    ------------   -----------------  -----------------  -----------------  -----------------
         O           -0.794358595155    -1.129967804168    -0.000012499490    15.994914619570
         N           -0.237454595155     1.068748695832     0.000017900510    14.003074004430
         C            1.580996404845    -0.682569304168     0.000024900510    12.000000000000
         C            0.182086404845    -0.169472304168     0.000002900510    12.000000000000
         C            2.599898404845     0.452674695832    -0.000023099490    12.000000000000
         C           -1.977578595155    -0.348788304168    -0.000013099490    12.000000000000
         C           -1.623725595155     0.964748695832     0.000004900510    12.000000000000
         H            1.720115404845    -1.326802304168     0.876432900510     1.007825032230
         H            1.720116404845    -1.326883304168    -0.876322099490     1.007825032230
         H            2.474692404845     1.084199695832    -0.881452099490     1.007825032230
         H            3.614783404845     0.046476695832    -0.000021099490     1.007825032230
         H            2.474712404845     1.084259695832     0.881365900510     1.007825032230
         H           -2.907829595155    -0.894910304168    -0.000005099490     1.007825032230
         H           -2.259423595155     1.838558695832    -0.000007099490     1.007825032230

  Nuclear repulsion =  291.500498485737182
  Reference energy  = -322.823294973938175

  ==> Basis Set <==

  Basis Set: AUG-CC-PVTZ
    Blend: AUG-CC-PVTZ
    Number of shells: 161
    Number of basis function: 483
    Number of Cartesian functions: 560
    Spherical Harmonics?: true
    Max angular momentum: 3

  ==> CGRSolver (by Rob Parrish) <==

   Number of roots    =         1
   Preconditioning    =    JACOBI
   Convergence cutoff =     1E-06
   Maximum iterations =       100

  ==> CPHFRHamiltonian (by Rob Parrish) <== 

  ==> MemDFJK: Density-Fitted J/K Matrices <==

    J tasked:                   Yes
    K tasked:                   Yes
    wK tasked:                   No
    OpenMP threads:               8
    Memory [MiB]:             22888
    Algorithm:                 Core
    Schwarz Cutoff:           1E-12
    Mask sparsity (%):       3.2089
    Fitting Condition:        1E-10

   => Auxiliary Basis Set <=

  Basis Set: (AUG-CC-PVTZ AUX)
    Blend: AUG-CC-PVTZ-JKFIT
    Number of shells: 308
    Number of basis function: 1050
    Number of Cartesian functions: 1302
    Spherical Harmonics?: true
    Max angular momentum: 4

  ==> CPHF Iterations <==

  => Iterations <=

             Iter  Converged  Remaining    Residual
  CGR           1          0          1   1.224E-01
  CGR           2          0          1   4.399E-02
  CGR           3          0          1   2.150E-02
  CGR           4          0          1   7.106E-03
  CGR           5          0          1   3.004E-03
  CGR           6          0          1   1.175E-03
  CGR           7          0          1   4.250E-04
  CGR           8          0          1   1.380E-04
  CGR           9          0          1   4.222E-05
  CGR          10          0          1   1.050E-05
  CGR          11          0          1   2.695E-06
  CGR          12          0          1   1.010E-06
  CGR          13          1          0   3.308E-07

    CGRSolver converged.

	-----------------------------------------------------------
	 ==================> DF-MP2 Energies <==================== 
	-----------------------------------------------------------
	 Reference Energy          =    -322.8232949739381752 [Eh]
	 Singles Energy            =      -0.0000000000000000 [Eh]
	 Same-Spin Energy          =      -0.3357504701722132 [Eh]
	 Opposite-Spin Energy      =      -1.0631926297769123 [Eh]
	 Correlation Energy        =      -1.3989430999491255 [Eh]
	 Total Energy              =    -324.2222380738872971 [Eh]
	-----------------------------------------------------------
	 ================> DF-SCS-MP2 Energies <================== 
	-----------------------------------------------------------
	 SCS Same-Spin Scale       =       0.3333333333333333 [-]
	 SCS Opposite-Spin Scale   =       1.2000000000000000 [-]
	 SCS Same-Spin Energy      =      -0.1119168233907377 [Eh]
	 SCS Opposite-Spin Energy  =      -1.2758311557322948 [Eh]
	 SCS Correlation Energy    =      -1.3877479791230325 [Eh]
	 SCS Total Energy          =    -324.2110429530612237 [Eh]
	-----------------------------------------------------------



Properties will be evaluated at   0.000000,   0.000000,   0.000000 [a0]

Properties computed using the MP2 density matrix

  Nuclear Dipole Moment: [e a0]
     X:     6.4065      Y:     0.4648      Z:    -0.0000

  Electronic Dipole Moment: [e a0]
     X:    -6.5851      Y:    -0.8807      Z:     0.0000

  Dipole Moment: [e a0]
     X:    -0.1786      Y:    -0.4160      Z:    -0.0000     Total:     0.4527

  Dipole Moment: [D]
     X:    -0.4539      Y:    -1.0572      Z:    -0.0000     Total:     1.1506


*** tstop() called on node58.bme.utexas.edu at Tue Feb  2 15:45:09 2021
Module time:
	user time   =     275.87 seconds =       4.60 minutes
	system time =       6.11 seconds =       0.10 minutes
	total time  =         40 seconds =       0.67 minutes
Total time:
	user time   =     360.37 seconds =       6.01 minutes
	system time =       8.83 seconds =       0.15 minutes
	total time  =         52 seconds =       0.87 minutes

    Psi4 stopped on: Tuesday, 02 February 2021 03:45PM
    Psi4 wall time for execution: 0:00:52.64

*** Psi4 exiting successfully. Buy a developer a beer!
