186_MalicAcid Gaussian SP Calculation on node58.bme.utexas.edu          
Freq      RMP2-FC                                                     6-31G(d)            
Number of atoms                            I               15
Info1-9                                    I   N=           9
          26          25        1002           0           0         100
           6           2           1
Charge                                     I                0
Multiplicity                               I                1
Number of electrons                        I               70
Number of alpha electrons                  I               35
Number of beta electrons                   I               35
Number of basis functions                  I              147
Number of independent functions            I              147
Number of point charges in /Mol/           I                0
Number of translation vectors              I                0
Atomic numbers                             I   N=          15
           8           8           8           8           8           6
           6           6           6           1           1           1
           1           1           1
Nuclear charges                            R   N=          15
  8.00000000E+00  8.00000000E+00  8.00000000E+00  8.00000000E+00  8.00000000E+00
  6.00000000E+00  6.00000000E+00  6.00000000E+00  6.00000000E+00  1.00000000E+00
  1.00000000E+00  1.00000000E+00  1.00000000E+00  1.00000000E+00  1.00000000E+00
Current cartesian coordinates              R   N=          45
  5.24694343E-01  3.07209113E+00  6.41938906E-01  4.14178396E+00 -2.66629746E+00
  4.04466375E-01 -5.29870842E+00 -9.92428373E-02 -1.89066359E+00  5.01380167E+00
  1.30523132E+00 -9.69302657E-01 -4.24727703E+00 -4.29728717E-01  2.24921081E+00
  8.92574254E-01  4.30125685E-01  7.77114851E-01 -9.96697516E-01 -9.34691929E-01
 -9.30207641E-01  3.56502901E+00 -2.15340848E-01 -1.20184503E-02 -3.63753160E+00
 -4.51683337E-01  2.97746016E-02  5.91777538E-01 -1.86052971E-01  2.73102781E+00
 -6.62937527E-01 -2.97878459E+00 -9.06857124E-01 -8.15648800E-01 -2.55263685E-01
 -2.87250082E+00  1.94006674E+00  3.73475598E+00 -3.43526929E-01  5.87737122E+00
 -2.90232005E+00 -1.98725744E-01 -6.94523021E+00  1.60780427E-01 -1.08259605E+00
Force Field                                I                0
Int Atom Types                             I   N=          15
           0           0           0           0           0           0
           0           0           0           0           0           0
           0           0           0
MM charges                                 R   N=          15
  0.00000000E+00  0.00000000E+00  0.00000000E+00  0.00000000E+00  0.00000000E+00
  0.00000000E+00  0.00000000E+00  0.00000000E+00  0.00000000E+00  0.00000000E+00
  0.00000000E+00  0.00000000E+00  0.00000000E+00  0.00000000E+00  0.00000000E+00
Integer atomic weights                     I   N=          15
          16          16          16          16          16          12
          12          12          12           1           1           1
           1           1           1
Real atomic weights                        R   N=          15
  1.59949146E+01  1.59949146E+01  1.59949146E+01  1.59949146E+01  1.59949146E+01
  1.20000000E+01  1.20000000E+01  1.20000000E+01  1.20000000E+01  1.00782504E+00
  1.00782504E+00  1.00782504E+00  1.00782504E+00  1.00782504E+00  1.00782504E+00
Atom fragment info                         I   N=          15
           0           0           0           0           0           0
           0           0           0           0           0           0
           0           0           0
Atom residue num                           I   N=          15
           0           0           0           0           0           0
           0           0           0           0           0           0
           0           0           0
Nuclear spins                              I   N=          15
           0           0           0           0           0           0
           0           0           0           1           1           1
           1           1           1
Nuclear ZEff                               R   N=          15
 -5.60000000E+00 -5.60000000E+00 -5.60000000E+00 -5.60000000E+00 -5.60000000E+00
 -3.60000000E+00 -3.60000000E+00 -3.60000000E+00 -3.60000000E+00 -1.00000000E+00
 -1.00000000E+00 -1.00000000E+00 -1.00000000E+00 -1.00000000E+00 -1.00000000E+00
Nuclear QMom                               R   N=          15
  0.00000000E+00  0.00000000E+00  0.00000000E+00  0.00000000E+00  0.00000000E+00
  0.00000000E+00  0.00000000E+00  0.00000000E+00  0.00000000E+00  0.00000000E+00
  0.00000000E+00  0.00000000E+00  0.00000000E+00  0.00000000E+00  0.00000000E+00
Nuclear GFac                               R   N=          15
  0.00000000E+00  0.00000000E+00  0.00000000E+00  0.00000000E+00  0.00000000E+00
  0.00000000E+00  0.00000000E+00  0.00000000E+00  0.00000000E+00  2.79284600E+00
  2.79284600E+00  2.79284600E+00  2.79284600E+00  2.79284600E+00  2.79284600E+00
MicOpt                                     I   N=          15
          -1          -1          -1          -1          -1          -1
          -1          -1          -1          -1          -1          -1
          -1          -1          -1
Number of contracted shells                I               48
Number of primitive shells                 I              123
Pure/Cartesian d shells                    I                1
Pure/Cartesian f shells                    I                0
Highest angular momentum                   I                2
Largest degree of contraction              I                6
Shell types                                I   N=          48
           0          -1          -1           2           0          -1
          -1           2           0          -1          -1           2
           0          -1          -1           2           0          -1
          -1           2           0          -1          -1           2
           0          -1          -1           2           0          -1
          -1           2           0          -1          -1           2
           0           0           0           0           0           0
           0           0           0           0           0           0
Number of primitives per shell             I   N=          48
           6           3           1           1           6           3
           1           1           6           3           1           1
           6           3           1           1           6           3
           1           1           6           3           1           1
           6           3           1           1           6           3
           1           1           6           3           1           1
           3           1           3           1           3           1
           3           1           3           1           3           1
Shell to atom map                          I   N=          48
           1           1           1           1           2           2
           2           2           3           3           3           3
           4           4           4           4           5           5
           5           5           6           6           6           6
           7           7           7           7           8           8
           8           8           9           9           9           9
          10          10          11          11          12          12
          13          13          14          14          15          15
Primitive exponents                        R   N=         123
  5.48467166E+03  8.25234946E+02  1.88046958E+02  5.29645000E+01  1.68975704E+01
  5.79963534E+00  1.55396162E+01  3.59993359E+00  1.01376175E+00  2.70005823E-01
  8.00000000E-01  5.48467166E+03  8.25234946E+02  1.88046958E+02  5.29645000E+01
  1.68975704E+01  5.79963534E+00  1.55396162E+01  3.59993359E+00  1.01376175E+00
  2.70005823E-01  8.00000000E-01  5.48467166E+03  8.25234946E+02  1.88046958E+02
  5.29645000E+01  1.68975704E+01  5.79963534E+00  1.55396162E+01  3.59993359E+00
  1.01376175E+00  2.70005823E-01  8.00000000E-01  5.48467166E+03  8.25234946E+02
  1.88046958E+02  5.29645000E+01  1.68975704E+01  5.79963534E+00  1.55396162E+01
  3.59993359E+00  1.01376175E+00  2.70005823E-01  8.00000000E-01  5.48467166E+03
  8.25234946E+02  1.88046958E+02  5.29645000E+01  1.68975704E+01  5.79963534E+00
  1.55396162E+01  3.59993359E+00  1.01376175E+00  2.70005823E-01  8.00000000E-01
  3.04752488E+03  4.57369518E+02  1.03948685E+02  2.92101553E+01  9.28666296E+00
  3.16392696E+00  7.86827235E+00  1.88128854E+00  5.44249258E-01  1.68714478E-01
  8.00000000E-01  3.04752488E+03  4.57369518E+02  1.03948685E+02  2.92101553E+01
  9.28666296E+00  3.16392696E+00  7.86827235E+00  1.88128854E+00  5.44249258E-01
  1.68714478E-01  8.00000000E-01  3.04752488E+03  4.57369518E+02  1.03948685E+02
  2.92101553E+01  9.28666296E+00  3.16392696E+00  7.86827235E+00  1.88128854E+00
  5.44249258E-01  1.68714478E-01  8.00000000E-01  3.04752488E+03  4.57369518E+02
  1.03948685E+02  2.92101553E+01  9.28666296E+00  3.16392696E+00  7.86827235E+00
  1.88128854E+00  5.44249258E-01  1.68714478E-01  8.00000000E-01  1.87311370E+01
  2.82539436E+00  6.40121692E-01  1.61277759E-01  1.87311370E+01  2.82539436E+00
  6.40121692E-01  1.61277759E-01  1.87311370E+01  2.82539436E+00  6.40121692E-01
  1.61277759E-01  1.87311370E+01  2.82539436E+00  6.40121692E-01  1.61277759E-01
  1.87311370E+01  2.82539436E+00  6.40121692E-01  1.61277759E-01  1.87311370E+01
  2.82539436E+00  6.40121692E-01  1.61277759E-01
Contraction coefficients                   R   N=         123
  1.83107443E-03  1.39501722E-02  6.84450781E-02  2.32714336E-01  4.70192898E-01
  3.58520853E-01 -1.10777550E-01 -1.48026263E-01  1.13076702E+00  1.00000000E+00
  1.00000000E+00  1.83107443E-03  1.39501722E-02  6.84450781E-02  2.32714336E-01
  4.70192898E-01  3.58520853E-01 -1.10777550E-01 -1.48026263E-01  1.13076702E+00
  1.00000000E+00  1.00000000E+00  1.83107443E-03  1.39501722E-02  6.84450781E-02
  2.32714336E-01  4.70192898E-01  3.58520853E-01 -1.10777550E-01 -1.48026263E-01
  1.13076702E+00  1.00000000E+00  1.00000000E+00  1.83107443E-03  1.39501722E-02
  6.84450781E-02  2.32714336E-01  4.70192898E-01  3.58520853E-01 -1.10777550E-01
 -1.48026263E-01  1.13076702E+00  1.00000000E+00  1.00000000E+00  1.83107443E-03
  1.39501722E-02  6.84450781E-02  2.32714336E-01  4.70192898E-01  3.58520853E-01
 -1.10777550E-01 -1.48026263E-01  1.13076702E+00  1.00000000E+00  1.00000000E+00
  1.83473713E-03  1.40373228E-02  6.88426223E-02  2.32184443E-01  4.67941348E-01
  3.62311985E-01 -1.19332420E-01 -1.60854152E-01  1.14345644E+00  1.00000000E+00
  1.00000000E+00  1.83473713E-03  1.40373228E-02  6.88426223E-02  2.32184443E-01
  4.67941348E-01  3.62311985E-01 -1.19332420E-01 -1.60854152E-01  1.14345644E+00
  1.00000000E+00  1.00000000E+00  1.83473713E-03  1.40373228E-02  6.88426223E-02
  2.32184443E-01  4.67941348E-01  3.62311985E-01 -1.19332420E-01 -1.60854152E-01
  1.14345644E+00  1.00000000E+00  1.00000000E+00  1.83473713E-03  1.40373228E-02
  6.88426223E-02  2.32184443E-01  4.67941348E-01  3.62311985E-01 -1.19332420E-01
 -1.60854152E-01  1.14345644E+00  1.00000000E+00  1.00000000E+00  3.34946043E-02
  2.34726953E-01  8.13757326E-01  1.00000000E+00  3.34946043E-02  2.34726953E-01
  8.13757326E-01  1.00000000E+00  3.34946043E-02  2.34726953E-01  8.13757326E-01
  1.00000000E+00  3.34946043E-02  2.34726953E-01  8.13757326E-01  1.00000000E+00
  3.34946043E-02  2.34726953E-01  8.13757326E-01  1.00000000E+00  3.34946043E-02
  2.34726953E-01  8.13757326E-01  1.00000000E+00
P(S=P) Contraction coefficients            R   N=         123
  0.00000000E+00  0.00000000E+00  0.00000000E+00  0.00000000E+00  0.00000000E+00
  0.00000000E+00  7.08742682E-02  3.39752839E-01  7.27158577E-01  1.00000000E+00
  0.00000000E+00  0.00000000E+00  0.00000000E+00  0.00000000E+00  0.00000000E+00
  0.00000000E+00  0.00000000E+00  7.08742682E-02  3.39752839E-01  7.27158577E-01
  1.00000000E+00  0.00000000E+00  0.00000000E+00  0.00000000E+00  0.00000000E+00
  0.00000000E+00  0.00000000E+00  0.00000000E+00  7.08742682E-02  3.39752839E-01
  7.27158577E-01  1.00000000E+00  0.00000000E+00  0.00000000E+00  0.00000000E+00
  0.00000000E+00  0.00000000E+00  0.00000000E+00  0.00000000E+00  7.08742682E-02
  3.39752839E-01  7.27158577E-01  1.00000000E+00  0.00000000E+00  0.00000000E+00
  0.00000000E+00  0.00000000E+00  0.00000000E+00  0.00000000E+00  0.00000000E+00
  7.08742682E-02  3.39752839E-01  7.27158577E-01  1.00000000E+00  0.00000000E+00
  0.00000000E+00  0.00000000E+00  0.00000000E+00  0.00000000E+00  0.00000000E+00
  0.00000000E+00  6.89990666E-02  3.16423961E-01  7.44308291E-01  1.00000000E+00
  0.00000000E+00  0.00000000E+00  0.00000000E+00  0.00000000E+00  0.00000000E+00
  0.00000000E+00  0.00000000E+00  6.89990666E-02  3.16423961E-01  7.44308291E-01
  1.00000000E+00  0.00000000E+00  0.00000000E+00  0.00000000E+00  0.00000000E+00
  0.00000000E+00  0.00000000E+00  0.00000000E+00  6.89990666E-02  3.16423961E-01
  7.44308291E-01  1.00000000E+00  0.00000000E+00  0.00000000E+00  0.00000000E+00
  0.00000000E+00  0.00000000E+00  0.00000000E+00  0.00000000E+00  6.89990666E-02
  3.16423961E-01  7.44308291E-01  1.00000000E+00  0.00000000E+00  0.00000000E+00
  0.00000000E+00  0.00000000E+00  0.00000000E+00  0.00000000E+00  0.00000000E+00
  0.00000000E+00  0.00000000E+00  0.00000000E+00  0.00000000E+00  0.00000000E+00
  0.00000000E+00  0.00000000E+00  0.00000000E+00  0.00000000E+00  0.00000000E+00
  0.00000000E+00  0.00000000E+00  0.00000000E+00  0.00000000E+00  0.00000000E+00
  0.00000000E+00  0.00000000E+00  0.00000000E+00
Coordinates of each shell                  R   N=         144
  5.24694343E-01  3.07209113E+00  6.41938906E-01  5.24694343E-01  3.07209113E+00
  6.41938906E-01  5.24694343E-01  3.07209113E+00  6.41938906E-01  5.24694343E-01
  3.07209113E+00  6.41938906E-01  4.14178396E+00 -2.66629746E+00  4.04466375E-01
  4.14178396E+00 -2.66629746E+00  4.04466375E-01  4.14178396E+00 -2.66629746E+00
  4.04466375E-01  4.14178396E+00 -2.66629746E+00  4.04466375E-01 -5.29870842E+00
 -9.92428373E-02 -1.89066359E+00 -5.29870842E+00 -9.92428373E-02 -1.89066359E+00
 -5.29870842E+00 -9.92428373E-02 -1.89066359E+00 -5.29870842E+00 -9.92428373E-02
 -1.89066359E+00  5.01380167E+00  1.30523132E+00 -9.69302657E-01  5.01380167E+00
  1.30523132E+00 -9.69302657E-01  5.01380167E+00  1.30523132E+00 -9.69302657E-01
  5.01380167E+00  1.30523132E+00 -9.69302657E-01 -4.24727703E+00 -4.29728717E-01
  2.24921081E+00 -4.24727703E+00 -4.29728717E-01  2.24921081E+00 -4.24727703E+00
 -4.29728717E-01  2.24921081E+00 -4.24727703E+00 -4.29728717E-01  2.24921081E+00
  8.92574254E-01  4.30125685E-01  7.77114851E-01  8.92574254E-01  4.30125685E-01
  7.77114851E-01  8.92574254E-01  4.30125685E-01  7.77114851E-01  8.92574254E-01
  4.30125685E-01  7.77114851E-01 -9.96697516E-01 -9.34691929E-01 -9.30207641E-01
 -9.96697516E-01 -9.34691929E-01 -9.30207641E-01 -9.96697516E-01 -9.34691929E-01
 -9.30207641E-01 -9.96697516E-01 -9.34691929E-01 -9.30207641E-01  3.56502901E+00
 -2.15340848E-01 -1.20184503E-02  3.56502901E+00 -2.15340848E-01 -1.20184503E-02
  3.56502901E+00 -2.15340848E-01 -1.20184503E-02  3.56502901E+00 -2.15340848E-01
 -1.20184503E-02 -3.63753160E+00 -4.51683337E-01  2.97746016E-02 -3.63753160E+00
 -4.51683337E-01  2.97746016E-02 -3.63753160E+00 -4.51683337E-01  2.97746016E-02
 -3.63753160E+00 -4.51683337E-01  2.97746016E-02  5.91777538E-01 -1.86052971E-01
  2.73102781E+00  5.91777538E-01 -1.86052971E-01  2.73102781E+00 -6.62937527E-01
 -2.97878459E+00 -9.06857124E-01 -6.62937527E-01 -2.97878459E+00 -9.06857124E-01
 -8.15648800E-01 -2.55263685E-01 -2.87250082E+00 -8.15648800E-01 -2.55263685E-01
 -2.87250082E+00  1.94006674E+00  3.73475598E+00 -3.43526929E-01  1.94006674E+00
  3.73475598E+00 -3.43526929E-01  5.87737122E+00 -2.90232005E+00 -1.98725744E-01
  5.87737122E+00 -2.90232005E+00 -1.98725744E-01 -6.94523021E+00  1.60780427E-01
 -1.08259605E+00 -6.94523021E+00  1.60780427E-01 -1.08259605E+00
Constraint Structure                       R   N=          45
  5.24694343E-01  3.07209113E+00  6.41938906E-01  4.14178396E+00 -2.66629746E+00
  4.04466375E-01 -5.29870842E+00 -9.92428373E-02 -1.89066359E+00  5.01380167E+00
  1.30523132E+00 -9.69302657E-01 -4.24727703E+00 -4.29728717E-01  2.24921081E+00
  8.92574254E-01  4.30125685E-01  7.77114851E-01 -9.96697516E-01 -9.34691929E-01
 -9.30207641E-01  3.56502901E+00 -2.15340848E-01 -1.20184503E-02 -3.63753160E+00
 -4.51683337E-01  2.97746016E-02  5.91777538E-01 -1.86052971E-01  2.73102781E+00
 -6.62937527E-01 -2.97878459E+00 -9.06857124E-01 -8.15648800E-01 -2.55263685E-01
 -2.87250082E+00  1.94006674E+00  3.73475598E+00 -3.43526929E-01  5.87737122E+00
 -2.90232005E+00 -1.98725744E-01 -6.94523021E+00  1.60780427E-01 -1.08259605E+00
Num ILSW                                   I              100
ILSW                                       I   N=         100
           0           1           0           0           2           0
           0           0           0           0           0          -1
           0           0           0           0           0           0
           0           0           0           0           1           0
           1           0           0           0           0           0
           0           0      100000           0          -1           0
           0           0           0           0           0           0
           0           0           0           1           1           0
           0           0           1           0           0           0
           0           0           4          40           0           0
           0           0           0           0           0           0
           0           0           0           0           0           0
           0           0           0           0           0           0
           0           0           0           0           0           0
           0           0           0           0           0           0
           0           0           0           0           0           0
           0           0           0           0
Num RLSW                                   I               40
RLSW                                       R   N=          40
  1.00000000E+00  1.00000000E+00  1.00000000E+00  1.00000000E+00  1.00000000E+00
  0.00000000E+00  0.00000000E+00  1.00000000E+00  0.00000000E+00  0.00000000E+00
  0.00000000E+00  0.00000000E+00  1.00000000E+00  0.00000000E+00  0.00000000E+00
  0.00000000E+00  0.00000000E+00  1.00000000E+00  0.00000000E+00  0.00000000E+00
  0.00000000E+00  0.00000000E+00  1.00000000E+00  0.00000000E+00  0.00000000E+00
  0.00000000E+00  0.00000000E+00  1.00000000E+00  0.00000000E+00  0.00000000E+00
  0.00000000E+00  0.00000000E+00  0.00000000E+00  0.00000000E+00  0.00000000E+00
  0.00000000E+00  0.00000000E+00  0.00000000E+00  1.00000000E+00  1.00000000E+00
MxBond                                     I                4
NBond                                      I   N=          15
           2           2           2           1           1           4
           4           3           3           1           1           1
           1           1           1
IBond                                      I   N=          60
           6          13           0           0           8          14
           0           0           9          15           0           0
           8           0           0           0           9           0
           0           0           1           7           8          10
           6           9          11          12           2           4
           6           0           3           5           7           0
           6           0           0           0           7           0
           0           0           7           0           0           0
           1           0           0           0           2           0
           0           0           3           0           0           0
RBond                                      R   N=          60
  1.00000000E+00  1.00000000E+00  0.00000000E+00  0.00000000E+00  1.50000000E+00
  1.00000000E+00  0.00000000E+00  0.00000000E+00  1.50000000E+00  1.00000000E+00
  0.00000000E+00  0.00000000E+00  2.00000000E+00  0.00000000E+00  0.00000000E+00
  0.00000000E+00  2.00000000E+00  0.00000000E+00  0.00000000E+00  0.00000000E+00
  1.00000000E+00  1.00000000E+00  1.00000000E+00  1.00000000E+00  1.00000000E+00
  1.00000000E+00  1.00000000E+00  1.00000000E+00  1.50000000E+00  2.00000000E+00
  1.00000000E+00  0.00000000E+00  1.50000000E+00  2.00000000E+00  1.00000000E+00
  0.00000000E+00  1.00000000E+00  0.00000000E+00  0.00000000E+00  0.00000000E+00
  1.00000000E+00  0.00000000E+00  0.00000000E+00  0.00000000E+00  1.00000000E+00
  0.00000000E+00  0.00000000E+00  0.00000000E+00  1.00000000E+00  0.00000000E+00
  0.00000000E+00  0.00000000E+00  1.00000000E+00  0.00000000E+00  0.00000000E+00
  0.00000000E+00  1.00000000E+00  0.00000000E+00  0.00000000E+00  0.00000000E+00
Virial Ratio                               R      2.003198868976872E+00
SCF Energy                                 R     -5.293016532147806E+02
MP2 Energy                                 R     -5.307017390965508E+02
Total Energy                               R     -5.307017390965508E+02
Post-SCF wavefunction norm                 R      1.680960448025607E+00
RMS Force                                  R      9.362852821388574E-07
RMS Density                                R      2.094475025530067E-09
External E-field                           R   N=          35
  0.00000000E+00  0.00000000E+00  0.00000000E+00  0.00000000E+00  0.00000000E+00
  0.00000000E+00  0.00000000E+00  0.00000000E+00  0.00000000E+00  0.00000000E+00
  0.00000000E+00  0.00000000E+00  0.00000000E+00  0.00000000E+00  0.00000000E+00
  0.00000000E+00  0.00000000E+00  0.00000000E+00  0.00000000E+00  0.00000000E+00
  0.00000000E+00  0.00000000E+00  0.00000000E+00  0.00000000E+00  0.00000000E+00
  0.00000000E+00  0.00000000E+00  0.00000000E+00  0.00000000E+00  0.00000000E+00
  0.00000000E+00  0.00000000E+00  0.00000000E+00  0.00000000E+00  0.00000000E+00
IOpCl                                      I                0
IROHF                                      I                0
Alpha Orbital Energies                     R   N=         147
 -2.06499146E+01 -2.06284285E+01 -2.05895255E+01 -2.05771334E+01 -2.05644826E+01
 -1.14182538E+01 -1.14026317E+01 -1.13204973E+01 -1.12662695E+01 -1.48928058E+00
 -1.46547994E+00 -1.39453640E+00 -1.36897692E+00 -1.36092897E+00 -1.08665356E+00
 -9.68364042E-01 -8.42640386E-01 -8.06814747E-01 -7.54852946E-01 -7.31427937E-01
 -7.07251315E-01 -6.98028982E-01 -6.67631660E-01 -6.47565808E-01 -6.42665948E-01
 -6.21663726E-01 -5.95103346E-01 -5.83675852E-01 -5.53902759E-01 -5.41301885E-01
 -5.05659127E-01 -4.84390300E-01 -4.77685575E-01 -4.63656785E-01 -4.55052342E-01
  1.45855640E-01  1.78951479E-01  2.05199179E-01  2.25589227E-01  2.49126681E-01
  2.76963590E-01  2.80939201E-01  3.06394226E-01  3.75894439E-01  3.84348144E-01
  4.22692539E-01  4.33376012E-01  4.81515033E-01  5.10879586E-01  5.40542941E-01
  5.83225918E-01  7.36129643E-01  7.53692468E-01  7.62060768E-01  7.68916409E-01
  7.95953834E-01  8.44715930E-01  8.61274409E-01  8.97499887E-01  9.05917490E-01
  9.19175898E-01  9.28951518E-01  9.78004688E-01  1.01279682E+00  1.02610782E+00
  1.05892672E+00  1.06996900E+00  1.08034540E+00  1.10684702E+00  1.10977617E+00
  1.14455558E+00  1.15392314E+00  1.18526169E+00  1.19872241E+00  1.20818576E+00
  1.22165436E+00  1.24558021E+00  1.26526118E+00  1.28189794E+00  1.33107457E+00
  1.33443374E+00  1.36440961E+00  1.38456238E+00  1.39090747E+00  1.46536964E+00
  1.48588454E+00  1.56542923E+00  1.58947191E+00  1.62529265E+00  1.64702063E+00
  1.67514714E+00  1.75217001E+00  1.77309017E+00  1.84906228E+00  1.88622359E+00
  1.89793992E+00  1.92576305E+00  1.95567532E+00  1.98329577E+00  2.03360292E+00
  2.04589246E+00  2.05666950E+00  2.07061951E+00  2.08421389E+00  2.08854832E+00
  2.12131446E+00  2.13584142E+00  2.16358051E+00  2.16855483E+00  2.22383228E+00
  2.25898327E+00  2.27109620E+00  2.32234322E+00  2.36817243E+00  2.39993334E+00
  2.44506388E+00  2.49229443E+00  2.57690442E+00  2.63753903E+00  2.64571272E+00
  2.71180743E+00  2.74101350E+00  2.76208819E+00  2.81510785E+00  2.82523707E+00
  2.85700548E+00  2.93662899E+00  2.97473316E+00  3.00762104E+00  3.05197750E+00
  3.07133652E+00  3.11375497E+00  3.21138111E+00  3.24991583E+00  3.32063787E+00
  3.36841048E+00  3.42526905E+00  3.47159072E+00  4.15655516E+00  4.23147562E+00
  4.34110861E+00  4.48856157E+00  4.58629479E+00  4.63045196E+00  4.71194537E+00
  4.87328415E+00  5.03732668E+00
Alpha MO coefficients                      R   N=       21609
  2.78866686E-05  6.99310629E-05 -1.48401180E-06 -9.63945579E-06  1.81385573E-06
 -4.41880256E-04 -3.19811378E-05  1.73946576E-04  5.33687435E-06  4.11750294E-05
  2.25765360E-05  3.81578333E-05  1.48004922E-05  2.20180248E-06 -7.22371927E-06
  9.94638172E-01  2.12053778E-02  7.32007912E-04  9.30120338E-04 -5.27004140E-04
  3.92580193E-03 -4.81005616E-04 -4.04681874E-04  2.79203804E-04 -4.11198296E-03
 -4.09086748E-03 -3.97555374E-03  5.21320315E-05  6.26325103E-05  2.39668198E-05
 -5.49648164E-06 -2.06899780E-05 -3.17929858E-07 -1.06383910E-06 -9.66400324E-07
  1.35147715E-04  3.72503563E-05 -6.92516515E-06  2.08887956E-05 -6.55937925E-06
 -1.17117083E-05 -1.39762708E-05  1.31579129E-06  5.32386756E-06 -2.71197304E-06
 -2.78636043E-04  2.15712008E-05 -3.69289944E-06  3.56441237E-05 -1.16092192E-05
 -2.20021485E-04 -4.15271627E-05  1.23032479E-04 -1.38563410E-06  5.29149276E-05
 -6.95199950E-05 -4.26254686E-06 -1.01938712E-05 -2.85927273E-05  2.09889488E-05
  6.96213857E-06  3.00715569E-05 -9.64912180E-07  3.07589061E-06 -3.84628414E-06
 -1.91307735E-04 -8.92272600E-06 -1.13733271E-05  4.99496560E-05  2.09525714E-05
  1.99537979E-05  1.47136872E-05  3.48204351E-07  2.85150236E-06  8.47797719E-07
 -9.92859905E-06 -2.10418906E-05 -1.19820804E-05 -5.40058599E-06  8.77343761E-06
  7.66395739E-04  1.41404881E-04  3.38194569E-04 -2.19248014E-04 -3.77805145E-05
 -9.00673994E-06 -3.19144575E-05  4.33166121E-05  2.61866495E-06 -7.09100579E-06
 -3.68499210E-06 -2.27428631E-05  2.79198415E-05  7.18897849E-06 -4.57343136E-06
  2.13994630E-04 -2.32243272E-04 -2.05777155E-04  3.44488123E-05  1.44725294E-05
 -1.91468061E-05 -3.79380180E-06 -2.20056073E-05 -6.16284565E-06 -9.17301205E-06
 -3.27850535E-06  4.06693234E-04  7.66185825E-05 -2.99557891E-04  5.68376615E-05
 -2.35375321E-04  5.04049221E-04 -7.18530995E-05 -1.94462546E-04 -2.43449207E-05
 -1.21311375E-04 -5.39280071E-05  2.76035802E-05 -2.35791545E-05  7.78831778E-06
  2.72392574E-06  2.52985110E-05 -1.06142656E-05  6.43712096E-06  3.77614050E-06
 -1.53322999E-04 -7.11630988E-05  3.95183420E-05  2.07873113E-04 -1.33748422E-05
 -2.57441861E-07 -5.62491598E-07  9.67996373E-06 -4.86430828E-06 -2.64082226E-06
  3.92087332E-05 -1.32311241E-05  3.65854461E-05 -2.56743024E-04  4.21453784E-06
  3.64569313E-05  9.85391507E-06 -4.63510109E-05  4.43306786E-04 -2.70284151E-04
 -3.77340956E-06 -7.50646907E-06 -8.83751635E-07  3.58705691E-06  2.31361088E-06
  2.04290247E-07  3.97308495E-06 -2.13340268E-05 -1.54911889E-05  1.62922214E-06
 -1.54150472E-05  2.81721027E-06  9.56308319E-07  2.50734963E-06  3.14712516E-06
 -1.63373539E-06  1.48402890E-06  6.98327359E-07 -2.90805984E-06  2.82140934E-07
 -1.15662183E-06 -2.65517011E-06  1.18186793E-05 -6.35748450E-06  7.51425320E-06
  9.07643952E-06 -4.41315080E-07 -8.27923552E-07 -1.82991150E-06 -1.78118584E-06
 -1.67390465E-06  1.02767421E-06  9.94638221E-01  2.11644670E-02 -2.39969541E-04
 -1.36516849E-05  1.25791292E-03  4.11392502E-03  2.73016391E-04 -1.93935166E-05
 -5.86262145E-04 -4.15128540E-03 -3.95862336E-03 -4.08498989E-03  4.12363427E-05
 -3.36440117E-06  6.18397648E-06 -3.11745919E-07 -9.97662452E-07  9.98915949E-07
  1.13114939E-06  7.77503304E-07  6.11369586E-06 -1.30247958E-06 -1.64953209E-06
 -8.43319612E-07 -8.09946276E-07 -2.09621350E-06 -5.45186279E-07 -1.79366646E-07
  1.16587015E-06 -3.11857053E-07 -2.63378618E-04  5.76348448E-05  2.22103966E-05
 -7.59667028E-06  3.52767783E-05 -4.88678498E-04  3.63145429E-05 -1.36662046E-06
  1.35307038E-04  5.90294831E-05  1.25957376E-05 -2.71398217E-05 -6.09704018E-06
 -4.93883743E-05  8.96995810E-06  3.60783753E-06  2.32053140E-05  6.71956964E-06
 -3.48499528E-06  7.71849454E-06 -2.18836190E-04  9.53456816E-05  1.01008068E-04
  6.66637607E-05 -2.66735636E-06  7.91883254E-06 -1.98438424E-06 -5.93932149E-06
 -4.16278829E-06 -9.59303803E-07 -8.51018684E-06  4.04131181E-07 -1.06812934E-05
 -5.63450726E-06  4.08704743E-06  6.08986232E-04  5.91228455E-05  9.33405973E-05
  8.49390427E-05 -7.32089135E-05 -1.53877597E-05 -1.61498285E-05  2.07326061E-05
 -1.11774312E-05  1.68627492E-05  1.71081328E-06  6.06969792E-06 -4.25160229E-06
  4.15604077E-07  6.78728486E-07 -2.42806746E-05  2.34344420E-06 -7.86406360E-06
 -9.94170765E-06  3.84587392E-06  1.65028271E-06  3.21455501E-06  9.29121087E-07
 -1.64090970E-06 -2.05681519E-06 -3.11766209E-07  4.00198317E-04 -2.01236096E-04
  4.25955427E-05 -2.37796786E-04 -1.16919608E-04 -3.29671163E-04  1.88470711E-05
  5.21217296E-04 -4.43702792E-05 -5.12702267E-05 -4.81452531E-05 -4.00598919E-07
 -5.90404558E-05  1.13246536E-05  1.72127733E-05 -1.15960231E-05 -1.21981287E-05
 -1.92983615E-05  3.03345234E-05 -1.71229134E-04 -2.24553472E-06  3.16785202E-06
  7.70732494E-07  2.05947297E-06  4.28953085E-04 -2.52410109E-04 -2.79140165E-04
 -6.89015158E-07 -5.79579502E-06 -1.15693785E-05  6.52573785E-06 -5.45045234E-06
  4.90961276E-05  1.25102511E-04 -4.06082060E-05 -1.82737446E-06 -2.61786701E-05