opt=Tight                                                               
Freq      RMP2-FC                                                     6-31G(d)            
Number of atoms                            I               14
Info1-9                                    I   N=           9
          23          23        1002           0           0         100
           6           2           1
Charge                                     I               -1
Multiplicity                               I                1
Number of electrons                        I               64
Number of alpha electrons                  I               32
Number of beta electrons                   I               32
Number of basis functions                  I              145
Number of independent functions            I              145
Number of point charges in /Mol/           I                0
Number of translation vectors              I                0
Atomic numbers                             I   N=          14
           8           8           6           6           6           6
           6           6           6           1           1           1
           1           1
Nuclear charges                            R   N=          14
  8.00000000E+00  8.00000000E+00  6.00000000E+00  6.00000000E+00  6.00000000E+00
  6.00000000E+00  6.00000000E+00  6.00000000E+00  6.00000000E+00  1.00000000E+00
  1.00000000E+00  1.00000000E+00  1.00000000E+00  1.00000000E+00
Current cartesian coordinates              R   N=          42
 -3.57742562E-17  2.14743153E+00 -4.48397278E+00 -2.16185498E-16 -2.14743153E+00
 -4.48397278E+00 -8.62859251E-20 -5.41877070E-18 -5.29615259E-01  3.24735887E-03
 -2.27737100E+00  8.21341437E-01 -3.24735887E-03  2.27737100E+00  8.21341437E-01
  3.32757549E-03 -2.28269382E+00  3.46050110E+00 -3.32757549E-03  2.28269382E+00
  3.46050110E+00  7.80735647E-19  4.90303308E-17  4.79208528E+00 -5.58255197E-19
 -3.50585208E-17 -3.42652026E+00  5.74809689E-03 -4.03720919E+00 -2.35735830E-01
 -5.74809689E-03  4.03720919E+00 -2.35735830E-01  5.95790455E-03 -4.06646414E+00
  4.48459820E+00 -5.95790455E-03  4.06646414E+00  4.48459820E+00  1.11569418E-18
  7.00657831E-17  6.84803065E+00
Force Field                                I                0
Int Atom Types                             I   N=          14
           0           0           0           0           0           0
           0           0           0           0           0           0
           0           0
MM charges                                 R   N=          14
  0.00000000E+00  0.00000000E+00  0.00000000E+00  0.00000000E+00  0.00000000E+00
  0.00000000E+00  0.00000000E+00  0.00000000E+00  0.00000000E+00  0.00000000E+00
  0.00000000E+00  0.00000000E+00  0.00000000E+00  0.00000000E+00
Integer atomic weights                     I   N=          14
          16          16          12          12          12          12
          12          12          12           1           1           1
           1           1
Real atomic weights                        R   N=          14
  1.59949146E+01  1.59949146E+01  1.20000000E+01  1.20000000E+01  1.20000000E+01
  1.20000000E+01  1.20000000E+01  1.20000000E+01  1.20000000E+01  1.00782504E+00
  1.00782504E+00  1.00782504E+00  1.00782504E+00  1.00782504E+00
Atom fragment info                         I   N=          14
           0           0           0           0           0           0
           0           0           0           0           0           0
           0           0
Atom residue num                           I   N=          14
           0           0           0           0           0           0
           0           0           0           0           0           0
           0           0
Nuclear spins                              I   N=          14
           0           0           0           0           0           0
           0           0           0           1           1           1
           1           1
Nuclear ZEff                               R   N=          14
 -5.60000000E+00 -5.60000000E+00 -3.60000000E+00 -3.60000000E+00 -3.60000000E+00
 -3.60000000E+00 -3.60000000E+00 -3.60000000E+00 -3.60000000E+00 -1.00000000E+00
 -1.00000000E+00 -1.00000000E+00 -1.00000000E+00 -1.00000000E+00
Nuclear QMom                               R   N=          14
  0.00000000E+00  0.00000000E+00  0.00000000E+00  0.00000000E+00  0.00000000E+00
  0.00000000E+00  0.00000000E+00  0.00000000E+00  0.00000000E+00  0.00000000E+00
  0.00000000E+00  0.00000000E+00  0.00000000E+00  0.00000000E+00
Nuclear GFac                               R   N=          14
  0.00000000E+00  0.00000000E+00  0.00000000E+00  0.00000000E+00  0.00000000E+00
  0.00000000E+00  0.00000000E+00  0.00000000E+00  0.00000000E+00  2.79284600E+00
  2.79284600E+00  2.79284600E+00  2.79284600E+00  2.79284600E+00
MicOpt                                     I   N=          14
          -1          -1          -1          -1          -1          -1
          -1          -1          -1          -1          -1          -1
          -1          -1
Number of contracted shells                I               46
Number of primitive shells                 I              119
Pure/Cartesian d shells                    I                1
Pure/Cartesian f shells                    I                0
Highest angular momentum                   I                2
Largest degree of contraction              I                6
Shell types                                I   N=          46
           0          -1          -1           2           0          -1
          -1           2           0          -1          -1           2
           0          -1          -1           2           0          -1
          -1           2           0          -1          -1           2
           0          -1          -1           2           0          -1
          -1           2           0          -1          -1           2
           0           0           0           0           0           0
           0           0           0           0
Number of primitives per shell             I   N=          46
           6           3           1           1           6           3
           1           1           6           3           1           1
           6           3           1           1           6           3
           1           1           6           3           1           1
           6           3           1           1           6           3
           1           1           6           3           1           1
           3           1           3           1           3           1
           3           1           3           1
Shell to atom map                          I   N=          46
           1           1           1           1           2           2
           2           2           3           3           3           3
           4           4           4           4           5           5
           5           5           6           6           6           6
           7           7           7           7           8           8
           8           8           9           9           9           9
          10          10          11          11          12          12
          13          13          14          14
Primitive exponents                        R   N=         119
  5.48467166E+03  8.25234946E+02  1.88046958E+02  5.29645000E+01  1.68975704E+01
  5.79963534E+00  1.55396162E+01  3.59993359E+00  1.01376175E+00  2.70005823E-01
  8.00000000E-01  5.48467166E+03  8.25234946E+02  1.88046958E+02  5.29645000E+01
  1.68975704E+01  5.79963534E+00  1.55396162E+01  3.59993359E+00  1.01376175E+00
  2.70005823E-01  8.00000000E-01  3.04752488E+03  4.57369518E+02  1.03948685E+02
  2.92101553E+01  9.28666296E+00  3.16392696E+00  7.86827235E+00  1.88128854E+00
  5.44249258E-01  1.68714478E-01  8.00000000E-01  3.04752488E+03  4.57369518E+02
  1.03948685E+02  2.92101553E+01  9.28666296E+00  3.16392696E+00  7.86827235E+00
  1.88128854E+00  5.44249258E-01  1.68714478E-01  8.00000000E-01  3.04752488E+03
  4.57369518E+02  1.03948685E+02  2.92101553E+01  9.28666296E+00  3.16392696E+00
  7.86827235E+00  1.88128854E+00  5.44249258E-01  1.68714478E-01  8.00000000E-01
  3.04752488E+03  4.57369518E+02  1.03948685E+02  2.92101553E+01  9.28666296E+00
  3.16392696E+00  7.86827235E+00  1.88128854E+00  5.44249258E-01  1.68714478E-01
  8.00000000E-01  3.04752488E+03  4.57369518E+02  1.03948685E+02  2.92101553E+01
  9.28666296E+00  3.16392696E+00  7.86827235E+00  1.88128854E+00  5.44249258E-01
  1.68714478E-01  8.00000000E-01  3.04752488E+03  4.57369518E+02  1.03948685E+02
  2.92101553E+01  9.28666296E+00  3.16392696E+00  7.86827235E+00  1.88128854E+00
  5.44249258E-01  1.68714478E-01  8.00000000E-01  3.04752488E+03  4.57369518E+02
  1.03948685E+02  2.92101553E+01  9.28666296E+00  3.16392696E+00  7.86827235E+00
  1.88128854E+00  5.44249258E-01  1.68714478E-01  8.00000000E-01  1.87311370E+01
  2.82539436E+00  6.40121692E-01  1.61277759E-01  1.87311370E+01  2.82539436E+00
  6.40121692E-01  1.61277759E-01  1.87311370E+01  2.82539436E+00  6.40121692E-01
  1.61277759E-01  1.87311370E+01  2.82539436E+00  6.40121692E-01  1.61277759E-01
  1.87311370E+01  2.82539436E+00  6.40121692E-01  1.61277759E-01
Contraction coefficients                   R   N=         119
  1.83107443E-03  1.39501722E-02  6.84450781E-02  2.32714336E-01  4.70192898E-01
  3.58520853E-01 -1.10777550E-01 -1.48026263E-01  1.13076702E+00  1.00000000E+00
  1.00000000E+00  1.83107443E-03  1.39501722E-02  6.84450781E-02  2.32714336E-01
  4.70192898E-01  3.58520853E-01 -1.10777550E-01 -1.48026263E-01  1.13076702E+00
  1.00000000E+00  1.00000000E+00  1.83473713E-03  1.40373228E-02  6.88426223E-02
  2.32184443E-01  4.67941348E-01  3.62311985E-01 -1.19332420E-01 -1.60854152E-01
  1.14345644E+00  1.00000000E+00  1.00000000E+00  1.83473713E-03  1.40373228E-02
  6.88426223E-02  2.32184443E-01  4.67941348E-01  3.62311985E-01 -1.19332420E-01
 -1.60854152E-01  1.14345644E+00  1.00000000E+00  1.00000000E+00  1.83473713E-03
  1.40373228E-02  6.88426223E-02  2.32184443E-01  4.67941348E-01  3.62311985E-01
 -1.19332420E-01 -1.60854152E-01  1.14345644E+00  1.00000000E+00  1.00000000E+00
  1.83473713E-03  1.40373228E-02  6.88426223E-02  2.32184443E-01  4.67941348E-01
  3.62311985E-01 -1.19332420E-01 -1.60854152E-01  1.14345644E+00  1.00000000E+00
  1.00000000E+00  1.83473713E-03  1.40373228E-02  6.88426223E-02  2.32184443E-01
  4.67941348E-01  3.62311985E-01 -1.19332420E-01 -1.60854152E-01  1.14345644E+00
  1.00000000E+00  1.00000000E+00  1.83473713E-03  1.40373228E-02  6.88426223E-02
  2.32184443E-01  4.67941348E-01  3.62311985E-01 -1.19332420E-01 -1.60854152E-01
  1.14345644E+00  1.00000000E+00  1.00000000E+00  1.83473713E-03  1.40373228E-02
  6.88426223E-02  2.32184443E-01  4.67941348E-01  3.62311985E-01 -1.19332420E-01
 -1.60854152E-01  1.14345644E+00  1.00000000E+00  1.00000000E+00  3.34946043E-02
  2.34726953E-01  8.13757326E-01  1.00000000E+00  3.34946043E-02  2.34726953E-01
  8.13757326E-01  1.00000000E+00  3.34946043E-02  2.34726953E-01  8.13757326E-01
  1.00000000E+00  3.34946043E-02  2.34726953E-01  8.13757326E-01  1.00000000E+00
  3.34946043E-02  2.34726953E-01  8.13757326E-01  1.00000000E+00
P(S=P) Contraction coefficients            R   N=         119
  0.00000000E+00  0.00000000E+00  0.00000000E+00  0.00000000E+00  0.00000000E+00
  0.00000000E+00  7.08742682E-02  3.39752839E-01  7.27158577E-01  1.00000000E+00
  0.00000000E+00  0.00000000E+00  0.00000000E+00  0.00000000E+00  0.00000000E+00
  0.00000000E+00  0.00000000E+00  7.08742682E-02  3.39752839E-01  7.27158577E-01
  1.00000000E+00  0.00000000E+00  0.00000000E+00  0.00000000E+00  0.00000000E+00
  0.00000000E+00  0.00000000E+00  0.00000000E+00  6.89990666E-02  3.16423961E-01
  7.44308291E-01  1.00000000E+00  0.00000000E+00  0.00000000E+00  0.00000000E+00
  0.00000000E+00  0.00000000E+00  0.00000000E+00  0.00000000E+00  6.89990666E-02
  3.16423961E-01  7.44308291E-01  1.00000000E+00  0.00000000E+00  0.00000000E+00
  0.00000000E+00  0.00000000E+00  0.00000000E+00  0.00000000E+00  0.00000000E+00
  6.89990666E-02  3.16423961E-01  7.44308291E-01  1.00000000E+00  0.00000000E+00
  0.00000000E+00  0.00000000E+00  0.00000000E+00  0.00000000E+00  0.00000000E+00
  0.00000000E+00  6.89990666E-02  3.16423961E-01  7.44308291E-01  1.00000000E+00
  0.00000000E+00  0.00000000E+00  0.00000000E+00  0.00000000E+00  0.00000000E+00
  0.00000000E+00  0.00000000E+00  6.89990666E-02  3.16423961E-01  7.44308291E-01
  1.00000000E+00  0.00000000E+00  0.00000000E+00  0.00000000E+00  0.00000000E+00
  0.00000000E+00  0.00000000E+00  0.00000000E+00  6.89990666E-02  3.16423961E-01
  7.44308291E-01  1.00000000E+00  0.00000000E+00  0.00000000E+00  0.00000000E+00
  0.00000000E+00  0.00000000E+00  0.00000000E+00  0.00000000E+00  6.89990666E-02
  3.16423961E-01  7.44308291E-01  1.00000000E+00  0.00000000E+00  0.00000000E+00
  0.00000000E+00  0.00000000E+00  0.00000000E+00  0.00000000E+00  0.00000000E+00
  0.00000000E+00  0.00000000E+00  0.00000000E+00  0.00000000E+00  0.00000000E+00
  0.00000000E+00  0.00000000E+00  0.00000000E+00  0.00000000E+00  0.00000000E+00
  0.00000000E+00  0.00000000E+00  0.00000000E+00  0.00000000E+00
Coordinates of each shell                  R   N=         138
 -2.53659154E-17  2.14743153E+00 -4.48397278E+00 -2.53659154E-17  2.14743153E+00
 -4.48397278E+00 -2.53659154E-17  2.14743153E+00 -4.48397278E+00 -2.53659154E-17
  2.14743153E+00 -4.48397278E+00 -2.26593839E-16 -2.14743153E+00 -4.48397278E+00
 -2.26593839E-16 -2.14743153E+00 -4.48397278E+00 -2.26593839E-16 -2.14743153E+00
 -4.48397278E+00 -2.26593839E-16 -2.14743153E+00 -4.48397278E+00 -5.75239501E-20
 -3.61251380E-18 -5.29615259E-01 -5.75239501E-20 -3.61251380E-18 -5.29615259E-01
 -5.75239501E-20 -3.61251380E-18 -5.29615259E-01 -5.75239501E-20 -3.61251380E-18
 -5.29615259E-01  3.24735887E-03 -2.27737100E+00  8.21341437E-01  3.24735887E-03
 -2.27737100E+00  8.21341437E-01  3.24735887E-03 -2.27737100E+00  8.21341437E-01
  3.24735887E-03 -2.27737100E+00  8.21341437E-01 -3.24735887E-03  2.27737100E+00
  8.21341437E-01 -3.24735887E-03  2.27737100E+00  8.21341437E-01 -3.24735887E-03
  2.27737100E+00  8.21341437E-01 -3.24735887E-03  2.27737100E+00  8.21341437E-01
  3.32757549E-03 -2.28269382E+00  3.46050110E+00  3.32757549E-03 -2.28269382E+00
  3.46050110E+00  3.32757549E-03 -2.28269382E+00  3.46050110E+00  3.32757549E-03
 -2.28269382E+00  3.46050110E+00 -3.32757549E-03  2.28269382E+00  3.46050110E+00
 -3.32757549E-03  2.28269382E+00  3.46050110E+00 -3.32757549E-03  2.28269382E+00
  3.46050110E+00 -3.32757549E-03  2.28269382E+00  3.46050110E+00  5.20490431E-19
  3.26868872E-17  4.79208528E+00  5.20490431E-19  3.26868872E-17  4.79208528E+00
  5.20490431E-19  3.26868872E-17  4.79208528E+00  5.20490431E-19  3.26868872E-17
  4.79208528E+00 -3.72170131E-19 -2.33723472E-17 -3.42652026E+00 -3.72170131E-19
 -2.33723472E-17 -3.42652026E+00 -3.72170131E-19 -2.33723472E-17 -3.42652026E+00
 -3.72170131E-19 -2.33723472E-17 -3.42652026E+00  5.74809689E-03 -4.03720919E+00
 -2.35735830E-01  5.74809689E-03 -4.03720919E+00 -2.35735830E-01 -5.74809689E-03
  4.03720919E+00 -2.35735830E-01 -5.74809689E-03  4.03720919E+00 -2.35735830E-01
  5.95790455E-03 -4.06646414E+00  4.48459820E+00  5.95790455E-03 -4.06646414E+00
  4.48459820E+00 -5.95790455E-03  4.06646414E+00  4.48459820E+00 -5.95790455E-03
  4.06646414E+00  4.48459820E+00  7.43796117E-19  4.67105221E-17  6.84803065E+00
  7.43796117E-19  4.67105221E-17  6.84803065E+00
Constraint Structure                       R   N=          42
 -2.53659154E-17  2.14743153E+00 -4.48397278E+00 -2.26593839E-16 -2.14743153E+00
 -4.48397278E+00 -5.75239501E-20 -3.61251380E-18 -5.29615259E-01  3.24735887E-03
 -2.27737100E+00  8.21341437E-01 -3.24735887E-03  2.27737100E+00  8.21341437E-01
  3.32757549E-03 -2.28269382E+00  3.46050110E+00 -3.32757549E-03  2.28269382E+00
  3.46050110E+00  5.20490431E-19  3.26868872E-17  4.79208528E+00 -3.72170131E-19
 -2.33723472E-17 -3.42652026E+00  5.74809689E-03 -4.03720919E+00 -2.35735830E-01
 -5.74809689E-03  4.03720919E+00 -2.35735830E-01  5.95790455E-03 -4.06646414E+00
  4.48459820E+00 -5.95790455E-03  4.06646414E+00  4.48459820E+00  7.43796117E-19
  4.67105221E-17  6.84803065E+00
Num ILSW                                   I              100
ILSW                                       I   N=         100
           0           1           0           0           2           0
           0           0           0           0           0          -1
           0           0           0           0           0           0
           0           0           0           0           1           0
           1           0           0           0           0           0
           0           0      100000           0          -1           0
           0           0           0           0           0           0
           0           0           0           1           1           0
           0           0           1           0           0           0
           0           0           4          40           0           0
           0           0           0           0           0           0
           0           0           0           0           0           0
           0           0           0           0           0           0
           0           0           0           0           0           0
           0           0           0           0           0           0
           0           0           0           0           0           0
           0           0           0           0
Num RLSW                                   I               40
RLSW                                       R   N=          40
  1.00000000E+00  1.00000000E+00  1.00000000E+00  1.00000000E+00  1.00000000E+00
  0.00000000E+00  0.00000000E+00  1.00000000E+00  0.00000000E+00  0.00000000E+00
  0.00000000E+00  0.00000000E+00  1.00000000E+00  0.00000000E+00  0.00000000E+00
  0.00000000E+00  0.00000000E+00  1.00000000E+00  0.00000000E+00  0.00000000E+00
  0.00000000E+00  0.00000000E+00  1.00000000E+00  0.00000000E+00  0.00000000E+00
  0.00000000E+00  0.00000000E+00  1.00000000E+00  0.00000000E+00  0.00000000E+00
  0.00000000E+00  0.00000000E+00  0.00000000E+00  0.00000000E+00  0.00000000E+00
  0.00000000E+00  0.00000000E+00  0.00000000E+00  1.00000000E+00  1.00000000E+00
MxBond                                     I                3
NBond                                      I   N=          14
           1           1           3           3           3           3
           3           3           3           1           1           1
           1           1
IBond                                      I   N=          42
           9           0           0           9           0           0
           4           5           9           3           6          10
           3           7          11           4           8          12
           5           8          13           6           7          14
           1           2           3           4           0           0
           5           0           0           6           0           0
           7           0           0           8           0           0
RBond                                      R   N=          42
  2.00000000E+00  0.00000000E+00  0.00000000E+00  2.00000000E+00  0.00000000E+00
  0.00000000E+00  1.50000000E+00  1.50000000E+00  1.00000000E+00  1.50000000E+00
  1.50000000E+00  1.00000000E+00  1.50000000E+00  1.50000000E+00  1.00000000E+00
  1.50000000E+00  1.50000000E+00  1.00000000E+00  1.50000000E+00  1.50000000E+00
  1.00000000E+00  1.50000000E+00  1.50000000E+00  1.00000000E+00  2.00000000E+00
  2.00000000E+00  1.00000000E+00  1.00000000E+00  0.00000000E+00  0.00000000E+00
  1.00000000E+00  0.00000000E+00  0.00000000E+00  1.00000000E+00  0.00000000E+00
  0.00000000E+00  1.00000000E+00  0.00000000E+00  0.00000000E+00  1.00000000E+00
  0.00000000E+00  0.00000000E+00
Virial Ratio                               R      2.002590705984787E+00
SCF Energy                                 R     -4.178494739170490E+02
MP2 Energy                                 R     -4.190879543712160E+02
Total Energy                               R     -4.190879543712160E+02
Post-SCF wavefunction norm                 R      1.686543690649223E+00
RMS Force                                  R      9.447596476444227E-08
RMS Density                                R      1.301187406749720E-09
External E-field                           R   N=          35
  0.00000000E+00  0.00000000E+00  0.00000000E+00  0.00000000E+00  0.00000000E+00
  0.00000000E+00  0.00000000E+00  0.00000000E+00  0.00000000E+00  0.00000000E+00
  0.00000000E+00  0.00000000E+00  0.00000000E+00  0.00000000E+00  0.00000000E+00
  0.00000000E+00  0.00000000E+00  0.00000000E+00  0.00000000E+00  0.00000000E+00
  0.00000000E+00  0.00000000E+00  0.00000000E+00  0.00000000E+00  0.00000000E+00
  0.00000000E+00  0.00000000E+00  0.00000000E+00  0.00000000E+00  0.00000000E+00
  0.00000000E+00  0.00000000E+00  0.00000000E+00  0.00000000E+00  0.00000000E+00
IOpCl                                      I                0
IROHF                                      I                0
Alpha Orbital Energies                     R   N=         145
 -2.04679876E+01 -2.04679551E+01 -1.13152582E+01 -1.12336939E+01 -1.12293941E+01
 -1.12292316E+01 -1.12261342E+01 -1.12260196E+01 -1.12205891E+01 -1.33397145E+00
 -1.23261711E+00 -1.13734782E+00 -1.00670496E+00 -1.00175972E+00 -8.28885146E-01
 -8.11122801E-01 -7.22676469E-01 -6.72487415E-01 -6.12686048E-01 -6.11517848E-01
 -5.92800441E-01 -5.73761080E-01 -5.57435217E-01 -5.37943839E-01 -5.00452944E-01
 -4.81826362E-01 -4.76045044E-01 -3.78579066E-01 -3.76344502E-01 -3.66037933E-01
 -3.26630913E-01 -3.23282430E-01  1.27424041E-01  1.49989999E-01  2.51690700E-01
  2.87579549E-01  3.04233088E-01  3.21231214E-01  3.40814241E-01  3.55457009E-01
  4.04592416E-01  4.53265847E-01  4.81770725E-01  4.94673203E-01  5.12141457E-01
  5.17048197E-01  5.71941558E-01  5.97142055E-01  7.47688179E-01  7.50916516E-01
  7.58586641E-01  7.79580449E-01  7.96187552E-01  8.05275330E-01  8.23006486E-01
  8.31147889E-01  8.43414770E-01  8.43561518E-01  8.59851792E-01  8.84854494E-01
  8.87825168E-01  9.12597932E-01  9.59412051E-01  9.69248207E-01  1.01170928E+00
  1.03226641E+00  1.09454306E+00  1.11214247E+00  1.11939116E+00  1.12240938E+00
  1.12803970E+00  1.16077545E+00  1.20377640E+00  1.20948872E+00  1.22425795E+00
  1.24649601E+00  1.30850591E+00  1.30878969E+00  1.32621817E+00  1.36508377E+00
  1.40323851E+00  1.40462590E+00  1.45733022E+00  1.50009127E+00  1.52061957E+00
  1.56641797E+00  1.61135471E+00  1.61617766E+00  1.71030462E+00  1.71308098E+00
  1.71607836E+00  1.74531553E+00  1.77726052E+00  1.78724826E+00  1.80459762E+00
  1.80750461E+00  2.00683731E+00  2.06370936E+00  2.07820504E+00  2.08892211E+00
  2.11644631E+00  2.16816172E+00  2.18508099E+00  2.21967574E+00  2.24558961E+00
  2.27637655E+00  2.29788508E+00  2.30510658E+00  2.34273162E+00  2.38403517E+00
  2.42004295E+00  2.42769241E+00  2.46409794E+00  2.49099538E+00  2.49149270E+00
  2.50282470E+00  2.62561650E+00  2.62981583E+00  2.64366106E+00  2.67064079E+00
  2.87020839E+00  2.87245047E+00  2.93178966E+00  2.96221334E+00  2.97733011E+00
  3.04052429E+00  3.10675647E+00  3.11466719E+00  3.11866133E+00  3.14814796E+00
  3.24546494E+00  3.31002973E+00  3.35230713E+00  3.52058013E+00  3.56085618E+00
  3.81354248E+00  4.33714502E+00  4.51550292E+00  4.54546595E+00  4.55113616E+00
  4.72791891E+00  4.74868700E+00  4.88075193E+00  4.88116381E+00  5.14362819E+00
Alpha MO coefficients                      R   N=       21025
  7.03355288E-01  1.48798547E-02 -2.38669554E-08 -8.23464359E-04  3.83513050E-04
  2.80799966E-03 -1.46591321E-08  1.79347257E-04 -1.16726383E-04 -2.81145281E-03
 -2.65279169E-03 -2.76840032E-03  1.38598923E-09  1.64398193E-09  3.23311451E-05
 -7.03355288E-01 -1.48798547E-02 -2.38669554E-08 -8.23464359E-04 -3.83513050E-04
 -2.80799966E-03 -1.46591321E-08  1.79347257E-04  1.16726383E-04  2.81145281E-03
  2.65279169E-03  2.76840032E-03 -1.38598923E-09  1.64398193E-09  3.23311451E-05
  0.00000000E+00  0.00000000E+00 -1.62193994E-08 -1.30921956E-05  0.00000000E+00
  0.00000000E+00 -2.78435905E-07  2.04182753E-04  0.00000000E+00  0.00000000E+00
  0.00000000E+00  0.00000000E+00  0.00000000E+00 -3.32542142E-08  9.34585858E-05
  2.61335531E-07 -4.66468582E-06  3.07125794E-09  9.48078297E-07 -3.26310004E-06
  5.51924239E-06 -3.31618588E-07  2.02340449E-04 -1.06086802E-04 -1.03203298E-06
  3.17720475E-05 -1.92813629E-06 -6.11480858E-08  2.07846653E-08 -1.07035821E-05
 -2.61335531E-07  4.66468582E-06  3.07125794E-09  9.48078297E-07  3.26310004E-06
 -5.51924239E-06 -3.31618588E-07  2.02340449E-04  1.06086802E-04  1.03203298E-06
 -3.17720475E-05  1.92813629E-06  6.11480858E-08  2.07846653E-08 -1.07035821E-05
 -6.55449933E-08 -7.45683517E-07 -8.36481163E-09  2.43098977E-06 -1.17926435E-06
  3.35997327E-05  1.76942333E-07 -1.05801350E-04 -7.46618242E-05 -3.38987780E-07
 -3.26444557E-06  3.53996927E-06  7.03310111E-09 -4.78348261E-09  2.43713148E-06
  6.55449933E-08  7.45683517E-07 -8.36481163E-09  2.43098977E-06  1.17926435E-06
 -3.35997327E-05  1.76942333E-07 -1.05801350E-04  7.46618242E-05  3.38987780E-07
  3.26444557E-06 -3.53996927E-06 -7.03310111E-09 -4.78348261E-09  2.43713148E-06
  0.00000000E+00  0.00000000E+00  5.01777459E-09 -2.23666924E-06  0.00000000E+00
  0.00000000E+00  1.10010132E-07 -8.43252671E-05  0.00000000E+00  0.00000000E+00
  0.00000000E+00  0.00000000E+00  0.00000000E+00 -3.08497402E-09  2.72951130E-06
  0.00000000E+00  0.00000000E+00  1.25351583E-08  2.00155499E-04  0.00000000E+00
  0.00000000E+00  1.22291676E-08 -2.41379920E-04  0.00000000E+00  0.00000000E+00
  0.00000000E+00  0.00000000E+00  0.00000000E+00 -3.53634940E-09  2.99873358E-04
 -1.06369913E-05  1.41496985E-04  1.06369913E-05 -1.41496985E-04 -5.64635285E-06
 -2.87553008E-05  5.64635285E-06  2.87553008E-05  0.00000000E+00  0.00000000E+00
  7.03337315E-01  1.47940216E-02 -1.04427202E-08 -7.99206802E-04  4.16696085E-04
  3.28176747E-03 -4.97887993E-08 -3.30245214E-06  3.83709265E-05 -2.92648439E-03
 -2.76021925E-03 -2.72025398E-03  1.16801068E-09 -9.59747919E-09 -1.10405941E-04
  7.03337315E-01  1.47940216E-02  1.04427202E-08  7.99206802E-04  4.16696085E-04
  3.28176747E-03  4.97887993E-08  3.30245214E-06  3.83709265E-05 -2.92648439E-03
 -2.76021925E-03 -2.72025398E-03  1.16801068E-09  9.59747919E-09  1.10405941E-04
 -5.41493441E-06  2.37912430E-06  0.00000000E+00  0.00000000E+00  5.26361086E-05
  3.02602671E-04  0.00000000E+00  0.00000000E+00  6.45102099E-05 -3.34230079E-05
 -6.96541060E-06 -6.35084685E-05 -4.13097098E-08  0.00000000E+00  0.00000000E+00
 -3.33056823E-07  3.05645535E-06 -5.10802862E-08  1.28285619E-05 -1.51838805E-05
  1.58664431E-04  3.29996477E-07 -1.51465459E-04  2.78236930E-04  2.54491010E-06
 -9.24376389E-06  7.25403422E-07  2.28826280E-08 -2.22764188E-08  7.82329690E-06
 -3.33056823E-07  3.05645535E-06  5.10802862E-08 -1.28285619E-05 -1.51838805E-05
  1.58664431E-04 -3.29996477E-07  1.51465459E-04  2.78236930E-04  2.54491010E-06
 -9.24376389E-06  7.25403422E-07  2.28826280E-08  2.22764188E-08 -7.82329690E-06
  4.46893542E-06  2.45338591E-05  1.51467713E-08 -3.40392379E-06  9.05539142E-07
 -3.50598462E-04 -4.13702954E-08 -3.23621449E-06  1.74288442E-04  9.63160305E-06
  1.89262864E-06 -4.61414961E-06  1.12591984E-08  7.23668831E-09 -1.39010275E-06
  4.46893542E-06  2.45338591E-05 -1.51467713E-08  3.40392379E-06  9.05539142E-07
 -3.50598462E-04  4.13702954E-08  3.23621449E-06  1.74288442E-04  9.63160305E-06
  1.89262864E-06 -4.61414961E-06  1.12591984E-08 -7.23668831E-09  1.39010275E-06
 -1.84399318E-06 -9.47441494E-06  0.00000000E+00  0.00000000E+00  4.60278531E-06
  5.48939726E-05  0.00000000E+00  0.00000000E+00 -1.27998952E-04 -3.07626955E-06
 -1.02623105E-06 -4.97905185E-07 -9.15585533E-09  0.00000000E+00  0.00000000E+00
 -1.01515015E-05  7.19325578E-04  0.00000000E+00  0.00000000E+00 -7.30692010E-05
 -6.80268518E-04  0.00000000E+00  0.00000000E+00  3.60053993E-04 -8.12371451E-05
 -7.48305869E-04 -1.87684271E-04 -9.15381749E-10  0.00000000E+00  0.00000000E+00
  3.01206907E-05 -1.26319330E-04  3.01206907E-05 -1.26319330E-04  6.95453395E-06
 -5.58061513E-06  6.95453395E-06 -5.58061513E-06  1.14959438E-05  3.87340085E-05
 -1.80307381E-04  5.99143789E-04 -4.99249854E-08 -2.06466262E-04  2.50400202E-05
 -2.40280521E-03  1.58602365E-07  1.81331651E-03 -1.51307000E-04  4.71554613E-04
 -1.98710394E-04  1.81524685E-04 -4.80280329E-10  4.50319635E-08  1.95635365E-04
 -1.80307381E-04  5.99143789E-04  4.99249854E-08  2.06466262E-04  2.50400202E-05
 -2.40280521E-03 -1.58602365E-07 -1.81331651E-03 -1.51307000E-04  4.71554613E-04
 -1.98710394E-04  1.81524685E-04 -4.80280329E-10 -4.50319635E-08 -1.95635365E-04
  2.83748413E-03  1.71153885E-04  0.00000000E+00  0.00000000E+00  5.26753553E-05
  4.38866901E-03  0.00000000E+00  0.00000000E+00 -1.25044854E-03 -1.96657752E-04
 -2.76277362E-04 -6.14120447E-04  1.13501130E-07  0.00000000E+00  0.00000000E+00
 -3.62515353E-05 -6.18848336E-05 -5.29506082E-08  1.39155941E-05  1.46550287E-04
 -1.67460703E-03  7.72293119E-07 -5.01085463E-04 -1.67144236E-03 -6.09896334E-05
  1.09197082E-04 -6.19073928E-05 -2.83481384E-07  3.47090386E-08 -2.06411586E-05
 -3.62515353E-05 -6.18848336E-05  5.29506082E-08 -1.39155941E-05  1.46550287E-04
 -1.67460703E-03 -7.72293119E-07  5.01085463E-04 -1.67144236E-03 -6.09896334E-05
  1.09197082E-04 -6.19073928E-05 -2.83481384E-07 -3.47090386E-08  2.06411586E-05
 -2.95750265E-05 -1.97151648E-04  1.35736595E-08 -4.63088309E-06 -1.61042003E-05
  2.65748434E-03 -1.37546949E-06  8.85688748E-04 -1.21550293E-03 -7.21871082E-05
 -1.23573207E-05  4.90951042E-05 -1.03273328E-07  2.16238420E-08 -6.47551796E-06