196_2-Methyl-1-nitropropane Gaussian SP Calculation on node58.bme.utexas
Freq      RMP2-FC                                                     6-31G(d)            
Number of atoms                            I               16
Info1-9                                    I   N=           9
          27          26        1002           0           0         100
           6           2           1
Charge                                     I                0
Multiplicity                               I                1
Number of electrons                        I               56
Number of alpha electrons                  I               28
Number of beta electrons                   I               28
Number of basis functions                  I              123
Number of independent functions            I              123
Number of point charges in /Mol/           I                0
Number of translation vectors              I                0
Atomic numbers                             I   N=          16
           8           8           7           6           6           6
           6           1           1           1           1           1
           1           1           1           1
Nuclear charges                            R   N=          16
  8.00000000E+00  8.00000000E+00  7.00000000E+00  6.00000000E+00  6.00000000E+00
  6.00000000E+00  6.00000000E+00  1.00000000E+00  1.00000000E+00  1.00000000E+00
  1.00000000E+00  1.00000000E+00  1.00000000E+00  1.00000000E+00  1.00000000E+00
  1.00000000E+00
Current cartesian coordinates              R   N=          48
  3.07445514E+00  2.08728530E+00 -6.73441484E-01  3.07447241E+00 -2.08727473E+00
 -6.73440875E-01  2.32501007E+00  2.47347137E-06  1.07894790E-01 -2.32254330E+00
 -4.48661802E-06  8.05670015E-01  2.90683960E-01 -3.84045622E-06  2.05180678E+00
 -2.78068686E+00 -2.38901771E+00 -7.49720869E-01 -2.78069433E+00  2.38901369E+00
 -7.49714501E-01 -3.65072387E+00 -1.21239492E-05  2.40229672E+00  5.89301127E-01
  1.69781714E+00  3.18492947E+00  5.89308190E-01 -1.69782656E+00  3.18492435E+00
 -1.52220270E+00 -2.46591651E+00 -2.38587832E+00 -4.72983343E+00 -2.41758812E+00
 -1.43693539E+00 -2.46541653E+00 -4.09643177E+00  3.72498568E-01 -2.46544030E+00
  4.09642388E+00  3.72515256E-01 -1.52220262E+00  2.46592932E+00 -2.38586570E+00
 -4.72983763E+00  2.41757693E+00 -1.43693817E+00
Force Field                                I                0
Int Atom Types                             I   N=          16
           0           0           0           0           0           0
           0           0           0           0           0           0
           0           0           0           0
MM charges                                 R   N=          16
  0.00000000E+00  0.00000000E+00  0.00000000E+00  0.00000000E+00  0.00000000E+00
  0.00000000E+00  0.00000000E+00  0.00000000E+00  0.00000000E+00  0.00000000E+00
  0.00000000E+00  0.00000000E+00  0.00000000E+00  0.00000000E+00  0.00000000E+00
  0.00000000E+00
Integer atomic weights                     I   N=          16
          16          16          14          12          12          12
          12           1           1           1           1           1
           1           1           1           1
Real atomic weights                        R   N=          16
  1.59949146E+01  1.59949146E+01  1.40030740E+01  1.20000000E+01  1.20000000E+01
  1.20000000E+01  1.20000000E+01  1.00782504E+00  1.00782504E+00  1.00782504E+00
  1.00782504E+00  1.00782504E+00  1.00782504E+00  1.00782504E+00  1.00782504E+00
  1.00782504E+00
Atom fragment info                         I   N=          16
           0           0           0           0           0           0
           0           0           0           0           0           0
           0           0           0           0
Atom residue num                           I   N=          16
           0           0           0           0           0           0
           0           0           0           0           0           0
           0           0           0           0
Nuclear spins                              I   N=          16
           0           0           2           0           0           0
           0           1           1           1           1           1
           1           1           1           1
Nuclear ZEff                               R   N=          16
 -5.60000000E+00 -5.60000000E+00 -4.55000000E+00 -3.60000000E+00 -3.60000000E+00
 -3.60000000E+00 -3.60000000E+00 -1.00000000E+00 -1.00000000E+00 -1.00000000E+00
 -1.00000000E+00 -1.00000000E+00 -1.00000000E+00 -1.00000000E+00 -1.00000000E+00
 -1.00000000E+00
Nuclear QMom                               R   N=          16
  0.00000000E+00  0.00000000E+00  2.04400000E+00  0.00000000E+00  0.00000000E+00
  0.00000000E+00  0.00000000E+00  0.00000000E+00  0.00000000E+00  0.00000000E+00
  0.00000000E+00  0.00000000E+00  0.00000000E+00  0.00000000E+00  0.00000000E+00
  0.00000000E+00
Nuclear GFac                               R   N=          16
  0.00000000E+00  0.00000000E+00  4.03761000E-01  0.00000000E+00  0.00000000E+00
  0.00000000E+00  0.00000000E+00  2.79284600E+00  2.79284600E+00  2.79284600E+00
  2.79284600E+00  2.79284600E+00  2.79284600E+00  2.79284600E+00  2.79284600E+00
  2.79284600E+00
MicOpt                                     I   N=          16
          -1          -1          -1          -1          -1          -1
          -1          -1          -1          -1          -1          -1
          -1          -1          -1          -1
Number of contracted shells                I               46
Number of primitive shells                 I              113
Pure/Cartesian d shells                    I                1
Pure/Cartesian f shells                    I                0
Highest angular momentum                   I                2
Largest degree of contraction              I                6
Shell types                                I   N=          46
           0          -1          -1           2           0          -1
          -1           2           0          -1          -1           2
           0          -1          -1           2           0          -1
          -1           2           0          -1          -1           2
           0          -1          -1           2           0           0
           0           0           0           0           0           0
           0           0           0           0           0           0
           0           0           0           0
Number of primitives per shell             I   N=          46
           6           3           1           1           6           3
           1           1           6           3           1           1
           6           3           1           1           6           3
           1           1           6           3           1           1
           6           3           1           1           3           1
           3           1           3           1           3           1
           3           1           3           1           3           1
           3           1           3           1
Shell to atom map                          I   N=          46
           1           1           1           1           2           2
           2           2           3           3           3           3
           4           4           4           4           5           5
           5           5           6           6           6           6
           7           7           7           7           8           8
           9           9          10          10          11          11
          12          12          13          13          14          14
          15          15          16          16
Primitive exponents                        R   N=         113
  5.48467166E+03  8.25234946E+02  1.88046958E+02  5.29645000E+01  1.68975704E+01
  5.79963534E+00  1.55396162E+01  3.59993359E+00  1.01376175E+00  2.70005823E-01
  8.00000000E-01  5.48467166E+03  8.25234946E+02  1.88046958E+02  5.29645000E+01
  1.68975704E+01  5.79963534E+00  1.55396162E+01  3.59993359E+00  1.01376175E+00
  2.70005823E-01  8.00000000E-01  4.17351146E+03  6.27457911E+02  1.42902093E+02
  4.02343293E+01  1.28202129E+01  4.39043701E+00  1.16263619E+01  2.71627981E+00
  7.72218397E-01  2.12031498E-01  8.00000000E-01  3.04752488E+03  4.57369518E+02
  1.03948685E+02  2.92101553E+01  9.28666296E+00  3.16392696E+00  7.86827235E+00
  1.88128854E+00  5.44249258E-01  1.68714478E-01  8.00000000E-01  3.04752488E+03
  4.57369518E+02  1.03948685E+02  2.92101553E+01  9.28666296E+00  3.16392696E+00
  7.86827235E+00  1.88128854E+00  5.44249258E-01  1.68714478E-01  8.00000000E-01
  3.04752488E+03  4.57369518E+02  1.03948685E+02  2.92101553E+01  9.28666296E+00
  3.16392696E+00  7.86827235E+00  1.88128854E+00  5.44249258E-01  1.68714478E-01
  8.00000000E-01  3.04752488E+03  4.57369518E+02  1.03948685E+02  2.92101553E+01
  9.28666296E+00  3.16392696E+00  7.86827235E+00  1.88128854E+00  5.44249258E-01
  1.68714478E-01  8.00000000E-01  1.87311370E+01  2.82539436E+00  6.40121692E-01
  1.61277759E-01  1.87311370E+01  2.82539436E+00  6.40121692E-01  1.61277759E-01
  1.87311370E+01  2.82539436E+00  6.40121692E-01  1.61277759E-01  1.87311370E+01
  2.82539436E+00  6.40121692E-01  1.61277759E-01  1.87311370E+01  2.82539436E+00
  6.40121692E-01  1.61277759E-01  1.87311370E+01  2.82539436E+00  6.40121692E-01
  1.61277759E-01  1.87311370E+01  2.82539436E+00  6.40121692E-01  1.61277759E-01
  1.87311370E+01  2.82539436E+00  6.40121692E-01  1.61277759E-01  1.87311370E+01
  2.82539436E+00  6.40121692E-01  1.61277759E-01
Contraction coefficients                   R   N=         113
  1.83107443E-03  1.39501722E-02  6.84450781E-02  2.32714336E-01  4.70192898E-01
  3.58520853E-01 -1.10777550E-01 -1.48026263E-01  1.13076702E+00  1.00000000E+00
  1.00000000E+00  1.83107443E-03  1.39501722E-02  6.84450781E-02  2.32714336E-01
  4.70192898E-01  3.58520853E-01 -1.10777550E-01 -1.48026263E-01  1.13076702E+00
  1.00000000E+00  1.00000000E+00  1.83477216E-03  1.39946270E-02  6.85865518E-02
  2.32240873E-01  4.69069948E-01  3.60455199E-01 -1.14961182E-01 -1.69117479E-01
  1.14585195E+00  1.00000000E+00  1.00000000E+00  1.83473713E-03  1.40373228E-02
  6.88426223E-02  2.32184443E-01  4.67941348E-01  3.62311985E-01 -1.19332420E-01
 -1.60854152E-01  1.14345644E+00  1.00000000E+00  1.00000000E+00  1.83473713E-03
  1.40373228E-02  6.88426223E-02  2.32184443E-01  4.67941348E-01  3.62311985E-01
 -1.19332420E-01 -1.60854152E-01  1.14345644E+00  1.00000000E+00  1.00000000E+00
  1.83473713E-03  1.40373228E-02  6.88426223E-02  2.32184443E-01  4.67941348E-01
  3.62311985E-01 -1.19332420E-01 -1.60854152E-01  1.14345644E+00  1.00000000E+00
  1.00000000E+00  1.83473713E-03  1.40373228E-02  6.88426223E-02  2.32184443E-01
  4.67941348E-01  3.62311985E-01 -1.19332420E-01 -1.60854152E-01  1.14345644E+00
  1.00000000E+00  1.00000000E+00  3.34946043E-02  2.34726953E-01  8.13757326E-01
  1.00000000E+00  3.34946043E-02  2.34726953E-01  8.13757326E-01  1.00000000E+00
  3.34946043E-02  2.34726953E-01  8.13757326E-01  1.00000000E+00  3.34946043E-02
  2.34726953E-01  8.13757326E-01  1.00000000E+00  3.34946043E-02  2.34726953E-01
  8.13757326E-01  1.00000000E+00  3.34946043E-02  2.34726953E-01  8.13757326E-01
  1.00000000E+00  3.34946043E-02  2.34726953E-01  8.13757326E-01  1.00000000E+00
  3.34946043E-02  2.34726953E-01  8.13757326E-01  1.00000000E+00  3.34946043E-02
  2.34726953E-01  8.13757326E-01  1.00000000E+00
P(S=P) Contraction coefficients            R   N=         113
  0.00000000E+00  0.00000000E+00  0.00000000E+00  0.00000000E+00  0.00000000E+00
  0.00000000E+00  7.08742682E-02  3.39752839E-01  7.27158577E-01  1.00000000E+00
  0.00000000E+00  0.00000000E+00  0.00000000E+00  0.00000000E+00  0.00000000E+00
  0.00000000E+00  0.00000000E+00  7.08742682E-02  3.39752839E-01  7.27158577E-01
  1.00000000E+00  0.00000000E+00  0.00000000E+00  0.00000000E+00  0.00000000E+00
  0.00000000E+00  0.00000000E+00  0.00000000E+00  6.75797439E-02  3.23907296E-01
  7.40895140E-01  1.00000000E+00  0.00000000E+00  0.00000000E+00  0.00000000E+00
  0.00000000E+00  0.00000000E+00  0.00000000E+00  0.00000000E+00  6.89990666E-02
  3.16423961E-01  7.44308291E-01  1.00000000E+00  0.00000000E+00  0.00000000E+00
  0.00000000E+00  0.00000000E+00  0.00000000E+00  0.00000000E+00  0.00000000E+00
  6.89990666E-02  3.16423961E-01  7.44308291E-01  1.00000000E+00  0.00000000E+00
  0.00000000E+00  0.00000000E+00  0.00000000E+00  0.00000000E+00  0.00000000E+00
  0.00000000E+00  6.89990666E-02  3.16423961E-01  7.44308291E-01  1.00000000E+00
  0.00000000E+00  0.00000000E+00  0.00000000E+00  0.00000000E+00  0.00000000E+00
  0.00000000E+00  0.00000000E+00  6.89990666E-02  3.16423961E-01  7.44308291E-01
  1.00000000E+00  0.00000000E+00  0.00000000E+00  0.00000000E+00  0.00000000E+00
  0.00000000E+00  0.00000000E+00  0.00000000E+00  0.00000000E+00  0.00000000E+00
  0.00000000E+00  0.00000000E+00  0.00000000E+00  0.00000000E+00  0.00000000E+00
  0.00000000E+00  0.00000000E+00  0.00000000E+00  0.00000000E+00  0.00000000E+00
  0.00000000E+00  0.00000000E+00  0.00000000E+00  0.00000000E+00  0.00000000E+00
  0.00000000E+00  0.00000000E+00  0.00000000E+00  0.00000000E+00  0.00000000E+00
  0.00000000E+00  0.00000000E+00  0.00000000E+00  0.00000000E+00  0.00000000E+00
  0.00000000E+00  0.00000000E+00  0.00000000E+00
Coordinates of each shell                  R   N=         138
  3.07445514E+00  2.08728530E+00 -6.73441484E-01  3.07445514E+00  2.08728530E+00
 -6.73441484E-01  3.07445514E+00  2.08728530E+00 -6.73441484E-01  3.07445514E+00
  2.08728530E+00 -6.73441484E-01  3.07447241E+00 -2.08727473E+00 -6.73440875E-01
  3.07447241E+00 -2.08727473E+00 -6.73440875E-01  3.07447241E+00 -2.08727473E+00
 -6.73440875E-01  3.07447241E+00 -2.08727473E+00 -6.73440875E-01  2.32501007E+00
  2.47347137E-06  1.07894790E-01  2.32501007E+00  2.47347137E-06  1.07894790E-01
  2.32501007E+00  2.47347137E-06  1.07894790E-01  2.32501007E+00  2.47347137E-06
  1.07894790E-01 -2.32254330E+00 -4.48661802E-06  8.05670015E-01 -2.32254330E+00
 -4.48661802E-06  8.05670015E-01 -2.32254330E+00 -4.48661802E-06  8.05670015E-01
 -2.32254330E+00 -4.48661802E-06  8.05670015E-01  2.90683960E-01 -3.84045622E-06
  2.05180678E+00  2.90683960E-01 -3.84045622E-06  2.05180678E+00  2.90683960E-01
 -3.84045622E-06  2.05180678E+00  2.90683960E-01 -3.84045622E-06  2.05180678E+00
 -2.78068686E+00 -2.38901771E+00 -7.49720869E-01 -2.78068686E+00 -2.38901771E+00
 -7.49720869E-01 -2.78068686E+00 -2.38901771E+00 -7.49720869E-01 -2.78068686E+00
 -2.38901771E+00 -7.49720869E-01 -2.78069433E+00  2.38901369E+00 -7.49714501E-01
 -2.78069433E+00  2.38901369E+00 -7.49714501E-01 -2.78069433E+00  2.38901369E+00
 -7.49714501E-01 -2.78069433E+00  2.38901369E+00 -7.49714501E-01 -3.65072387E+00
 -1.21239492E-05  2.40229672E+00 -3.65072387E+00 -1.21239492E-05  2.40229672E+00
  5.89301127E-01  1.69781714E+00  3.18492947E+00  5.89301127E-01  1.69781714E+00
  3.18492947E+00  5.89308190E-01 -1.69782656E+00  3.18492435E+00  5.89308190E-01
 -1.69782656E+00  3.18492435E+00 -1.52220270E+00 -2.46591651E+00 -2.38587832E+00
 -1.52220270E+00 -2.46591651E+00 -2.38587832E+00 -4.72983343E+00 -2.41758812E+00
 -1.43693539E+00 -4.72983343E+00 -2.41758812E+00 -1.43693539E+00 -2.46541653E+00
 -4.09643177E+00  3.72498568E-01 -2.46541653E+00 -4.09643177E+00  3.72498568E-01
 -2.46544030E+00  4.09642388E+00  3.72515256E-01 -2.46544030E+00  4.09642388E+00
  3.72515256E-01 -1.52220262E+00  2.46592932E+00 -2.38586570E+00 -1.52220262E+00
  2.46592932E+00 -2.38586570E+00 -4.72983763E+00  2.41757693E+00 -1.43693817E+00
 -4.72983763E+00  2.41757693E+00 -1.43693817E+00
Constraint Structure                       R   N=          48
  3.07445514E+00  2.08728530E+00 -6.73441484E-01  3.07447241E+00 -2.08727473E+00
 -6.73440875E-01  2.32501007E+00  2.47347137E-06  1.07894790E-01 -2.32254330E+00
 -4.48661802E-06  8.05670015E-01  2.90683960E-01 -3.84045622E-06  2.05180678E+00
 -2.78068686E+00 -2.38901771E+00 -7.49720869E-01 -2.78069433E+00  2.38901369E+00
 -7.49714501E-01 -3.65072387E+00 -1.21239492E-05  2.40229672E+00  5.89301127E-01
  1.69781714E+00  3.18492947E+00  5.89308190E-01 -1.69782656E+00  3.18492435E+00
 -1.52220270E+00 -2.46591651E+00 -2.38587832E+00 -4.72983343E+00 -2.41758812E+00
 -1.43693539E+00 -2.46541653E+00 -4.09643177E+00  3.72498568E-01 -2.46544030E+00
  4.09642388E+00  3.72515256E-01 -1.52220262E+00  2.46592932E+00 -2.38586570E+00
 -4.72983763E+00  2.41757693E+00 -1.43693817E+00
Num ILSW                                   I              100
ILSW                                       I   N=         100
           0           1           0           0           2           0
           0           0           0           0           0          -1
           0           0           0           0           0           0
           0           0           0           0           1           0
           1           0           0           0           0           0
           0           0      100000           0          -1           0
           0           0           0           0           0           0
           0           0           0           1           1           0
           0           0           1           0           0           0
           0           0           4          40           0           0
           0           0           0           0           0           0
           0           0           0           0           0           0
           0           0           0           0           0           0
           0           0           0           0           0           0
           0           0           0           0           0           0
           0           0           0           0           0           0
           0           0           0           0
Num RLSW                                   I               40
RLSW                                       R   N=          40
  1.00000000E+00  1.00000000E+00  1.00000000E+00  1.00000000E+00  1.00000000E+00
  0.00000000E+00  0.00000000E+00  1.00000000E+00  0.00000000E+00  0.00000000E+00
  0.00000000E+00  0.00000000E+00  1.00000000E+00  0.00000000E+00  0.00000000E+00
  0.00000000E+00  0.00000000E+00  1.00000000E+00  0.00000000E+00  0.00000000E+00
  0.00000000E+00  0.00000000E+00  1.00000000E+00  0.00000000E+00  0.00000000E+00
  0.00000000E+00  0.00000000E+00  1.00000000E+00  0.00000000E+00  0.00000000E+00
  0.00000000E+00  0.00000000E+00  0.00000000E+00  0.00000000E+00  0.00000000E+00
  0.00000000E+00  0.00000000E+00  0.00000000E+00  1.00000000E+00  1.00000000E+00
MxBond                                     I                4
NBond                                      I   N=          16
           1           1           3           4           4           4
           4           1           1           1           1           1
           1           1           1           1
IBond                                      I   N=          64
           3           0           0           0           3           0
           0           0           1           2           5           0
           5           6           7           8           3           4
           9          10           4          11          12          13
           4          14          15          16           4           0
           0           0           5           0           0           0
           5           0           0           0           6           0
           0           0           6           0           0           0
           6           0           0           0           7           0
           0           0           7           0           0           0
           7           0           0           0
RBond                                      R   N=          64
  2.00000000E+00  0.00000000E+00  0.00000000E+00  0.00000000E+00  2.00000000E+00
  0.00000000E+00  0.00000000E+00  0.00000000E+00  2.00000000E+00  2.00000000E+00
  1.00000000E+00  0.00000000E+00  1.00000000E+00  1.00000000E+00  1.00000000E+00
  1.00000000E+00  1.00000000E+00  1.00000000E+00  1.00000000E+00  1.00000000E+00
  1.00000000E+00  1.00000000E+00  1.00000000E+00  1.00000000E+00  1.00000000E+00
  1.00000000E+00  1.00000000E+00  1.00000000E+00  1.00000000E+00  0.00000000E+00
  0.00000000E+00  0.00000000E+00  1.00000000E+00  0.00000000E+00  0.00000000E+00
  0.00000000E+00  1.00000000E+00  0.00000000E+00  0.00000000E+00  0.00000000E+00
  1.00000000E+00  0.00000000E+00  0.00000000E+00  0.00000000E+00  1.00000000E+00
  0.00000000E+00  0.00000000E+00  0.00000000E+00  1.00000000E+00  0.00000000E+00
  0.00000000E+00  0.00000000E+00  1.00000000E+00  0.00000000E+00  0.00000000E+00
  0.00000000E+00  1.00000000E+00  0.00000000E+00  0.00000000E+00  0.00000000E+00
  1.00000000E+00  0.00000000E+00  0.00000000E+00  0.00000000E+00
Virial Ratio                               R      2.002865965574334E+00
SCF Energy                                 R     -3.607601844630144E+02
MP2 Energy                                 R     -3.618371306620145E+02
Total Energy                               R     -3.618371306620145E+02
Post-SCF wavefunction norm                 R      1.643317078079541E+00
RMS Force                                  R      5.819715338795340E-07
RMS Density                                R      2.123671268363262E-09
External E-field                           R   N=          35
  0.00000000E+00  0.00000000E+00  0.00000000E+00  0.00000000E+00  0.00000000E+00
  0.00000000E+00  0.00000000E+00  0.00000000E+00  0.00000000E+00  0.00000000E+00
  0.00000000E+00  0.00000000E+00  0.00000000E+00  0.00000000E+00  0.00000000E+00
  0.00000000E+00  0.00000000E+00  0.00000000E+00  0.00000000E+00  0.00000000E+00
  0.00000000E+00  0.00000000E+00  0.00000000E+00  0.00000000E+00  0.00000000E+00
  0.00000000E+00  0.00000000E+00  0.00000000E+00  0.00000000E+00  0.00000000E+00
  0.00000000E+00  0.00000000E+00  0.00000000E+00  0.00000000E+00  0.00000000E+00
IOpCl                                      I                0
IROHF                                      I                0
Alpha Orbital Energies                     R   N=         123
 -2.06106963E+01 -2.06106467E+01 -1.58497887E+01 -1.13056888E+01 -1.12657049E+01
 -1.12293784E+01 -1.12293584E+01 -1.58265997E+00 -1.38245881E+00 -1.14446092E+00
 -1.04145917E+00 -9.48092161E-01 -8.79254546E-01 -8.01679982E-01 -7.36381467E-01
 -7.23703930E-01 -7.03688407E-01 -6.37543746E-01 -6.28438383E-01 -6.07967160E-01
 -5.57282448E-01 -5.44742012E-01 -5.15132125E-01 -5.00202163E-01 -4.98839043E-01
 -4.80607401E-01 -4.71251108E-01 -4.41283368E-01  8.96049727E-02  2.09106270E-01
  2.62491355E-01  2.72632773E-01  2.77242665E-01  2.88679932E-01  2.96153910E-01
  3.09107866E-01  3.23065135E-01  3.38586045E-01  3.59881454E-01  3.60152176E-01
  4.15766049E-01  4.19722286E-01  4.91628435E-01  5.70784575E-01  6.85344565E-01
  6.94791968E-01  7.02064847E-01  7.27196549E-01  7.33111197E-01  8.03469322E-01
  8.36667312E-01  9.09215185E-01  9.21918101E-01  9.26166802E-01  9.62165936E-01
  9.71946168E-01  9.96650092E-01  1.07059884E+00  1.07673297E+00  1.09253479E+00
  1.10752345E+00  1.11856233E+00  1.14640242E+00  1.15312775E+00  1.15948391E+00
  1.17859150E+00  1.17922700E+00  1.19134870E+00  1.22354455E+00  1.23248264E+00
  1.27525021E+00  1.28601825E+00  1.35057544E+00  1.35967532E+00  1.38941040E+00
  1.43932577E+00  1.47412787E+00  1.59521289E+00  1.62986621E+00  1.69972754E+00
  1.74699982E+00  1.77439824E+00  1.78887079E+00  1.83276163E+00  1.98460616E+00
  2.02435806E+00  2.07486339E+00  2.09487518E+00  2.11362450E+00  2.13374484E+00
  2.13602389E+00  2.15813702E+00  2.24830369E+00  2.26071093E+00  2.32298775E+00
  2.34584612E+00  2.36924860E+00  2.39596549E+00  2.41883579E+00  2.43247566E+00
  2.51701376E+00  2.56068841E+00  2.58427928E+00  2.60060144E+00  2.71845939E+00
  2.74889094E+00  2.80714094E+00  2.84558247E+00  2.91213194E+00  2.98266125E+00
  3.03835382E+00  3.05748509E+00  3.12987306E+00  3.22111390E+00  3.23397515E+00
  3.39133345E+00  4.04480909E+00  4.20778171E+00  4.25177807E+00  4.60783800E+00
  4.70838624E+00  4.77846903E+00  5.03274069E+00
Alpha MO coefficients                      R   N=       15129
 -7.02578177E-01 -1.48411331E-02  3.72176048E-04  1.08366091E-03 -3.86207287E-04
 -2.48932739E-03 -1.32258369E-04 -2.95240883E-04  1.52364915E-04  2.69085822E-03
  2.57380251E-03  2.69222407E-03  4.72916403E-05  4.16908425E-05 -5.23085683E-05
  7.04239449E-01  1.48760835E-02 -3.73149972E-04  1.08614054E-03  3.87204907E-04
  2.49578221E-03  1.32378276E-04 -2.95597007E-04 -1.52465951E-04 -2.69723013E-03
 -2.58004711E-03 -2.69856726E-03  4.71486757E-05 -4.20937419E-05 -5.21465475E-05
  4.34074513E-08  6.24256987E-07  1.16225196E-07 -2.21085320E-04 -9.11158434E-08
  2.79602190E-07 -4.49306878E-07  1.61141810E-04  3.63372576E-07 -1.01171720E-07
 -1.07753546E-06 -1.16392308E-07  3.05639589E-04  9.74040826E-08 -3.23235766E-04
  1.51608003E-08  3.90500907E-08  3.16549238E-08  4.55514391E-06 -1.94318651E-08
 -2.63489701E-07 -1.05186358E-07 -3.26971830E-05  7.52435386E-08  3.32687151E-08
  3.71791960E-08  2.73413085E-08 -4.39204292E-07 -8.22989769E-09  4.66438910E-06
 -9.52282895E-09  5.14674707E-09 -6.32101386E-08  5.03302689E-05  5.96561615E-08
 -1.29482487E-07 -2.55946903E-07 -3.74427220E-05  1.75704470E-07 -7.30795818E-08
 -2.62251381E-08 -7.37861507E-08  5.87191855E-05  3.97583497E-08 -5.71190376E-05
 -1.40565997E-06 -5.85860639E-06  6.02694794E-06 -4.51827672E-06  5.85706095E-06
  5.44213707E-05 -2.55096047E-05  7.90591604E-06 -5.38682006E-05 -6.65786918E-07
 -5.10101918E-06 -4.06382003E-06 -4.04327837E-07  2.04412395E-07  7.59264632E-07
  1.40654778E-06  5.84063930E-06 -5.96550746E-06 -4.53090573E-06 -5.82663762E-06
 -5.41258356E-05  2.53782356E-05  7.82081369E-06  5.37430394E-05  6.92737862E-07
  5.10631810E-06  4.06679923E-06 -4.17369697E-07 -1.91033038E-07  7.61341648E-07
 -2.25909031E-09 -5.95068427E-08  3.55409102E-06  3.75996586E-05 -3.52301033E-06
 -3.77744490E-05  1.26518715E-05 -8.23431642E-05 -8.54152411E-06 -2.70451413E-05
  1.07697851E-05 -8.59773871E-07 -1.07486380E-05  8.99994316E-07 -1.25977792E-05
  8.21254980E-05  8.50695499E-06  2.68995242E-05  7.04233927E-01  1.48161928E-02
 -4.08984883E-04 -1.05256689E-03  4.23012565E-04  2.73700098E-03  4.96358824E-05
  1.51390437E-04 -4.30058151E-05 -2.70108090E-03 -2.64751458E-03 -2.68926440E-03
  6.00875018E-05 -1.70840946E-04 -6.87948716E-05  7.02572642E-01  1.47810998E-02
 -4.08113563E-04  1.05000111E-03  4.22098908E-04  2.73111220E-03  4.93253546E-05
 -1.50692321E-04 -4.26457412E-05 -2.69471673E-03 -2.64142873E-03 -2.68289777E-03
 -6.01994540E-05 -1.70742466E-04  6.89166540E-05  3.68029753E-05  5.28602206E-04
  9.75940124E-05  2.61173575E-07 -7.71193291E-05  2.36110724E-04 -3.80063333E-04
 -1.91529042E-07  3.08041253E-04 -8.37699612E-05 -9.14517621E-04 -9.86394698E-05
 -3.56979999E-07  8.13863825E-05  3.82291859E-07  1.28247571E-05  3.29991043E-05
  2.67577307E-05 -5.41879553E-09 -1.64592625E-05 -2.22690695E-04 -8.91000688E-05
  3.95390677E-08  6.36163408E-05  2.81446258E-05  3.15101401E-05  2.30695676E-05
  4.88578384E-10 -7.00030160E-06 -5.52590104E-09 -8.08366135E-06  4.31428737E-06
 -5.34657345E-05 -5.95391176E-08  5.06396098E-05 -1.09495664E-04 -2.16865177E-04
  4.30976894E-08  1.48817594E-04 -6.16784904E-05 -2.25155517E-05 -6.26442352E-05
 -6.94010757E-08  3.36050177E-05  6.74308460E-08  3.80073442E-07 -7.58885799E-06
  2.60022663E-05  5.32309601E-06  1.29430945E-05  1.25224787E-04 -5.55306315E-05
  3.59331668E-05 -5.34600367E-05  1.13973746E-05  2.22927465E-06  1.29433405E-06
  5.49307495E-06  5.65385325E-06 -8.74163531E-07  3.76709408E-07 -7.60282596E-06
  2.60162916E-05 -5.31216732E-06  1.29571167E-05  1.25353351E-04 -5.55898565E-05
 -3.59520098E-05 -5.35898004E-05  1.13956260E-05  2.21708744E-06  1.28474184E-06
 -5.49205057E-06  5.65422032E-06  8.72420824E-07 -1.93771053E-06 -5.02833178E-05
  1.31463095E-05 -7.40908615E-05  1.31544387E-05 -7.40021252E-05  2.29298272E-05
 -9.28639828E-05 -1.46549221E-05 -6.17368894E-05  8.93993479E-06  1.72536944E-05
  8.96527768E-06  1.72526296E-05  2.29595130E-05 -9.30609967E-05 -1.46751300E-05
 -6.18007846E-05 -1.80362208E-04  1.76948137E-04 -4.82744875E-05 -1.37971764E-04
  4.96750021E-05  1.24979561E-04 -4.19607196E-06  1.74488829E-04 -3.39781481E-05
  2.05311039E-05 -2.77871512E-04  9.10613019E-06 -9.96746574E-05  1.11652556E-04
  1.19521174E-04 -1.80362024E-04  1.76948237E-04 -4.82755943E-05  1.37971430E-04
  4.96749740E-05  1.24977545E-04 -4.19446244E-06 -1.74489348E-04 -3.39784384E-05
  2.05297384E-05 -2.77870005E-04  9.10623995E-06  9.96775201E-05  1.11653428E-04
 -1.19520118E-04  9.95251933E-01  2.39418960E-02  3.01017750E-04  1.95810374E-09
 -3.71943199E-04 -1.87109120E-03  6.13429354E-04  4.32670044E-10 -4.63422382E-04
 -3.22379197E-03 -2.57599363E-03 -3.20730300E-03 -3.04434663E-09 -1.90804056E-04
 -9.21117484E-10 -3.22911321E-05 -1.06231543E-04 -1.10061845E-04 -2.04486892E-10
  3.87508833E-05  5.04761464E-04  3.05702297E-04  1.39109741E-09 -2.25431375E-04
 -7.50869562E-05 -6.83668862E-05 -5.44499736E-05 -2.83451808E-11  1.56317718E-05
 -2.59532605E-11 -1.94927503E-05  4.27152242E-05  2.11349716E-04  5.91488520E-10
 -1.76996080E-04  1.28047825E-03  6.15926861E-04  1.74017248E-09 -3.96565557E-04
 -4.53023460E-05 -1.11267142E-04 -4.53767228E-05  2.57147835E-10 -6.21896785E-05
 -1.06277012E-10  7.27674356E-06  4.36276290E-05 -1.94536901E-05 -2.20924706E-05
 -7.50019506E-06 -3.38458073E-04 -1.07161059E-04 -6.57889641E-05  3.00328522E-06
 -8.28057915E-06  4.52154163E-07  1.12984421E-05 -2.16251643E-05 -1.35934815E-05
  8.50603435E-06  7.27679999E-06  4.36277912E-05 -1.94532539E-05  2.20924985E-05
 -7.49995857E-06 -3.38458467E-04 -1.07163203E-04  6.57882870E-05  3.00222142E-06