
    -----------------------------------------------------------------------
          Psi4: An Open-Source Ab Initio Electronic Structure Package
                               Psi4 1.3.2 release

                         Git: Rev {HEAD} ecbda83 


    R. M. Parrish, L. A. Burns, D. G. A. Smith, A. C. Simmonett,
    A. E. DePrince III, E. G. Hohenstein, U. Bozkaya, A. Yu. Sokolov,
    R. Di Remigio, R. M. Richard, J. F. Gonthier, A. M. James,
    H. R. McAlexander, A. Kumar, M. Saitow, X. Wang, B. P. Pritchard,
    P. Verma, H. F. Schaefer III, K. Patkowski, R. A. King, E. F. Valeev,
    F. A. Evangelista, J. M. Turney, T. D. Crawford, and C. D. Sherrill,
    J. Chem. Theory Comput. 13(7) pp 3185--3197 (2017).
    (doi: 10.1021/acs.jctc.7b00174)


                         Additional Contributions by
    P. Kraus, H. Kruse, M. H. Lechner, M. C. Schieber, R. A. Shaw,
    A. Alenaizan, R. Galvelis, Z. L. Glick, S. Lehtola, and J. P. Misiewicz

    -----------------------------------------------------------------------


    Psi4 started on: Monday, 02 November 2020 10:11PM

    Process ID: 13217
    Host:       node37.bme.utexas.edu
    PSIDATADIR: /home/xy3866/psi4conda/share/psi4
    Memory:     500.0 MiB
    Threads:    8
    
  ==> Input File <==

--------------------------------------------------------------------------
#psi4
#
memory 32 gb

molecule  {
0 1
  O       -1.2523610    -0.3679540     1.1390180
  C       -0.6339759    -0.4868826    -0.1660221
  C        0.8068160    -0.0466880    -0.0850580
  C       -1.4810420     0.4064310    -1.0751840
  C        1.1240031     1.3447408     0.3831634
  C        1.7719920    -0.9222190    -0.3989230
  H       -0.6847220    -1.5045720    -0.5137440
  H       -1.0704880     0.4059060    -2.0885930
  H       -2.5045050     0.0256980    -1.1039840
  H       -1.5089050     1.4302280    -0.6989750
  H        0.5609280     1.5513020     1.3193640
  H        2.1701080     1.4924500     0.5529100
  H        0.7653060     2.0941260    -0.3453770
  H        1.5377490    -1.9244940    -0.7449540
  H        2.8237910    -0.6585230    -0.3492850
  H       -0.7244690    -0.9269870     1.7376420
units angstrom
no_reorient  #important for SAPT in psi4, default
symmetry c1  #important for SAPT in psi4, default
}

set PROPERTIES_ORIGIN ["COM"]
properties('MP2/aug-cc-pvtz', properties = ['dipole'])
--------------------------------------------------------------------------

  Memory set to  29.802 GiB by Python driver.
    SCF Algorithm Type (re)set to DF.

*** tstart() called on node37.bme.utexas.edu
*** at Mon Nov  2 22:11:23 2020

   => Loading Basis Set <=

    Name: AUG-CC-PVTZ
    Role: ORBITAL
    Keyword: BASIS
    atoms 1    entry O          line   327 file /home/xy3866/psi4conda/share/psi4/basis/aug-cc-pvtz.gbs 
    atoms 2-6  entry C          line   235 file /home/xy3866/psi4conda/share/psi4/basis/aug-cc-pvtz.gbs 
    atoms 7-16 entry H          line    36 file /home/xy3866/psi4conda/share/psi4/basis/aug-cc-pvtz.gbs 


         ---------------------------------------------------------
                                   SCF
               by Justin Turney, Rob Parrish, Andy Simmonett
                          and Daniel G. A. Smith
                              RHF Reference
                        8 Threads,  30517 MiB Core
         ---------------------------------------------------------

  ==> Geometry <==

    Molecular point group: c1
    Full point group: C1

    Geometry (in Angstrom), charge = 0, multiplicity = 1:

       Center              X                  Y                   Z               Mass       
    ------------   -----------------  -----------------  -----------------  -----------------
         O           -1.256980136308    -0.364002261074     1.140624466495    15.994914619570
         C           -0.638595036308    -0.482930861074    -0.164415633505    12.000000000000
         C            0.802196863692    -0.042736261074    -0.083451533505    12.000000000000
         C           -1.485661136308     0.410382738926    -1.073577533505    12.000000000000
         C            1.119383963692     1.348692538926     0.384769866495    12.000000000000
         C            1.767372863692    -0.918267261074    -0.397316533505    12.000000000000
         H           -0.689341136308    -1.500620261074    -0.512137533505     1.007825032230
         H           -1.075107136308     0.409857738926    -2.086986533505     1.007825032230
         H           -2.509124136308     0.029649738926    -1.102377533505     1.007825032230
         H           -1.513524136308     1.434179738926    -0.697368533505     1.007825032230
         H            0.556308863692     1.555253738926     1.320970466495     1.007825032230
         H            2.165488863692     1.496401738926     0.554516466495     1.007825032230
         H            0.760686863692     2.098077738926    -0.343770533505     1.007825032230
         H            1.533129863692    -1.920542261074    -0.743347533505     1.007825032230
         H            2.819171863692    -0.654571261074    -0.347678533505     1.007825032230
         H           -0.729088136308    -0.923035261074     1.739248466495     1.007825032230

  Running in c1 symmetry.

  Rotational constants: A =      0.15539  B =      0.08660  C =      0.08369 [cm^-1]
  Rotational constants: A =   4658.51807  B =   2596.07250  C =   2509.06586 [MHz]
  Nuclear repulsion =  245.184705578516088

  Charge       = 0
  Multiplicity = 1
  Electrons    = 48
  Nalpha       = 24
  Nbeta        = 24

  ==> Algorithm <==

  SCF Algorithm Type is DF.
  DIIS enabled.
  MOM disabled.
  Fractional occupation disabled.
  Guess Type is SAD.
  Energy threshold   = 1.00e-10
  Density threshold  = 1.00e-10
  Integral threshold = 0.00e+00

  ==> Primary Basis <==

  Basis Set: AUG-CC-PVTZ
    Blend: AUG-CC-PVTZ
    Number of shells: 174
    Number of basis function: 506
    Number of Cartesian functions: 580
    Spherical Harmonics?: true
    Max angular momentum: 3

   => Loading Basis Set <=

    Name: (AUG-CC-PVTZ AUX)
    Role: JKFIT
    Keyword: DF_BASIS_SCF
    atoms 1    entry O          line   286 file /home/xy3866/psi4conda/share/psi4/basis/aug-cc-pvtz-jkfit.gbs 
    atoms 2-6  entry C          line   162 file /home/xy3866/psi4conda/share/psi4/basis/aug-cc-pvtz-jkfit.gbs 
    atoms 7-16 entry H          line    70 file /home/xy3866/psi4conda/share/psi4/basis/aug-cc-pvtz-jkfit.gbs 

  ==> Pre-Iterations <==

   -------------------------------------------------------
    Irrep   Nso     Nmo     Nalpha   Nbeta   Ndocc  Nsocc
   -------------------------------------------------------
     A        506     506       0       0       0       0
   -------------------------------------------------------
    Total     506     506      24      24      24       0
   -------------------------------------------------------

  ==> Integral Setup <==

  DFHelper Memory: AOs need 2.107 GiB; user supplied 22.352 GiB. Using in-core AOs.

  ==> MemDFJK: Density-Fitted J/K Matrices <==

    J tasked:                   Yes
    K tasked:                   Yes
    wK tasked:                   No
    OpenMP threads:               8
    Memory [MiB]:             22888
    Algorithm:                 Disk
    Schwarz Cutoff:           1E-12
    Mask sparsity (%):       1.7505
    Fitting Condition:        1E-10

   => Auxiliary Basis Set <=

  Basis Set: (AUG-CC-PVTZ AUX)
    Blend: AUG-CC-PVTZ-JKFIT
    Number of shells: 320
    Number of basis function: 1084
    Number of Cartesian functions: 1336
    Spherical Harmonics?: true
    Max angular momentum: 4

  Minimum eigenvalue in the overlap matrix is 2.1566255348E-06.
  Using Symmetric Orthogonalization.

  SCF Guess: Superposition of Atomic Densities via on-the-fly atomic UHF.

  ==> Iterations <==

                           Total Energy        Delta E     RMS |[F,P]|

   @DF-RHF iter SAD:  -269.23906532524904   -2.69239e+02   0.00000e+00 
   @DF-RHF iter   1:  -269.84479354185038   -6.05728e-01   1.30803e-03 DIIS
   @DF-RHF iter   2:  -270.05174389390601   -2.06950e-01   6.41831e-04 DIIS
   @DF-RHF iter   3:  -270.09705750269615   -4.53136e-02   1.29604e-04 DIIS
   @DF-RHF iter   4:  -270.10007664925956   -3.01915e-03   5.06326e-05 DIIS
   @DF-RHF iter   5:  -270.10047059754993   -3.93948e-04   8.00911e-06 DIIS
   @DF-RHF iter   6:  -270.10048621168380   -1.56141e-05   1.72983e-06 DIIS
   @DF-RHF iter   7:  -270.10048709015336   -8.78470e-07   4.87387e-07 DIIS
   @DF-RHF iter   8:  -270.10048716131178   -7.11584e-08   1.97389e-07 DIIS
   @DF-RHF iter   9:  -270.10048717020641   -8.89463e-09   6.02670e-08 DIIS
   @DF-RHF iter  10:  -270.10048717140495   -1.19854e-09   2.91675e-08 DIIS
   @DF-RHF iter  11:  -270.10048717160259   -1.97645e-10   7.95345e-09 DIIS
   @DF-RHF iter  12:  -270.10048717162618   -2.35900e-11   2.81124e-09 DIIS
   @DF-RHF iter  13:  -270.10048717162965   -3.46745e-12   8.23278e-10 DIIS
   @DF-RHF iter  14:  -270.10048717163016   -5.11591e-13   2.33772e-10 DIIS
   @DF-RHF iter  15:  -270.10048717163090   -7.38964e-13   6.93679e-11 DIIS
  Energy and wave function converged.


  ==> Post-Iterations <==

    Orbital Energies [Eh]
    ---------------------

    Doubly Occupied:                                                      

       1A    -20.557109     2A    -11.284129     3A    -11.242101  
       4A    -11.222047     5A    -11.221871     6A    -11.214666  
       7A     -1.352940     8A     -1.093612     9A     -0.997303  
      10A     -0.938099    11A     -0.847688    12A     -0.734804  
      13A     -0.691990    14A     -0.649880    15A     -0.597032  
      16A     -0.587164    17A     -0.560063    18A     -0.555163  
      19A     -0.528306    20A     -0.522892    21A     -0.509684  
      22A     -0.478832    23A     -0.445457    24A     -0.357830  

    Virtual:                                                              

      25A      0.028570    26A      0.035509    27A      0.037944  
      28A      0.040936    29A      0.052553    30A      0.053617  
      31A      0.058040    32A      0.061724    33A      0.075344  
      34A      0.081151    35A      0.092082    36A      0.109516  
      37A      0.114480    38A      0.121535    39A      0.122641  
      40A      0.124284    41A      0.131196    42A      0.132947  
      43A      0.138904    44A      0.141233    45A      0.150156  
      46A      0.154878    47A      0.156013    48A      0.167115  
      49A      0.172248    50A      0.174563    51A      0.178493  
      52A      0.183793    53A      0.209502    54A      0.224023  
      55A      0.234269    56A      0.234969    57A      0.245654  
      58A      0.253119    59A      0.257606    60A      0.264182  
      61A      0.267864    62A      0.281318    63A      0.291766  
      64A      0.295345    65A      0.309430    66A      0.311671  
      67A      0.316259    68A      0.322129    69A      0.328674  
      70A      0.337429    71A      0.342619    72A      0.347515  
      73A      0.350322    74A      0.358380    75A      0.361832  
      76A      0.366099    77A      0.373082    78A      0.378856  
      79A      0.384000    80A      0.391632    81A      0.394811  
      82A      0.401609    83A      0.404981    84A      0.409467  
      85A      0.412602    86A      0.424551    87A      0.426259  
      88A      0.434165    89A      0.438802    90A      0.450187  
      91A      0.454130    92A      0.457734    93A      0.464442  
      94A      0.470349    95A      0.477461    96A      0.478000  
      97A      0.486736    98A      0.492733    99A      0.503030  
     100A      0.508871   101A      0.510629   102A      0.517723  
     103A      0.525163   104A      0.532422   105A      0.533928  
     106A      0.536964   107A      0.542531   108A      0.548955  
     109A      0.557657   110A      0.562390   111A      0.574703  
     112A      0.578111   113A      0.585149   114A      0.594170  
     115A      0.603476   116A      0.613196   117A      0.617947  
     118A      0.627912   119A      0.629166   120A      0.636848  
     121A      0.654985   122A      0.664466   123A      0.671461  
     124A      0.677878   125A      0.688443   126A      0.704623  
     127A      0.709265   128A      0.729184   129A      0.744042  
     130A      0.769948   131A      0.772695   132A      0.786444  
     133A      0.789715   134A      0.799650   135A      0.813318  
     136A      0.822527   137A      0.833189   138A      0.836502  
     139A      0.848479   140A      0.851240   141A      0.854309  
     142A      0.864871   143A      0.879647   144A      0.885145  
     145A      0.894545   146A      0.901448   147A      0.912196  
     148A      0.926481   149A      0.930107   150A      0.931304  
     151A      0.937212   152A      0.945319   153A      0.946032  
     154A      0.951968   155A      0.961524   156A      0.967822  
     157A      0.976982   158A      0.978214   159A      0.993975  
     160A      0.999594   161A      1.007517   162A      1.017675  
     163A      1.028126   164A      1.032077   165A      1.035768  
     166A      1.044064   167A      1.053327   168A      1.055298  
     169A      1.067429   170A      1.077638   171A      1.087907  
     172A      1.093200   173A      1.104082   174A      1.109292  
     175A      1.113627   176A      1.122722   177A      1.135149  
     178A      1.138987   179A      1.147274   180A      1.158507  
     181A      1.166120   182A      1.172790   183A      1.179273  
     184A      1.189940   185A      1.194530   186A      1.196959  
     187A      1.208971   188A      1.217013   189A      1.224585  
     190A      1.230042   191A      1.237167   192A      1.241889  
     193A      1.248401   194A      1.265366   195A      1.273380  
     196A      1.283969   197A      1.296392   198A      1.303910  
     199A      1.322266   200A      1.339861   201A      1.342540  
     202A      1.362496   203A      1.369203   204A      1.377433  
     205A      1.387993   206A      1.394903   207A      1.402802  
     208A      1.414738   209A      1.440641   210A      1.448895  
     211A      1.462740   212A      1.468294   213A      1.481865  
     214A      1.486435   215A      1.500468   216A      1.513200  
     217A      1.525158   218A      1.530914   219A      1.542689  
     220A      1.548478   221A      1.555619   222A      1.565181  
     223A      1.578213   224A      1.591874   225A      1.604551  
     226A      1.608467   227A      1.612316   228A      1.621700  
     229A      1.647964   230A      1.654897   231A      1.675484  
     232A      1.683972   233A      1.686523   234A      1.693023  
     235A      1.703764   236A      1.719500   237A      1.725718  
     238A      1.737115   239A      1.744864   240A      1.750000  
     241A      1.776271   242A      1.779989   243A      1.782563  
     244A      1.785777   245A      1.808409   246A      1.812921  
     247A      1.816987   248A      1.836596   249A      1.854894  
     250A      1.857576   251A      1.875044   252A      1.878261  
     253A      1.887886   254A      1.903476   255A      1.907168  
     256A      1.933727   257A      1.940641   258A      1.958036  
     259A      1.961726   260A      1.970613   261A      1.976274  
     262A      1.992153   263A      2.007515   264A      2.010060  
     265A      2.024612   266A      2.047627   267A      2.051618  
     268A      2.067289   269A      2.075416   270A      2.083850  
     271A      2.103332   272A      2.133420   273A      2.149871  
     274A      2.161190   275A      2.168345   276A      2.172523  
     277A      2.189319   278A      2.204602   279A      2.213819  
     280A      2.230855   281A      2.240863   282A      2.248953  
     283A      2.265747   284A      2.278685   285A      2.294562  
     286A      2.303225   287A      2.318836   288A      2.344654  
     289A      2.357846   290A      2.370061   291A      2.392317  
     292A      2.410897   293A      2.429310   294A      2.450960  
     295A      2.464340   296A      2.489338   297A      2.503727  
     298A      2.531768   299A      2.565989   300A      2.582773  
     301A      2.615828   302A      2.634521   303A      2.698000  
     304A      2.707740   305A      2.717834   306A      2.752736  
     307A      2.797236   308A      2.830139   309A      2.873613  
     310A      2.931746   311A      2.941692   312A      2.979943  
     313A      3.021628   314A      3.040444   315A      3.068016  
     316A      3.095707   317A      3.119617   318A      3.151784  
     319A      3.183832   320A      3.252596   321A      3.299472  
     322A      3.311700   323A      3.325280   324A      3.350567  
     325A      3.397602   326A      3.401324   327A      3.422687  
     328A      3.446192   329A      3.456162   330A      3.482401  
     331A      3.503544   332A      3.521823   333A      3.536956  
     334A      3.573330   335A      3.579231   336A      3.603672  
     337A      3.616724   338A      3.634817   339A      3.647016  
     340A      3.652116   341A      3.664934   342A      3.683218  
     343A      3.687291   344A      3.697496   345A      3.731037  
     346A      3.737605   347A      3.747815   348A      3.756360  
     349A      3.772410   350A      3.781448   351A      3.799699  
     352A      3.822778   353A      3.834774   354A      3.848240  
     355A      3.863134   356A      3.877863   357A      3.886293  
     358A      3.914323   359A      3.928972   360A      3.946347  
     361A      3.956448   362A      3.968666   363A      3.971246  
     364A      3.994155   365A      4.005915   366A      4.014669  
     367A      4.024243   368A      4.032375   369A      4.039304  
     370A      4.053982   371A      4.079751   372A      4.086682  
     373A      4.095576   374A      4.124507   375A      4.137121  
     376A      4.143720   377A      4.163723   378A      4.172982  
     379A      4.198434   380A      4.207140   381A      4.220250  
     382A      4.234100   383A      4.241673   384A      4.252482  
     385A      4.289507   386A      4.312215   387A      4.315430  
     388A      4.326022   389A      4.335884   390A      4.357101  
     391A      4.369532   392A      4.383666   393A      4.407814  
     394A      4.420867   395A      4.453018   396A      4.480656  
     397A      4.488252   398A      4.505827   399A      4.527512  
     400A      4.530630   401A      4.564747   402A      4.573354  
     403A      4.602615   404A      4.614694   405A      4.624495  
     406A      4.647088   407A      4.663478   408A      4.688676  
     409A      4.717159   410A      4.730232   411A      4.757770  
     412A      4.768320   413A      4.783175   414A      4.802205  
     415A      4.819973   416A      4.829838   417A      4.841817  
     418A      4.882416   419A      4.895320   420A      4.906639  
     421A      4.919106   422A      4.930958   423A      4.947986  
     424A      4.956994   425A      5.004295   426A      5.017846  
     427A      5.050183   428A      5.070200   429A      5.079952  
     430A      5.110974   431A      5.127429   432A      5.144875  
     433A      5.154529   434A      5.171913   435A      5.192847  
     436A      5.222515   437A      5.228639   438A      5.235190  
     439A      5.256107   440A      5.293314   441A      5.306621  
     442A      5.342377   443A      5.348372   444A      5.368326  
     445A      5.411051   446A      5.417707   447A      5.423521  
     448A      5.432480   449A      5.473156   450A      5.508638  
     451A      5.514379   452A      5.516628   453A      5.535907  
     454A      5.538871   455A      5.588659   456A      5.597231  
     457A      5.628491   458A      5.647207   459A      5.686886  
     460A      5.701685   461A      5.724710   462A      5.746519  
     463A      5.793337   464A      5.805315   465A      5.860015  
     466A      5.888705   467A      5.904821   468A      5.994765  
     469A      6.030908   470A      6.071278   471A      6.155861  
     472A      6.178882   473A      6.204007   474A      6.217237  
     475A      6.230819   476A      6.262776   477A      6.289251  
     478A      6.307156   479A      6.360747   480A      6.582963  
     481A      6.658977   482A      6.728372   483A      6.745053  
     484A      6.793695   485A      6.816330   486A      6.839650  
     487A      6.868906   488A      6.918040   489A      6.991946  
     490A      7.035703   491A      7.143028   492A      7.341247  
     493A      7.372159   494A      7.539144   495A      7.580449  
     496A      7.694468   497A      7.855402   498A      8.019072  
     499A      8.298064   500A      8.603515   501A     16.480671  
     502A     17.193966   503A     17.849539   504A     18.605154  
     505A     18.995154   506A     20.374875  

    Final Occupation by Irrep:
              A 
    DOCC [    24 ]

  @DF-RHF Final Energy:  -270.10048717163090

   => Energetics <=

    Nuclear Repulsion Energy =            245.1847055785160876
    One-Electron Energy =                -852.1890614767139596
    Two-Electron Energy =                 336.9038687265669978
    Total Energy =                       -270.1004871716309026

Computation Completed

*** tstop() called on node37.bme.utexas.edu at Mon Nov  2 22:12:08 2020
Module time:
	user time   =     160.08 seconds =       2.67 minutes
	system time =      36.16 seconds =       0.60 minutes
	total time  =         45 seconds =       0.75 minutes
Total time:
	user time   =     160.08 seconds =       2.67 minutes
	system time =      36.16 seconds =       0.60 minutes
	total time  =         45 seconds =       0.75 minutes
   => Loading Basis Set <=

    Name: (AUG-CC-PVTZ AUX)
    Role: RIFIT
    Keyword: DF_BASIS_MP2
    atoms 1    entry O          line   264 file /home/xy3866/psi4conda/share/psi4/basis/aug-cc-pvtz-ri.gbs 
    atoms 2-6  entry C          line   148 file /home/xy3866/psi4conda/share/psi4/basis/aug-cc-pvtz-ri.gbs 
    atoms 7-16 entry H          line    30 file /home/xy3866/psi4conda/share/psi4/basis/aug-cc-pvtz-ri.gbs 


*** tstart() called on node37.bme.utexas.edu
*** at Mon Nov  2 22:12:08 2020


  //>>>>>>>>>>>>>>>>>>>>>>>>>>>>>>>>>>>//
  //               DFMP2               //
  //<<<<<<<<<<<<<<<<<<<<<<<<<<<<<<<<<<<//

	 --------------------------------------------------------
	                          DF-MP2                         
	      2nd-Order Density-Fitted Moller-Plesset Theory     
	              RMP2 Wavefunction,   8 Threads             
	                                                         
	        Rob Parrish, Justin Turney, Andy Simmonett,      
	           Ed Hohenstein, and C. David Sherrill          
	 --------------------------------------------------------

   => Auxiliary Basis Set <=

  Basis Set: (AUG-CC-PVTZ AUX)
    Blend: AUG-CC-PVTZ-RI
    Number of shells: 308
    Number of basis function: 1096
    Number of Cartesian functions: 1366
    Spherical Harmonics?: true
    Max angular momentum: 4

	 --------------------------------------------------------
	                 NBF =   506, NAUX =  1096
	 --------------------------------------------------------
	   CLASS    FOCC     OCC    AOCC    AVIR     VIR    FVIR
	   PAIRS       0      24      24     482     482       0
	 --------------------------------------------------------

  DFHelper Memory: AOs need 2.107 GiB; user supplied 22.352 GiB. Using in-core AOs.


         ------------------------------------------------------------
                                     CPHF                           
                                  Rob Parrish                       
         ------------------------------------------------------------

  ==> Geometry <==

    Molecular point group: c1
    Full point group: C1

    Geometry (in Angstrom), charge = 0, multiplicity = 1:

       Center              X                  Y                   Z               Mass       
    ------------   -----------------  -----------------  -----------------  -----------------
         O           -1.256980136308    -0.364002261074     1.140624466495    15.994914619570
         C           -0.638595036308    -0.482930861074    -0.164415633505    12.000000000000
         C            0.802196863692    -0.042736261074    -0.083451533505    12.000000000000
         C           -1.485661136308     0.410382738926    -1.073577533505    12.000000000000
         C            1.119383963692     1.348692538926     0.384769866495    12.000000000000
         C            1.767372863692    -0.918267261074    -0.397316533505    12.000000000000
         H           -0.689341136308    -1.500620261074    -0.512137533505     1.007825032230
         H           -1.075107136308     0.409857738926    -2.086986533505     1.007825032230
         H           -2.509124136308     0.029649738926    -1.102377533505     1.007825032230
         H           -1.513524136308     1.434179738926    -0.697368533505     1.007825032230
         H            0.556308863692     1.555253738926     1.320970466495     1.007825032230
         H            2.165488863692     1.496401738926     0.554516466495     1.007825032230
         H            0.760686863692     2.098077738926    -0.343770533505     1.007825032230
         H            1.533129863692    -1.920542261074    -0.743347533505     1.007825032230
         H            2.819171863692    -0.654571261074    -0.347678533505     1.007825032230
         H           -0.729088136308    -0.923035261074     1.739248466495     1.007825032230

  Nuclear repulsion =  245.184705578516116
  Reference energy  = -270.100487171630903

  ==> Basis Set <==

  Basis Set: AUG-CC-PVTZ
    Blend: AUG-CC-PVTZ
    Number of shells: 174
    Number of basis function: 506
    Number of Cartesian functions: 580
    Spherical Harmonics?: true
    Max angular momentum: 3

  ==> CGRSolver (by Rob Parrish) <==

   Number of roots    =         1
   Preconditioning    =    JACOBI
   Convergence cutoff =     1E-06
   Maximum iterations =       100

  ==> CPHFRHamiltonian (by Rob Parrish) <== 

  ==> MemDFJK: Density-Fitted J/K Matrices <==

    J tasked:                   Yes
    K tasked:                   Yes
    wK tasked:                   No
    OpenMP threads:               8
    Memory [MiB]:             22888
    Algorithm:                 Disk
    Schwarz Cutoff:           1E-12
    Mask sparsity (%):       1.7505
    Fitting Condition:        1E-10

   => Auxiliary Basis Set <=

  Basis Set: (AUG-CC-PVTZ AUX)
    Blend: AUG-CC-PVTZ-JKFIT
    Number of shells: 320
    Number of basis function: 1084
    Number of Cartesian functions: 1336
    Spherical Harmonics?: true
    Max angular momentum: 4

  ==> CPHF Iterations <==

  => Iterations <=

             Iter  Converged  Remaining    Residual
  CGR           1          0          1   8.351E-02
  CGR           2          0          1   2.106E-02
  CGR           3          0          1   7.449E-03
  CGR           4          0          1   2.381E-03
  CGR           5          0          1   7.304E-04
  CGR           6          0          1   2.842E-04
  CGR           7          0          1   9.385E-05
  CGR           8          0          1   2.877E-05
  CGR           9          0          1   7.613E-06
  CGR          10          0          1   2.080E-06
  CGR          11          1          0   5.110E-07

    CGRSolver converged.

	-----------------------------------------------------------
	 ==================> DF-MP2 Energies <==================== 
	-----------------------------------------------------------
	 Reference Energy          =    -270.1004871716309026 [Eh]
	 Singles Energy            =      -0.0000000000000000 [Eh]
	 Same-Spin Energy          =      -0.2756181195628838 [Eh]
	 Opposite-Spin Energy      =      -0.9507502568830121 [Eh]
	 Correlation Energy        =      -1.2263683764458959 [Eh]
	 Total Energy              =    -271.3268555480768214 [Eh]
	-----------------------------------------------------------
	 ================> DF-SCS-MP2 Energies <================== 
	-----------------------------------------------------------
	 SCS Same-Spin Scale       =       0.3333333333333333 [-]
	 SCS Opposite-Spin Scale   =       1.2000000000000000 [-]
	 SCS Same-Spin Energy      =      -0.0918727065209613 [Eh]
	 SCS Opposite-Spin Energy  =      -1.1409003082596145 [Eh]
	 SCS Correlation Energy    =      -1.2327730147805758 [Eh]
	 SCS Total Energy          =    -271.3332601864114508 [Eh]
	-----------------------------------------------------------



Properties will be evaluated at  -0.000000,   0.000000,   0.000000 [a0]

Properties computed using the MP2 density matrix

  Nuclear Dipole Moment: [e a0]
     X:     1.2301      Y:     1.8963      Z:    -2.0747

  Electronic Dipole Moment: [e a0]
     X:    -0.7849      Y:    -2.0780      Z:     1.9168

  Dipole Moment: [e a0]
     X:     0.4453      Y:    -0.1817      Z:    -0.1579     Total:     0.5061

  Dipole Moment: [D]
     X:     1.1317      Y:    -0.4618      Z:    -0.4013     Total:     1.2865


*** tstop() called on node37.bme.utexas.edu at Mon Nov  2 22:13:30 2020
Module time:
	user time   =     382.82 seconds =       6.38 minutes
	system time =      42.01 seconds =       0.70 minutes
	total time  =         82 seconds =       1.37 minutes
Total time:
	user time   =     543.07 seconds =       9.05 minutes
	system time =      78.17 seconds =       1.30 minutes
	total time  =        127 seconds =       2.12 minutes

    Psi4 stopped on: Monday, 02 November 2020 10:13PM
    Psi4 wall time for execution: 0:02:06.34

*** Psi4 exiting successfully. Buy a developer a beer!
