9255                                                                    
Freq      RMP2-FC                                                     6-31G(d)            
Number of atoms                            I                8
Info1-9                                    I   N=           9
          20          18        1002           0           0         100
           6           2           1
Charge                                     I                0
Multiplicity                               I                1
Number of electrons                        I               36
Number of alpha electrons                  I               18
Number of beta electrons                   I               18
Number of basis functions                  I               81
Number of independent functions            I               81
Number of point charges in /Mol/           I                0
Number of translation vectors              I                0
Atomic numbers                             I   N=           8
           8           7           6           6           6           1
           1           1
Nuclear charges                            R   N=           8
  8.00000000E+00  7.00000000E+00  6.00000000E+00  6.00000000E+00  6.00000000E+00
  1.00000000E+00  1.00000000E+00  1.00000000E+00
Current cartesian coordinates              R   N=          24
 -7.05426121E-01 -2.05511001E+00  4.25588510E-05 -7.45486753E-01  2.18938743E+00
 -8.23652100E-05  1.75415407E+00 -1.24083482E+00  6.38140553E-05  1.73743903E+00
  1.33206112E+00 -5.98184656E-05 -2.08069369E+00  1.19287036E-01  2.85357280E-05
  3.19045631E+00 -2.68640920E+00  1.20976253E-04  3.31756180E+00  2.62453393E+00
 -1.20593788E-04 -4.11159831E+00 -8.60366644E-02  4.05152910E-05
Force Field                                I                0
Int Atom Types                             I   N=           8
           0           0           0           0           0           0
           0           0
MM charges                                 R   N=           8
  0.00000000E+00  0.00000000E+00  0.00000000E+00  0.00000000E+00  0.00000000E+00
  0.00000000E+00  0.00000000E+00  0.00000000E+00
Integer atomic weights                     I   N=           8
          16          14          12          12          12           1
           1           1
Real atomic weights                        R   N=           8
  1.59949146E+01  1.40030740E+01  1.20000000E+01  1.20000000E+01  1.20000000E+01
  1.00782504E+00  1.00782504E+00  1.00782504E+00
Atom fragment info                         I   N=           8
           0           0           0           0           0           0
           0           0
Atom residue num                           I   N=           8
           0           0           0           0           0           0
           0           0
Nuclear spins                              I   N=           8
           0           2           0           0           0           1
           1           1
Nuclear ZEff                               R   N=           8
 -5.60000000E+00 -4.55000000E+00 -3.60000000E+00 -3.60000000E+00 -3.60000000E+00
 -1.00000000E+00 -1.00000000E+00 -1.00000000E+00
Nuclear QMom                               R   N=           8
  0.00000000E+00  2.04400000E+00  0.00000000E+00  0.00000000E+00  0.00000000E+00
  0.00000000E+00  0.00000000E+00  0.00000000E+00
Nuclear GFac                               R   N=           8
  0.00000000E+00  4.03761000E-01  0.00000000E+00  0.00000000E+00  0.00000000E+00
  2.79284600E+00  2.79284600E+00  2.79284600E+00
MicOpt                                     I   N=           8
          -1          -1          -1          -1          -1          -1
          -1          -1
Number of contracted shells                I               26
Number of primitive shells                 I               67
Pure/Cartesian d shells                    I                1
Pure/Cartesian f shells                    I                0
Highest angular momentum                   I                2
Largest degree of contraction              I                6
Shell types                                I   N=          26
           0          -1          -1           2           0          -1
          -1           2           0          -1          -1           2
           0          -1          -1           2           0          -1
          -1           2           0           0           0           0
           0           0
Number of primitives per shell             I   N=          26
           6           3           1           1           6           3
           1           1           6           3           1           1
           6           3           1           1           6           3
           1           1           3           1           3           1
           3           1
Shell to atom map                          I   N=          26
           1           1           1           1           2           2
           2           2           3           3           3           3
           4           4           4           4           5           5
           5           5           6           6           7           7
           8           8
Primitive exponents                        R   N=          67
  5.48467166E+03  8.25234946E+02  1.88046958E+02  5.29645000E+01  1.68975704E+01
  5.79963534E+00  1.55396162E+01  3.59993359E+00  1.01376175E+00  2.70005823E-01
  8.00000000E-01  4.17351146E+03  6.27457911E+02  1.42902093E+02  4.02343293E+01
  1.28202129E+01  4.39043701E+00  1.16263619E+01  2.71627981E+00  7.72218397E-01
  2.12031498E-01  8.00000000E-01  3.04752488E+03  4.57369518E+02  1.03948685E+02
  2.92101553E+01  9.28666296E+00  3.16392696E+00  7.86827235E+00  1.88128854E+00
  5.44249258E-01  1.68714478E-01  8.00000000E-01  3.04752488E+03  4.57369518E+02
  1.03948685E+02  2.92101553E+01  9.28666296E+00  3.16392696E+00  7.86827235E+00
  1.88128854E+00  5.44249258E-01  1.68714478E-01  8.00000000E-01  3.04752488E+03
  4.57369518E+02  1.03948685E+02  2.92101553E+01  9.28666296E+00  3.16392696E+00
  7.86827235E+00  1.88128854E+00  5.44249258E-01  1.68714478E-01  8.00000000E-01
  1.87311370E+01  2.82539436E+00  6.40121692E-01  1.61277759E-01  1.87311370E+01
  2.82539436E+00  6.40121692E-01  1.61277759E-01  1.87311370E+01  2.82539436E+00
  6.40121692E-01  1.61277759E-01
Contraction coefficients                   R   N=          67
  1.83107443E-03  1.39501722E-02  6.84450781E-02  2.32714336E-01  4.70192898E-01
  3.58520853E-01 -1.10777550E-01 -1.48026263E-01  1.13076702E+00  1.00000000E+00
  1.00000000E+00  1.83477216E-03  1.39946270E-02  6.85865518E-02  2.32240873E-01
  4.69069948E-01  3.60455199E-01 -1.14961182E-01 -1.69117479E-01  1.14585195E+00
  1.00000000E+00  1.00000000E+00  1.83473713E-03  1.40373228E-02  6.88426223E-02
  2.32184443E-01  4.67941348E-01  3.62311985E-01 -1.19332420E-01 -1.60854152E-01
  1.14345644E+00  1.00000000E+00  1.00000000E+00  1.83473713E-03  1.40373228E-02
  6.88426223E-02  2.32184443E-01  4.67941348E-01  3.62311985E-01 -1.19332420E-01
 -1.60854152E-01  1.14345644E+00  1.00000000E+00  1.00000000E+00  1.83473713E-03
  1.40373228E-02  6.88426223E-02  2.32184443E-01  4.67941348E-01  3.62311985E-01
 -1.19332420E-01 -1.60854152E-01  1.14345644E+00  1.00000000E+00  1.00000000E+00
  3.34946043E-02  2.34726953E-01  8.13757326E-01  1.00000000E+00  3.34946043E-02
  2.34726953E-01  8.13757326E-01  1.00000000E+00  3.34946043E-02  2.34726953E-01
  8.13757326E-01  1.00000000E+00
P(S=P) Contraction coefficients            R   N=          67
  0.00000000E+00  0.00000000E+00  0.00000000E+00  0.00000000E+00  0.00000000E+00
  0.00000000E+00  7.08742682E-02  3.39752839E-01  7.27158577E-01  1.00000000E+00
  0.00000000E+00  0.00000000E+00  0.00000000E+00  0.00000000E+00  0.00000000E+00
  0.00000000E+00  0.00000000E+00  6.75797439E-02  3.23907296E-01  7.40895140E-01
  1.00000000E+00  0.00000000E+00  0.00000000E+00  0.00000000E+00  0.00000000E+00
  0.00000000E+00  0.00000000E+00  0.00000000E+00  6.89990666E-02  3.16423961E-01
  7.44308291E-01  1.00000000E+00  0.00000000E+00  0.00000000E+00  0.00000000E+00
  0.00000000E+00  0.00000000E+00  0.00000000E+00  0.00000000E+00  6.89990666E-02
  3.16423961E-01  7.44308291E-01  1.00000000E+00  0.00000000E+00  0.00000000E+00
  0.00000000E+00  0.00000000E+00  0.00000000E+00  0.00000000E+00  0.00000000E+00
  6.89990666E-02  3.16423961E-01  7.44308291E-01  1.00000000E+00  0.00000000E+00
  0.00000000E+00  0.00000000E+00  0.00000000E+00  0.00000000E+00  0.00000000E+00
  0.00000000E+00  0.00000000E+00  0.00000000E+00  0.00000000E+00  0.00000000E+00
  0.00000000E+00  0.00000000E+00
Coordinates of each shell                  R   N=          78
 -7.05426121E-01 -2.05511001E+00  4.25588510E-05 -7.05426121E-01 -2.05511001E+00
  4.25588510E-05 -7.05426121E-01 -2.05511001E+00  4.25588510E-05 -7.05426121E-01
 -2.05511001E+00  4.25588510E-05 -7.45486753E-01  2.18938743E+00 -8.23652100E-05
 -7.45486753E-01  2.18938743E+00 -8.23652100E-05 -7.45486753E-01  2.18938743E+00
 -8.23652100E-05 -7.45486753E-01  2.18938743E+00 -8.23652100E-05  1.75415407E+00
 -1.24083482E+00  6.38140553E-05  1.75415407E+00 -1.24083482E+00  6.38140553E-05
  1.75415407E+00 -1.24083482E+00  6.38140553E-05  1.75415407E+00 -1.24083482E+00
  6.38140553E-05  1.73743903E+00  1.33206112E+00 -5.98184656E-05  1.73743903E+00
  1.33206112E+00 -5.98184656E-05  1.73743903E+00  1.33206112E+00 -5.98184656E-05
  1.73743903E+00  1.33206112E+00 -5.98184656E-05 -2.08069369E+00  1.19287036E-01
  2.85357280E-05 -2.08069369E+00  1.19287036E-01  2.85357280E-05 -2.08069369E+00
  1.19287036E-01  2.85357280E-05 -2.08069369E+00  1.19287036E-01  2.85357280E-05
  3.19045631E+00 -2.68640920E+00  1.20976253E-04  3.19045631E+00 -2.68640920E+00
  1.20976253E-04  3.31756180E+00  2.62453393E+00 -1.20593788E-04  3.31756180E+00
  2.62453393E+00 -1.20593788E-04 -4.11159831E+00 -8.60366644E-02  4.05152910E-05
 -4.11159831E+00 -8.60366644E-02  4.05152910E-05
Constraint Structure                       R   N=          24
 -7.05426121E-01 -2.05511001E+00  4.25588510E-05 -7.45486753E-01  2.18938743E+00
 -8.23652100E-05  1.75415407E+00 -1.24083482E+00  6.38140553E-05  1.73743903E+00
  1.33206112E+00 -5.98184656E-05 -2.08069369E+00  1.19287036E-01  2.85357280E-05
  3.19045631E+00 -2.68640920E+00  1.20976253E-04  3.31756180E+00  2.62453393E+00
 -1.20593788E-04 -4.11159831E+00 -8.60366644E-02  4.05152910E-05
Num ILSW                                   I              100
ILSW                                       I   N=         100
           0           1           0           0           2           0
           0           0           0           0           0          -1
           0           0           0           0           0           0
           0           0           0           0           1           0
           1           0           0           0           0           0
           0           0      100000           0          -1           0
           0           0           0           0           0           0
           0           0           0           1           1           0
           0           0           1           0           0           0
           0           0           4          40           0           0
           0           0           0           0           0           0
           0           0           0           0           0           0
           0           0           0           0           0           0
           0           0           0           0           0           0
           0           0           0           0           0           0
           0           0           0           0           0           0
           0           0           0           0
Num RLSW                                   I               40
RLSW                                       R   N=          40
  1.00000000E+00  1.00000000E+00  1.00000000E+00  1.00000000E+00  1.00000000E+00
  0.00000000E+00  0.00000000E+00  1.00000000E+00  0.00000000E+00  0.00000000E+00
  0.00000000E+00  0.00000000E+00  1.00000000E+00  0.00000000E+00  0.00000000E+00
  0.00000000E+00  0.00000000E+00  1.00000000E+00  0.00000000E+00  0.00000000E+00
  0.00000000E+00  0.00000000E+00  1.00000000E+00  0.00000000E+00  0.00000000E+00
  0.00000000E+00  0.00000000E+00  1.00000000E+00  0.00000000E+00  0.00000000E+00
  0.00000000E+00  0.00000000E+00  0.00000000E+00  0.00000000E+00  0.00000000E+00
  0.00000000E+00  0.00000000E+00  0.00000000E+00  1.00000000E+00  1.00000000E+00
MxBond                                     I                3
NBond                                      I   N=           8
           2           2           3           3           3           1
           1           1
IBond                                      I   N=          24
           3           5           0           4           5           0
           1           4           6           2           3           7
           1           2           8           3           0           0
           4           0           0           5           0           0
RBond                                      R   N=          24
  1.50000000E+00  1.50000000E+00  0.00000000E+00  1.00000000E+00  1.50000000E+00
  0.00000000E+00  1.50000000E+00  1.50000000E+00  1.00000000E+00  1.00000000E+00
  1.50000000E+00  1.00000000E+00  1.50000000E+00  1.50000000E+00  1.00000000E+00
  1.00000000E+00  0.00000000E+00  0.00000000E+00  1.00000000E+00  0.00000000E+00
  0.00000000E+00  1.00000000E+00  0.00000000E+00  0.00000000E+00
Virial Ratio                               R      2.003119967584261E+00
SCF Energy                                 R     -2.446286170644297E+02
MP2 Energy                                 R     -2.453496991228156E+02
Total Energy                               R     -2.453496991228156E+02
Post-SCF wavefunction norm                 R      1.575073286298152E+00
RMS Force                                  R      2.664315332155436E-06
RMS Density                                R      6.181770045735797E-10
External E-field                           R   N=          35
  0.00000000E+00  0.00000000E+00  0.00000000E+00  0.00000000E+00  0.00000000E+00
  0.00000000E+00  0.00000000E+00  0.00000000E+00  0.00000000E+00  0.00000000E+00
  0.00000000E+00  0.00000000E+00  0.00000000E+00  0.00000000E+00  0.00000000E+00
  0.00000000E+00  0.00000000E+00  0.00000000E+00  0.00000000E+00  0.00000000E+00
  0.00000000E+00  0.00000000E+00  0.00000000E+00  0.00000000E+00  0.00000000E+00
  0.00000000E+00  0.00000000E+00  0.00000000E+00  0.00000000E+00  0.00000000E+00
  0.00000000E+00  0.00000000E+00  0.00000000E+00  0.00000000E+00  0.00000000E+00
IOpCl                                      I                0
IROHF                                      I                0
Alpha Orbital Energies                     R   N=          81
 -2.06514384E+01 -1.55751922E+01 -1.13406017E+01 -1.13006094E+01 -1.12671451E+01
 -1.48515952E+00 -1.23170878E+00 -1.03162464E+00 -8.39073332E-01 -8.19405344E-01
 -7.49529953E-01 -6.54099606E-01 -6.27051178E-01 -5.93090010E-01 -5.77728655E-01
 -4.62636723E-01 -4.50621233E-01 -3.42915969E-01  1.52974563E-01  2.25582620E-01
  2.64923862E-01  2.84219036E-01  2.93086614E-01  3.40837598E-01  3.77561352E-01
  4.71251075E-01  5.03717848E-01  6.39391811E-01  6.94718121E-01  7.38556946E-01
  7.85347066E-01  8.09901033E-01  8.29570982E-01  8.55601422E-01  8.56055035E-01
  8.93051296E-01  9.25498311E-01  1.02302540E+00  1.03315281E+00  1.07979899E+00
  1.08536430E+00  1.12437160E+00  1.19085933E+00  1.21399768E+00  1.24965943E+00
  1.25420206E+00  1.30276752E+00  1.46674868E+00  1.59196944E+00  1.62173134E+00
  1.63247023E+00  1.64595903E+00  1.74818663E+00  1.83512805E+00  1.83517048E+00
  1.85020268E+00  1.91571977E+00  2.14113420E+00  2.22597586E+00  2.32203899E+00
  2.37440763E+00  2.45395457E+00  2.51459560E+00  2.56941702E+00  2.57466593E+00
  2.60211364E+00  2.70396379E+00  2.72500420E+00  2.89870857E+00  2.93550575E+00
  2.95779655E+00  3.05946752E+00  3.17150733E+00  3.26972839E+00  3.29816944E+00
  3.45647812E+00  4.35909975E+00  4.37053747E+00  4.54831836E+00  4.61579720E+00
  4.76675401E+00
Alpha MO coefficients                      R   N=        6561
  9.94671272E-01  2.11748868E-02  4.31544077E-04  1.23416953E-03  4.03820626E-09
  3.82393105E-03 -2.94605469E-04 -7.02670499E-04  4.56332482E-09 -4.07856580E-03
 -4.00768715E-03 -3.91847315E-03  1.69582467E-05 -3.08903226E-09 -5.33869198E-09
 -1.91054357E-06 -7.77466115E-07 -5.36481548E-06  6.35685264E-05 -1.24273821E-09
 -1.97180009E-04  1.91918289E-04  5.18039717E-05 -7.28191283E-09  2.06672566E-05
 -5.55523962E-05 -2.17593046E-05 -2.35335581E-05  3.37900611E-10  2.14327147E-09
 -6.39932994E-06  3.34809694E-04 -3.46603604E-04 -1.27427623E-04 -2.10018461E-09
  3.85917766E-04 -8.69158256E-05  6.89086312E-04 -2.39380340E-08 -5.12542967E-05
  2.34608013E-07 -5.82992152E-05  6.02197005E-06 -3.43772829E-11 -4.14660007E-09
  7.75040148E-06  3.62178918E-05  2.80883117E-05  5.74444101E-05 -1.63057132E-09
 -8.25878789E-04  1.43595653E-04  3.25519916E-04 -2.00678200E-08  6.64171891E-07
 -5.22446695E-05  2.85988246E-07 -4.53086464E-06  8.69522076E-10  3.57702130E-09
  1.62514032E-06  3.86898077E-04  1.93977102E-04 -3.06379620E-04  2.87163281E-09
  1.66212719E-05  2.39077467E-04  4.52627018E-04 -1.30403352E-08 -4.31983015E-05
 -2.90772928E-05 -4.13245467E-05  3.81721484E-05 -2.16056975E-09 -3.23936077E-09
  3.55440506E-05  1.81074635E-04  1.34545933E-05 -5.59629036E-05  2.56290666E-05
  9.55264764E-05 -7.43390609E-06 -1.11725454E-04  7.25509901E-06 -6.62718857E-05
  1.04545750E-09  2.06336341E-04  2.43660284E-04 -3.23508222E-05  5.92533926E-09
  9.48168284E-06 -3.82170445E-05 -1.17015177E-04  3.59107774E-05 -4.51850502E-09
 -2.23562058E-09  9.95214019E-01  2.47396409E-02  5.32044357E-04 -2.04800391E-03
  9.15772368E-08 -5.06594220E-03 -9.40267484E-04  2.30526420E-03 -9.90424280E-08
 -2.83358044E-03 -2.66316311E-03 -3.17823672E-03  1.38927845E-04 -8.16413859E-09
 -2.37935705E-08  2.03801551E-05  1.81691222E-05 -1.20324829E-05 -5.29079071E-05
  5.14704362E-09 -1.91809293E-03  9.34710231E-04 -9.67140221E-04  4.40379191E-08
  4.25465570E-05  1.95956252E-05  3.05355245E-05 -3.65704892E-05 -1.52504060E-09
 -4.48134875E-10  4.03982419E-06  3.52502515E-04 -1.36351601E-04  6.36830466E-05
 -2.21817015E-09  3.34435147E-03 -1.59350297E-03 -8.94541574E-04  5.09346106E-08
 -4.36243403E-04 -9.36962230E-05 -1.00064209E-04  1.14282106E-04 -2.35618848E-09
 -1.80560077E-09  4.10454399E-05  4.03433563E-04 -4.81143920E-05 -8.93703793E-06
  1.97742867E-09  2.32003439E-03  1.32069531E-03  4.54357005E-04 -3.87865249E-08
 -2.83773465E-04 -4.50041065E-04 -2.16336206E-05 -3.28633131E-04  1.76008803E-08
  2.99341829E-08 -5.56627020E-05 -3.63719038E-04  2.05106775E-05  3.49672600E-04
  5.56884834E-05  2.52425871E-04 -5.63614373E-05  8.35337459E-04 -6.35067266E-05
  2.38268805E-04 -9.34835406E-10 -2.55250879E-03  2.15319394E-04 -2.04312134E-03
  4.52879429E-09  2.66753149E-05 -4.14841340E-04  6.23618058E-04  3.37241508E-04
 -1.44143122E-09  4.74615808E-09 -3.54903668E-04  2.91799317E-04  2.52629239E-06
 -2.73072739E-05  6.82124965E-11 -7.27962854E-04 -8.51424667E-04  8.74336031E-04
 -3.83091379E-08 -1.59901288E-04 -2.33908313E-04  2.14067584E-04  1.45788086E-04
 -1.04921806E-09  2.54561095E-08 -5.17657888E-04 -1.88472435E-04 -2.01982204E-04
 -1.14113207E-04 -1.29116186E-09  1.23939808E-03 -1.02793726E-03  1.38769123E-03
 -4.38721296E-08  2.41055330E-04  2.10904729E-05 -4.50996693E-05 -4.72875348E-05
  1.40851842E-09 -7.41140447E-09 -1.34608538E-04 -6.39979544E-05 -1.97122270E-04
  1.63268417E-04 -3.24744678E-09 -2.68306519E-04 -6.92117922E-04  2.73967957E-04
 -2.60375339E-08  2.40678416E-04 -3.19119331E-05  1.36283200E-06 -4.75770791E-05
  3.47896133E-09  5.80761514E-09  9.95704615E-01  2.64806000E-02  1.02076289E-03
 -9.70552559E-04 -1.48601945E-08 -5.90426358E-03  1.11259803E-03 -3.17966028E-04
  5.05856657E-09 -1.34811847E-03 -1.31329086E-03 -2.44924446E-03 -2.44329696E-05
 -2.64067117E-08 -3.60122288E-08  9.15043070E-05  6.85882357E-04  4.07369476E-05
  2.23004180E-04 -2.69470759E-04  2.09437574E-03 -4.99371324E-05  8.46333282E-04
  2.35235362E-04  1.09437403E-04  2.41029078E-09 -2.48995530E-03 -1.42655490E-03
 -1.43056956E-03 -1.20289343E-08 -4.88506403E-04  2.35319275E-05  6.20924428E-04
 -3.15794483E-04 -1.69732421E-08  3.09827116E-09  9.49017819E-05  3.00163316E-04
  6.33655680E-05 -3.93158119E-05  4.72733606E-09 -3.60531305E-03  3.16054665E-04
  1.50566008E-03 -9.05112245E-08  2.70817594E-04  1.46538539E-04  2.22856910E-04
 -1.29229678E-04  5.75585231E-09  9.69504623E-09  9.95466374E-01  2.69861103E-02
 -1.57004047E-03 -4.16150520E-04 -2.68537305E-08 -9.05545117E-03 -2.08076471E-04
 -1.41852650E-03  6.64894667E-08 -1.29908847E-03 -1.46766965E-03 -2.33639502E-03
 -6.33556723E-05  2.27657525E-08 -4.10817252E-08  2.12625056E-02  4.45729627E-04
 -3.38593127E-05  1.98380102E-04 -7.76353092E-09  3.76226077E-03  4.22130916E-04
 -1.49407532E-03  6.30462289E-08 -3.19028380E-04 -2.85957739E-04 -8.95238399E-05
 -9.83904483E-05  6.46052614E-09  1.35325944E-08  5.04694064E-04 -2.08641252E-04
  9.59484813E-05 -5.60368837E-05 -7.99045251E-09  3.06743171E-03  3.19093864E-03
  9.57179164E-04 -5.16127552E-08  2.22013270E-04  1.29912810E-04 -9.40996292E-05
 -8.70528395E-05 -4.33343293E-09 -1.18339588E-08 -3.67900442E-04  1.60414552E-03
 -9.84173110E-05 -2.07494868E-04  1.44793489E-04  1.17881213E-03  1.04619704E-04
  3.65492581E-04  3.92483198E-05  8.32027556E-05  1.65385601E-09 -2.45587597E-03
  1.45791746E-05 -8.17327422E-04  1.48940732E-09  3.47904596E-04  2.40535879E-04
  2.76518622E-04  1.17942670E-04 -2.98355457E-09 -6.48734821E-09 -2.07291519E-04
  4.03051590E-04  4.94143778E-05  5.66177573E-05 -4.21701838E-09 -5.94460356E-04
 -1.40643227E-04  9.33884940E-04 -3.80378185E-08 -4.75532839E-04 -2.67174396E-04
  2.16373790E-04  1.52869508E-04 -2.83731442E-09  2.60563186E-08 -2.18011613E-02
 -7.00469054E-04  3.86740641E-06 -2.00944537E-04  1.31142258E-08  4.54114374E-03
 -9.15436677E-07  1.66041952E-03 -8.91966518E-08 -2.38554056E-04 -3.17736093E-04
 -1.01142954E-06  5.99535602E-05 -3.52335386E-09  1.49591593E-08  9.95404490E-01
  2.73979945E-02 -7.30115265E-04 -7.02946086E-05  2.16187804E-08 -1.05523690E-02
  3.14405245E-04  1.54673963E-03 -8.96926406E-08 -1.60766170E-03 -1.62621429E-03
 -2.43368266E-03  7.08510994E-05 -6.89155027E-09 -3.81083525E-08  1.22382267E-04
 -1.44851430E-04  8.98347090E-05 -8.83498227E-06 -5.46868171E-09  2.00281450E-03
  2.17419065E-03  9.30592807E-06 -3.60501485E-08  1.37979016E-04  1.46728746E-04
 -6.72795778E-05  4.35826260E-05 -1.00431001E-08 -8.32309563E-09 -6.93903935E-05
 -1.36322325E-04 -2.89802260E-04  1.61237710E-03  9.03780904E-05  8.05335302E-04
 -1.86761295E-01  4.18512328E-01  2.87244329E-02  9.61435860E-02 -4.58990148E-07
  3.98971950E-01  1.88587114E-02  5.96816485E-02 -2.10214018E-07  1.20096756E-02
  1.46903025E-02 -3.86358175E-03  1.74946239E-04  1.64061327E-07 -5.14958807E-08
 -4.09599354E-02  8.32845938E-02  3.97967117E-03 -4.97793625E-02  1.98525708E-06
  7.25466998E-02  1.17759624E-03 -2.25294883E-02  9.15860934E-07 -5.86906279E-05
  6.60674108E-03 -3.36565292E-03  8.42392059E-04 -3.40675975E-08 -5.33256742E-07
 -6.73673718E-02  1.22039554E-01 -9.43826934E-02 -7.16983756E-03 -1.43690058E-06
  1.92696721E-02  1.69966443E-02 -1.07738721E-02  8.36204546E-07  2.15107731E-02
 -2.99550274E-03 -9.75115764E-03  6.38806165E-03  3.66282015E-07 -1.28820371E-07
 -3.13043019E-02  5.71517510E-02 -3.07259325E-02 -2.61985118E-02  1.19879263E-06
  3.68425356E-02 -9.73619274E-03 -1.11280243E-02  5.65501684E-07  4.08233913E-03
  3.53332234E-03 -3.83514227E-03  5.67923299E-04 -1.10273614E-07 -4.05353807E-07
 -7.85721786E-02  1.46290766E-01  7.91466433E-02 -5.95364551E-02 -5.14439380E-07
  2.09595227E-02 -2.17010066E-02 -3.50258822E-04  6.58981921E-07  6.56156484E-03
  1.36467130E-02 -1.16829447E-02 -1.35255366E-02 -7.66134080E-08 -4.27899700E-07
  1.49932561E-02 -7.99473618E-03  5.33116913E-03  2.41693453E-03  1.78034567E-02
 -8.40390382E-03  8.47127383E-02 -1.96122134E-01 -1.60373242E-02  2.23749733E-02
 -1.53319187E-06 -2.07583108E-01 -1.30630533E-02  1.01590911E-02 -8.80669627E-07
 -7.51206784E-03  2.92024833E-03 -1.97177194E-03 -8.39563004E-04 -7.04437535E-08
 -1.73710371E-07 -1.67575240E-01  3.42791434E-01  2.70831744E-02 -1.17626338E-01
  5.32639000E-06  3.58094959E-01  2.47355396E-02 -6.01978294E-02  2.58785784E-06
  5.62709446E-03  7.31669118E-03 -1.30857457E-02 -9.96694141E-04 -1.52927237E-07
 -1.12932461E-06 -1.26859782E-03  3.17630991E-03  3.37664332E-02  7.28934867E-02
 -2.10702267E-06  1.78994624E-02 -1.52499403E-02  1.18535899E-02 -5.52619346E-07
 -1.08401406E-02  8.28064018E-03  1.05407939E-03 -7.53658211E-03  9.73425546E-09
 -4.86031678E-07 -8.74953737E-02  1.65863947E-01 -1.05286778E-01  1.61267194E-02
  1.38998177E-07  5.23224377E-02  1.76727812E-02  1.56049396E-04  5.45982419E-08
  2.22079377E-02 -2.53465470E-03 -9.89123076E-03 -3.99362156E-03 -4.69761024E-08
 -4.13971661E-07 -6.93572876E-02  1.39981101E-01  6.74874490E-02  1.59155453E-01
 -6.69756112E-06  3.74302403E-02 -1.48774338E-02  1.85523628E-03  3.01805818E-07
  6.65226087E-03  2.24365426E-03 -7.08707362E-03  2.63731145E-02 -1.10423555E-06
 -1.13291739E-06 -5.72072318E-03  3.11785183E-03  2.76582235E-02 -1.74383119E-03
  1.69295963E-02 -5.86078084E-03  2.16023798E-02 -5.35747513E-02  1.98695771E-01
 -4.06957844E-02  1.01264756E-06 -5.38670036E-02  1.03535567E-01 -1.87561976E-02
  5.38620676E-07  9.54211564E-03 -9.58318693E-03 -2.69901687E-03  1.83848867E-02
  2.13815439E-10  9.04189436E-08  3.03078134E-02 -6.58642777E-02  1.19402141E-01
  4.20316753E-02 -2.52648649E-06 -7.04422886E-02  2.82543858E-02  1.16403042E-02
 -3.68781921E-07  8.16591044E-03 -5.80917966E-03 -2.71468286E-04 -1.36506705E-02
  5.01009959E-07  3.30880207E-07 -1.41351153E-01  2.80182595E-01 -2.39715814E-03
  6.93692610E-02 -4.67285862E-06  1.90396521E-01  1.87070547E-02  1.25701151E-02
 -2.15208734E-07  1.47357801E-03  1.57342360E-02 -1.17369324E-02 -2.18815815E-03
  3.63488530E-07 -1.28116398E-06 -1.16119526E-01  2.27324755E-01  2.10691748E-02
 -9.69888471E-02  4.46880974E-06  1.75888533E-01 -4.15388801E-03 -1.30034900E-02
  4.40576963E-07 -3.03029859E-03  1.57255864E-02 -8.88563268E-03  3.24657702E-03
 -1.96885448E-07 -1.31307633E-06  1.08784459E-01 -2.23362577E-01  4.69728233E-03
  8.45151429E-03  2.24928208E-06 -1.49150386E-01  8.55974899E-03 -6.12646965E-03
  1.55236296E-07 -2.32490231E-04 -1.41618229E-02  1.10708784E-02 -1.09305231E-03
  3.64726537E-07  7.80075418E-07  8.17835050E-02  1.56440356E-02  6.36203837E-02
  1.40414080E-02 -7.84030359E-02 -1.71824714E-02 -1.25725888E-02  3.02190419E-02
  2.98244770E-01 -1.37080654E-01  3.09853714E-06  4.55155687E-02  1.69122269E-01
 -7.73957505E-02  1.83730627E-06  1.22071494E-02 -1.31209466E-02  1.16856342E-03
  1.52029885E-02  3.12808674E-07  1.23623055E-07 -6.80450311E-02  1.47502263E-01
 -1.10806656E-01 -2.67960767E-02  2.65409316E-06  1.71435113E-01 -5.41586215E-02
 -3.60783619E-03  1.11680053E-06 -6.14084203E-03  3.20522094E-03 -2.02873528E-03
  1.04268820E-02 -5.48096222E-07 -4.87307975E-07 -2.62041655E-02  5.17144740E-02
 -8.93269549E-02 -2.21767543E-01  6.45954791E-06  2.97240624E-02  9.37345708E-03
 -5.00863377E-02  1.93329682E-06  1.96687289E-02 -7.42766964E-03 -6.13234033E-03
  7.65419079E-03  4.58067366E-07  5.62008526E-07  1.08293715E-01 -2.15056090E-01
 -9.74496871E-02  1.93846200E-02 -1.18528441E-06 -1.96710433E-01 -5.36593340E-02
 -1.78124360E-03 -2.10686704E-07  6.81531413E-04 -1.09914402E-02  7.68138389E-03
 -9.81371703E-03  3.91439089E-07  1.15557273E-06  4.29245640E-02 -8.66408798E-02
  6.89502051E-02  2.35734340E-01 -7.15344947E-06 -7.42316780E-02  2.71999879E-02
  2.84296140E-02 -1.27910073E-06 -8.87962316E-03 -3.77583958E-03  5.32710342E-03
  1.75761002E-02 -3.63057199E-07 -6.82851569E-07  6.24729472E-02  2.36062114E-02
 -1.19742618E-01 -4.03496356E-02 -7.85605253E-02 -3.38831060E-02 -6.03140317E-02
  1.42301851E-01 -3.67727766E-02 -1.02056684E-01 -8.02912956E-07  1.97471886E-01
 -3.09116307E-02 -6.44770495E-02 -5.00718163E-07 -2.98892691E-03 -5.29578592E-03
  3.38073030E-03 -2.67743294E-03 -1.01388719E-07 -1.33038298E-07 -4.85989731E-02
  1.05699736E-01  2.22358230E-01  8.74784794E-02 -6.26240256E-06  1.54411456E-01
  9.00174973E-02  3.03272535E-02 -2.46302841E-06  1.21044411E-02 -1.06087357E-02
 -2.25638957E-03 -1.48211701E-02  5.32768090E-07  7.14341560E-07  1.03940413E-01
 -2.11945855E-01 -1.02669152E-01 -1.43922641E-02 -6.72495052E-07 -1.87308066E-01
 -5.75006773E-02  1.22818717E-02 -1.26976484E-06  7.90753107E-04 -1.09409515E-02
  6.65598857E-03  1.46261300E-02 -2.20152009E-07  9.68379015E-07 -3.84422695E-02
  8.12715053E-02 -1.04876586E-01  2.08656550E-01 -9.39527612E-06  5.07022425E-02
  6.86092711E-03  5.73505485E-02 -2.81765089E-06  1.89771779E-02 -8.26435182E-03
 -5.25180581E-03 -4.86806441E-03  1.82964500E-07  3.59882094E-07  1.03282243E-01
 -2.21811517E-01  1.08819858E-01 -7.15295388E-02  8.55412540E-07 -1.99717051E-01
  4.51479925E-02 -7.93480010E-03 -5.56540151E-07 -1.53364840E-02  4.63239915E-03
  7.58825130E-03 -6.63528861E-03  1.23792643E-07  5.01432242E-07 -1.24004525E-01
 -4.34052815E-02  5.61654931E-02  1.57922793E-02 -1.43169348E-01 -5.59354602E-02
  3.41636137E-02 -9.13447846E-02  5.74873708E-02  3.13092915E-01 -8.10885412E-06
 -9.38867921E-02  3.93163435E-02  1.97685941E-01 -4.85622562E-06 -1.38297872E-02
  1.92325061E-02 -1.16581278E-02  1.17716277E-02 -2.26073820E-07 -3.88317486E-07
  3.78282129E-02 -8.64568412E-02  8.01842863E-03 -1.40972899E-01  5.44095902E-06
 -1.27437689E-01  6.72888527E-03 -6.88879392E-02  2.49801985E-06 -1.07716540E-02
  1.66883588E-02 -4.10082676E-03 -6.53142733E-03  3.31733798E-07 -1.01434766E-06
  7.11652973E-03 -1.44736400E-02 -1.54462895E-01  1.74435625E-01 -7.55500449E-06