186148                                                                  
Freq      RMP2-FC                                                     6-31G(d)            
Number of atoms                            I               12
Info1-9                                    I   N=           9
          24          22        1002           0           0         100
           6           2           1
Charge                                     I                0
Multiplicity                               I                1
Number of electrons                        I               44
Number of alpha electrons                  I               22
Number of beta electrons                   I               22
Number of basis functions                  I              102
Number of independent functions            I              102
Number of point charges in /Mol/           I                0
Number of translation vectors              I                0
Atomic numbers                             I   N=          12
           8           6           6           6           6           6
           1           1           1           1           1           1
Nuclear charges                            R   N=          12
  8.00000000E+00  6.00000000E+00  6.00000000E+00  6.00000000E+00  6.00000000E+00
  6.00000000E+00  1.00000000E+00  1.00000000E+00  1.00000000E+00  1.00000000E+00
  1.00000000E+00  1.00000000E+00
Current cartesian coordinates              R   N=          36
  3.72846180E-01 -2.50114542E+00 -5.46563019E-01 -1.95484620E+00 -1.54854186E+00
  5.23057359E-01 -2.37619669E+00  1.15584205E+00 -2.08855157E-01 -3.37047377E-01
  2.68235060E+00 -1.30784870E-01  2.12741716E+00  1.55673470E+00  3.30756929E-01
  2.37659518E+00 -9.57838676E-01 -5.52710324E-02 -1.81798626E+00 -1.75101921E+00
  2.59260950E+00 -3.42310548E+00 -2.81412596E+00 -1.78919569E-01 -4.25000607E+00
  1.81869473E+00 -7.18291341E-01 -4.66672089E-01  4.68163585E+00 -5.84398597E-01
  3.79288363E+00  2.69818936E+00  6.75139203E-01  4.16658440E+00 -1.95549235E+00
 -1.67054417E-01
Force Field                                I                0
Int Atom Types                             I   N=          12
           0           0           0           0           0           0
           0           0           0           0           0           0
MM charges                                 R   N=          12
  0.00000000E+00  0.00000000E+00  0.00000000E+00  0.00000000E+00  0.00000000E+00
  0.00000000E+00  0.00000000E+00  0.00000000E+00  0.00000000E+00  0.00000000E+00
  0.00000000E+00  0.00000000E+00
Integer atomic weights                     I   N=          12
          16          12          12          12          12          12
           1           1           1           1           1           1
Real atomic weights                        R   N=          12
  1.59949146E+01  1.20000000E+01  1.20000000E+01  1.20000000E+01  1.20000000E+01
  1.20000000E+01  1.00782504E+00  1.00782504E+00  1.00782504E+00  1.00782504E+00
  1.00782504E+00  1.00782504E+00
Atom fragment info                         I   N=          12
           0           0           0           0           0           0
           0           0           0           0           0           0
Atom residue num                           I   N=          12
           0           0           0           0           0           0
           0           0           0           0           0           0
Nuclear spins                              I   N=          12
           0           0           0           0           0           0
           1           1           1           1           1           1
Nuclear ZEff                               R   N=          12
 -5.60000000E+00 -3.60000000E+00 -3.60000000E+00 -3.60000000E+00 -3.60000000E+00
 -3.60000000E+00 -1.00000000E+00 -1.00000000E+00 -1.00000000E+00 -1.00000000E+00
 -1.00000000E+00 -1.00000000E+00
Nuclear QMom                               R   N=          12
  0.00000000E+00  0.00000000E+00  0.00000000E+00  0.00000000E+00  0.00000000E+00
  0.00000000E+00  0.00000000E+00  0.00000000E+00  0.00000000E+00  0.00000000E+00
  0.00000000E+00  0.00000000E+00
Nuclear GFac                               R   N=          12
  0.00000000E+00  0.00000000E+00  0.00000000E+00  0.00000000E+00  0.00000000E+00
  0.00000000E+00  2.79284600E+00  2.79284600E+00  2.79284600E+00  2.79284600E+00
  2.79284600E+00  2.79284600E+00
MicOpt                                     I   N=          12
          -1          -1          -1          -1          -1          -1
          -1          -1          -1          -1          -1          -1
Number of contracted shells                I               36
Number of primitive shells                 I               90
Pure/Cartesian d shells                    I                1
Pure/Cartesian f shells                    I                0
Highest angular momentum                   I                2
Largest degree of contraction              I                6
Shell types                                I   N=          36
           0          -1          -1           2           0          -1
          -1           2           0          -1          -1           2
           0          -1          -1           2           0          -1
          -1           2           0          -1          -1           2
           0           0           0           0           0           0
           0           0           0           0           0           0
Number of primitives per shell             I   N=          36
           6           3           1           1           6           3
           1           1           6           3           1           1
           6           3           1           1           6           3
           1           1           6           3           1           1
           3           1           3           1           3           1
           3           1           3           1           3           1
Shell to atom map                          I   N=          36
           1           1           1           1           2           2
           2           2           3           3           3           3
           4           4           4           4           5           5
           5           5           6           6           6           6
           7           7           8           8           9           9
          10          10          11          11          12          12
Primitive exponents                        R   N=          90
  5.48467166E+03  8.25234946E+02  1.88046958E+02  5.29645000E+01  1.68975704E+01
  5.79963534E+00  1.55396162E+01  3.59993359E+00  1.01376175E+00  2.70005823E-01
  8.00000000E-01  3.04752488E+03  4.57369518E+02  1.03948685E+02  2.92101553E+01
  9.28666296E+00  3.16392696E+00  7.86827235E+00  1.88128854E+00  5.44249258E-01
  1.68714478E-01  8.00000000E-01  3.04752488E+03  4.57369518E+02  1.03948685E+02
  2.92101553E+01  9.28666296E+00  3.16392696E+00  7.86827235E+00  1.88128854E+00
  5.44249258E-01  1.68714478E-01  8.00000000E-01  3.04752488E+03  4.57369518E+02
  1.03948685E+02  2.92101553E+01  9.28666296E+00  3.16392696E+00  7.86827235E+00
  1.88128854E+00  5.44249258E-01  1.68714478E-01  8.00000000E-01  3.04752488E+03
  4.57369518E+02  1.03948685E+02  2.92101553E+01  9.28666296E+00  3.16392696E+00
  7.86827235E+00  1.88128854E+00  5.44249258E-01  1.68714478E-01  8.00000000E-01
  3.04752488E+03  4.57369518E+02  1.03948685E+02  2.92101553E+01  9.28666296E+00
  3.16392696E+00  7.86827235E+00  1.88128854E+00  5.44249258E-01  1.68714478E-01
  8.00000000E-01  1.87311370E+01  2.82539436E+00  6.40121692E-01  1.61277759E-01
  1.87311370E+01  2.82539436E+00  6.40121692E-01  1.61277759E-01  1.87311370E+01
  2.82539436E+00  6.40121692E-01  1.61277759E-01  1.87311370E+01  2.82539436E+00
  6.40121692E-01  1.61277759E-01  1.87311370E+01  2.82539436E+00  6.40121692E-01
  1.61277759E-01  1.87311370E+01  2.82539436E+00  6.40121692E-01  1.61277759E-01
Contraction coefficients                   R   N=          90
  1.83107443E-03  1.39501722E-02  6.84450781E-02  2.32714336E-01  4.70192898E-01
  3.58520853E-01 -1.10777550E-01 -1.48026263E-01  1.13076702E+00  1.00000000E+00
  1.00000000E+00  1.83473713E-03  1.40373228E-02  6.88426223E-02  2.32184443E-01
  4.67941348E-01  3.62311985E-01 -1.19332420E-01 -1.60854152E-01  1.14345644E+00
  1.00000000E+00  1.00000000E+00  1.83473713E-03  1.40373228E-02  6.88426223E-02
  2.32184443E-01  4.67941348E-01  3.62311985E-01 -1.19332420E-01 -1.60854152E-01
  1.14345644E+00  1.00000000E+00  1.00000000E+00  1.83473713E-03  1.40373228E-02
  6.88426223E-02  2.32184443E-01  4.67941348E-01  3.62311985E-01 -1.19332420E-01
 -1.60854152E-01  1.14345644E+00  1.00000000E+00  1.00000000E+00  1.83473713E-03
  1.40373228E-02  6.88426223E-02  2.32184443E-01  4.67941348E-01  3.62311985E-01
 -1.19332420E-01 -1.60854152E-01  1.14345644E+00  1.00000000E+00  1.00000000E+00
  1.83473713E-03  1.40373228E-02  6.88426223E-02  2.32184443E-01  4.67941348E-01
  3.62311985E-01 -1.19332420E-01 -1.60854152E-01  1.14345644E+00  1.00000000E+00
  1.00000000E+00  3.34946043E-02  2.34726953E-01  8.13757326E-01  1.00000000E+00
  3.34946043E-02  2.34726953E-01  8.13757326E-01  1.00000000E+00  3.34946043E-02
  2.34726953E-01  8.13757326E-01  1.00000000E+00  3.34946043E-02  2.34726953E-01
  8.13757326E-01  1.00000000E+00  3.34946043E-02  2.34726953E-01  8.13757326E-01
  1.00000000E+00  3.34946043E-02  2.34726953E-01  8.13757326E-01  1.00000000E+00
P(S=P) Contraction coefficients            R   N=          90
  0.00000000E+00  0.00000000E+00  0.00000000E+00  0.00000000E+00  0.00000000E+00
  0.00000000E+00  7.08742682E-02  3.39752839E-01  7.27158577E-01  1.00000000E+00
  0.00000000E+00  0.00000000E+00  0.00000000E+00  0.00000000E+00  0.00000000E+00
  0.00000000E+00  0.00000000E+00  6.89990666E-02  3.16423961E-01  7.44308291E-01
  1.00000000E+00  0.00000000E+00  0.00000000E+00  0.00000000E+00  0.00000000E+00
  0.00000000E+00  0.00000000E+00  0.00000000E+00  6.89990666E-02  3.16423961E-01
  7.44308291E-01  1.00000000E+00  0.00000000E+00  0.00000000E+00  0.00000000E+00
  0.00000000E+00  0.00000000E+00  0.00000000E+00  0.00000000E+00  6.89990666E-02
  3.16423961E-01  7.44308291E-01  1.00000000E+00  0.00000000E+00  0.00000000E+00
  0.00000000E+00  0.00000000E+00  0.00000000E+00  0.00000000E+00  0.00000000E+00
  6.89990666E-02  3.16423961E-01  7.44308291E-01  1.00000000E+00  0.00000000E+00
  0.00000000E+00  0.00000000E+00  0.00000000E+00  0.00000000E+00  0.00000000E+00
  0.00000000E+00  6.89990666E-02  3.16423961E-01  7.44308291E-01  1.00000000E+00
  0.00000000E+00  0.00000000E+00  0.00000000E+00  0.00000000E+00  0.00000000E+00
  0.00000000E+00  0.00000000E+00  0.00000000E+00  0.00000000E+00  0.00000000E+00
  0.00000000E+00  0.00000000E+00  0.00000000E+00  0.00000000E+00  0.00000000E+00
  0.00000000E+00  0.00000000E+00  0.00000000E+00  0.00000000E+00  0.00000000E+00
  0.00000000E+00  0.00000000E+00  0.00000000E+00  0.00000000E+00  0.00000000E+00
Coordinates of each shell                  R   N=         108
  3.72846180E-01 -2.50114542E+00 -5.46563019E-01  3.72846180E-01 -2.50114542E+00
 -5.46563019E-01  3.72846180E-01 -2.50114542E+00 -5.46563019E-01  3.72846180E-01
 -2.50114542E+00 -5.46563019E-01 -1.95484620E+00 -1.54854186E+00  5.23057359E-01
 -1.95484620E+00 -1.54854186E+00  5.23057359E-01 -1.95484620E+00 -1.54854186E+00
  5.23057359E-01 -1.95484620E+00 -1.54854186E+00  5.23057359E-01 -2.37619669E+00
  1.15584205E+00 -2.08855157E-01 -2.37619669E+00  1.15584205E+00 -2.08855157E-01
 -2.37619669E+00  1.15584205E+00 -2.08855157E-01 -2.37619669E+00  1.15584205E+00
 -2.08855157E-01 -3.37047377E-01  2.68235060E+00 -1.30784870E-01 -3.37047377E-01
  2.68235060E+00 -1.30784870E-01 -3.37047377E-01  2.68235060E+00 -1.30784870E-01
 -3.37047377E-01  2.68235060E+00 -1.30784870E-01  2.12741716E+00  1.55673470E+00
  3.30756929E-01  2.12741716E+00  1.55673470E+00  3.30756929E-01  2.12741716E+00
  1.55673470E+00  3.30756929E-01  2.12741716E+00  1.55673470E+00  3.30756929E-01
  2.37659518E+00 -9.57838676E-01 -5.52710324E-02  2.37659518E+00 -9.57838676E-01
 -5.52710324E-02  2.37659518E+00 -9.57838676E-01 -5.52710324E-02  2.37659518E+00
 -9.57838676E-01 -5.52710324E-02 -1.81798626E+00 -1.75101921E+00  2.59260950E+00
 -1.81798626E+00 -1.75101921E+00  2.59260950E+00 -3.42310548E+00 -2.81412596E+00
 -1.78919569E-01 -3.42310548E+00 -2.81412596E+00 -1.78919569E-01 -4.25000607E+00
  1.81869473E+00 -7.18291341E-01 -4.25000607E+00  1.81869473E+00 -7.18291341E-01
 -4.66672089E-01  4.68163585E+00 -5.84398597E-01 -4.66672089E-01  4.68163585E+00
 -5.84398597E-01  3.79288363E+00  2.69818936E+00  6.75139203E-01  3.79288363E+00
  2.69818936E+00  6.75139203E-01  4.16658440E+00 -1.95549235E+00 -1.67054417E-01
  4.16658440E+00 -1.95549235E+00 -1.67054417E-01
Constraint Structure                       R   N=          36
  3.72846180E-01 -2.50114542E+00 -5.46563019E-01 -1.95484620E+00 -1.54854186E+00
  5.23057359E-01 -2.37619669E+00  1.15584205E+00 -2.08855157E-01 -3.37047377E-01
  2.68235060E+00 -1.30784870E-01  2.12741716E+00  1.55673470E+00  3.30756929E-01
  2.37659518E+00 -9.57838676E-01 -5.52710324E-02 -1.81798626E+00 -1.75101921E+00
  2.59260950E+00 -3.42310548E+00 -2.81412596E+00 -1.78919569E-01 -4.25000607E+00
  1.81869473E+00 -7.18291341E-01 -4.66672089E-01  4.68163585E+00 -5.84398597E-01
  3.79288363E+00  2.69818936E+00  6.75139203E-01  4.16658440E+00 -1.95549235E+00
 -1.67054417E-01
Num ILSW                                   I              100
ILSW                                       I   N=         100
           0           1           0           0           2           0
           0           0           0           0           0          -1
           0           0           0           0           0           0
           0           0           0           0           1           0
           1           0           0           0           0           0
           0           0      100000           0          -1           0
           0           0           0           0           0           0
           0           0           0           1           1           0
           0           0           1           0           0           0
           0           0           4          40           0           0
           0           0           0           0           0           0
           0           0           0           0           0           0
           0           0           0           0           0           0
           0           0           0           0           0           0
           0           0           0           0           0           0
           0           0           0           0           0           0
           0           0           0           0
Num RLSW                                   I               40
RLSW                                       R   N=          40
  1.00000000E+00  1.00000000E+00  1.00000000E+00  1.00000000E+00  1.00000000E+00
  0.00000000E+00  0.00000000E+00  1.00000000E+00  0.00000000E+00  0.00000000E+00
  0.00000000E+00  0.00000000E+00  1.00000000E+00  0.00000000E+00  0.00000000E+00
  0.00000000E+00  0.00000000E+00  1.00000000E+00  0.00000000E+00  0.00000000E+00
  0.00000000E+00  0.00000000E+00  1.00000000E+00  0.00000000E+00  0.00000000E+00
  0.00000000E+00  0.00000000E+00  1.00000000E+00  0.00000000E+00  0.00000000E+00
  0.00000000E+00  0.00000000E+00  0.00000000E+00  0.00000000E+00  0.00000000E+00
  0.00000000E+00  0.00000000E+00  0.00000000E+00  1.00000000E+00  1.00000000E+00
MxBond                                     I                4
NBond                                      I   N=          12
           2           4           3           3           3           3
           1           1           1           1           1           1
IBond                                      I   N=          48
           2           6           0           0           1           3
           7           8           2           4           9           0
           3           5          10           0           4           6
          11           0           1           5          12           0
           2           0           0           0           2           0
           0           0           3           0           0           0
           4           0           0           0           5           0
           0           0           6           0           0           0
RBond                                      R   N=          48
  1.00000000E+00  1.50000000E+00  0.00000000E+00  0.00000000E+00  1.00000000E+00
  1.00000000E+00  1.00000000E+00  1.00000000E+00  1.00000000E+00  2.00000000E+00
  1.00000000E+00  0.00000000E+00  2.00000000E+00  1.00000000E+00  1.00000000E+00
  0.00000000E+00  1.00000000E+00  2.00000000E+00  1.00000000E+00  0.00000000E+00
  1.50000000E+00  2.00000000E+00  1.00000000E+00  0.00000000E+00  1.00000000E+00
  0.00000000E+00  0.00000000E+00  0.00000000E+00  1.00000000E+00  0.00000000E+00
  0.00000000E+00  0.00000000E+00  1.00000000E+00  0.00000000E+00  0.00000000E+00
  0.00000000E+00  1.00000000E+00  0.00000000E+00  0.00000000E+00  0.00000000E+00
  1.00000000E+00  0.00000000E+00  0.00000000E+00  0.00000000E+00  1.00000000E+00
  0.00000000E+00  0.00000000E+00  0.00000000E+00
Virial Ratio                               R      2.002319101390412E+00
SCF Energy                                 R     -2.676383159488164E+02
MP2 Energy                                 R     -2.684493054801635E+02
Total Energy                               R     -2.684493054801635E+02
Post-SCF wavefunction norm                 R      1.596844401302869E+00
RMS Force                                  R      1.185331649273778E-06
RMS Density                                R      1.826067204853387E-09
External E-field                           R   N=          35
  0.00000000E+00  0.00000000E+00  0.00000000E+00  0.00000000E+00  0.00000000E+00
  0.00000000E+00  0.00000000E+00  0.00000000E+00  0.00000000E+00  0.00000000E+00
  0.00000000E+00  0.00000000E+00  0.00000000E+00  0.00000000E+00  0.00000000E+00
  0.00000000E+00  0.00000000E+00  0.00000000E+00  0.00000000E+00  0.00000000E+00
  0.00000000E+00  0.00000000E+00  0.00000000E+00  0.00000000E+00  0.00000000E+00
  0.00000000E+00  0.00000000E+00  0.00000000E+00  0.00000000E+00  0.00000000E+00
  0.00000000E+00  0.00000000E+00  0.00000000E+00  0.00000000E+00  0.00000000E+00
IOpCl                                      I                0
IROHF                                      I                0
Alpha Orbital Energies                     R   N=         102
 -2.05874686E+01 -1.12980565E+01 -1.12877751E+01 -1.12389376E+01 -1.12271505E+01
 -1.12228790E+01 -1.40099118E+00 -1.09002472E+00 -1.02969031E+00 -8.93183468E-01
 -8.34943588E-01 -7.13089728E-01 -6.97942397E-01 -6.43060411E-01 -6.27745861E-01
 -6.00050415E-01 -5.66453213E-01 -5.26146974E-01 -5.02405033E-01 -4.64825681E-01
 -4.11498742E-01 -2.95023117E-01  1.30355322E-01  2.38633717E-01  2.47316874E-01
  2.87830425E-01  2.96252821E-01  3.11750797E-01  3.26203314E-01  3.36888809E-01
  3.49579711E-01  4.18753053E-01  4.55841608E-01  4.97405525E-01  5.98304789E-01
  6.24454494E-01  7.02569229E-01  7.57189798E-01  7.82527553E-01  7.97217629E-01
  8.05498186E-01  8.13746296E-01  8.35353356E-01  8.37750883E-01  8.86856299E-01
  8.92396856E-01  9.43583680E-01  9.53724940E-01  1.05489136E+00  1.10011460E+00
  1.10621005E+00  1.12059847E+00  1.15467657E+00  1.17290889E+00  1.18046699E+00
  1.18999346E+00  1.22311071E+00  1.24427483E+00  1.27633925E+00  1.35321027E+00
  1.42036813E+00  1.46979640E+00  1.51580305E+00  1.53264739E+00  1.56209890E+00
  1.69469536E+00  1.74384496E+00  1.81176426E+00  1.85219597E+00  1.92749952E+00
  1.96662222E+00  1.99679402E+00  2.12105536E+00  2.15510259E+00  2.20993743E+00
  2.24595050E+00  2.29504253E+00  2.32449545E+00  2.38225625E+00  2.43476735E+00
  2.50504570E+00  2.53609678E+00  2.57186534E+00  2.58196165E+00  2.66542026E+00
  2.73372996E+00  2.80190532E+00  2.89559066E+00  2.92192664E+00  2.92961072E+00
  3.01852549E+00  3.05234027E+00  3.12036751E+00  3.22104100E+00  3.36434572E+00
  3.56882262E+00  4.39464677E+00  4.53650690E+00  4.59697846E+00  4.69186575E+00
  4.77246129E+00  4.95550173E+00
Alpha MO coefficients                      R   N=       10404
  9.94660004E-01  2.12020466E-02  1.68017074E-05  1.14736718E-03  5.92665650E-04
  3.88012912E-03  1.61301036E-04 -6.92567440E-04 -3.28059903E-04 -4.16142666E-03
 -4.00968727E-03 -3.92122829E-03 -6.14949223E-06  7.62212253E-05 -9.97768256E-05
 -1.84378150E-05  1.69151187E-04  3.37527506E-04 -1.34091704E-04 -1.65398662E-04
  3.02748278E-04 -4.51735789E-05  3.28825356E-04  8.91242049E-05  9.43476825E-05
 -9.73967405E-06 -1.42345236E-05 -5.61812780E-05 -7.96511329E-05 -1.81920082E-06
  4.11980995E-06  5.84774982E-05 -2.88431073E-05  2.71108868E-05  1.57846223E-06
 -5.05417712E-04 -1.18888245E-04  1.35461891E-04 -1.06234602E-04 -2.04969291E-05
 -3.74790982E-05 -9.87458642E-06  2.22707809E-05 -6.36819750E-06  9.36340652E-06
 -1.76293377E-06 -6.56620134E-07  3.98915676E-06  1.33660625E-05  8.54795920E-08
  2.29075375E-04 -5.30462395E-05 -2.62610713E-04  5.03824662E-05 -6.20216623E-06
 -1.10414889E-05 -4.91874331E-06  1.46577956E-06 -6.47285302E-06 -3.45043927E-06
  9.68698244E-06  8.33135339E-05  1.59286930E-05  4.20357552E-05  1.71239969E-05
 -9.70827801E-04  1.35619886E-04  5.39555131E-04  4.30457083E-05  2.13168570E-06
 -6.19475464E-05  2.23397908E-06 -4.47720093E-05 -5.90643822E-06 -1.26813868E-05
 -1.20947026E-05  3.44002536E-04 -2.73696181E-04 -2.15507271E-04 -7.20454097E-05
  5.41151034E-04 -1.94717242E-04  8.23413645E-04  2.05635309E-04 -6.92307334E-05
 -2.53807968E-05 -7.71121131E-05 -3.51995041E-05 -8.76365733E-06  2.50292232E-06
 -4.30456622E-05 -9.45150644E-05  9.34358551E-06 -3.76592707E-05  1.20103764E-05
 -1.61121477E-05  2.00192916E-05  7.47319227E-05  1.45971035E-05 -1.06446845E-04
  2.01093755E-05  1.73692669E-04 -7.23125107E-05  7.13964180E-04  1.55568216E-04
  1.34989024E-04  8.53988235E-05 -2.02027516E-03 -1.31698972E-03 -1.10680995E-03
 -6.45039451E-04 -3.74737900E-04  1.01059508E-05  4.17100646E-04 -5.01679808E-04
 -1.45037043E-04 -2.58602154E-04 -6.47042555E-04 -3.09582261E-04  1.15309598E-05
 -1.40880142E-05 -7.56633214E-05  9.84955787E-04  1.03096042E-03  8.81596093E-04
  4.81623409E-04  2.12683170E-04 -3.77341910E-05  9.36596530E-08  3.30741853E-05
 -4.29611881E-05 -7.28703861E-05 -1.04498317E-04  1.37444983E-05 -1.45823642E-05
  2.63341386E-05  4.34907489E-05 -1.08763609E-03 -8.83584740E-04  2.08104638E-04
 -4.98273246E-04  5.66567334E-06  2.37862078E-05 -4.39872587E-05 -1.06377299E-05
 -3.93800659E-05  3.89913244E-05 -3.38077441E-05 -2.79222694E-04  5.20110459E-06
 -1.63280042E-05  2.49600037E-05  2.11946160E-03  5.55707389E-04 -9.43015334E-04
  2.53116031E-04  7.66424449E-05  8.21006260E-05 -6.91501622E-05 -9.50608652E-05
  1.24369145E-05  2.67134108E-06  9.70725960E-03  1.39985709E-04 -6.24966909E-05
  1.39377021E-04  4.74780533E-05  2.71381270E-03  1.83436537E-03 -1.65762477E-03
 -6.39571479E-05 -3.12062874E-04 -2.27110593E-04 -3.05877782E-05  3.58030438E-05
 -3.92459783E-05 -2.06228516E-05  9.95708825E-01  2.66678535E-02 -1.09332046E-03
 -7.46187023E-04 -1.91341204E-04 -8.95611131E-03 -1.01737781E-03 -1.79658587E-03
 -4.42455431E-04 -1.35748480E-03 -1.20107450E-03 -2.27057219E-03  2.43150920E-04
  1.27264391E-04  2.36853039E-04 -2.30310831E-04 -5.85145142E-05  1.30417903E-04
  4.32937283E-04 -5.62911638E-05 -2.89902879E-04 -9.06235878E-06  2.88774528E-04
 -1.48911574E-04 -4.62761727E-04 -2.02491196E-04  1.88694090E-03 -1.32070565E-04
  2.00667300E-04 -1.60470080E-04  1.32941125E-04  9.25895147E-05  1.34822101E-03
 -7.19706100E-05 -4.22562776E-04 -2.27105495E-04 -5.58635726E-04 -1.47228786E-04
 -4.39819339E-05  1.97435023E-04  3.29689196E-04 -1.85186390E-04  9.95916863E-01
  2.76842075E-02  9.32256098E-04 -7.31749757E-05 -3.63670762E-04 -1.51310167E-02
 -5.07930299E-04 -1.49182709E-03  6.23596048E-05 -1.37484443E-03 -1.42785067E-03
 -1.43530857E-03 -2.31247788E-06  1.83461022E-05  5.71889295E-05  5.40541462E-03
  1.93328386E-04 -1.41947231E-05 -4.48755698E-05  1.55949824E-05  3.92737571E-03
  2.34195470E-04 -2.33684188E-03  5.49853543E-04 -1.77360115E-04 -4.48015755E-04
 -1.79369664E-04  1.37309149E-05 -1.01385671E-05  6.34696448E-05 -1.98980036E-05
 -1.81742378E-04  5.13638753E-05  5.53445144E-05 -1.79596740E-05  3.97350401E-05
 -6.40353664E-04 -2.12005808E-04  1.58135823E-05  6.32337564E-05  8.69595338E-05
 -4.57066016E-05  4.90473431E-05  1.85509553E-05 -5.86186388E-05 -8.94350339E-05
 -9.44224007E-05  5.28928860E-05  1.08323005E-04  3.57012792E-06 -8.02060606E-04
 -1.20423522E-04  6.74176796E-04  4.53894741E-06  8.80658833E-07 -5.49135051E-05
 -7.68206784E-05 -1.03175092E-05 -2.61336781E-05 -3.27981320E-06  5.76030437E-04
 -4.07635564E-04  3.17390594E-05 -8.07914901E-05 -3.18758684E-05  1.66260945E-03
 -1.49028915E-03  1.08738782E-03  4.35674806E-04  1.84955100E-04  2.67975905E-05
 -1.07081803E-04  4.04642123E-05 -8.48393246E-05  5.13864749E-05  2.59195662E-04
  2.65624990E-03  1.06710926E-04  2.13104089E-03 -1.07823582E-04  2.05969007E-05
 -1.34490394E-05  2.31680340E-04 -3.86720563E-06  2.99184083E-05  8.55429027E-05
  7.30766802E-04 -2.02906725E-05 -1.05653492E-04  9.62306604E-06 -3.02827327E-05
 -2.63045113E-06  4.65466616E-04 -1.83843767E-04  2.52280928E-05  8.74126235E-05
 -4.61109317E-05 -7.70722408E-05 -7.92250335E-05 -2.03261419E-05 -8.19135055E-06
  5.76022141E-06 -3.46319346E-04 -2.34050303E-05 -1.11715479E-05 -4.73691299E-05
  1.31136687E-05 -1.07380398E-03 -2.02318435E-04 -4.34806472E-05  1.61111007E-04
  2.76618229E-05  8.94649180E-05  1.90675057E-05  5.06577160E-05  2.86477882E-05
 -1.72288779E-05  6.49645052E-02  1.47989938E-03 -1.51918959E-04 -8.09413068E-05
 -1.99006030E-05  4.29575892E-03  2.04181348E-03  5.32878614E-04  1.78023482E-04
 -3.82718215E-04 -4.40624129E-04 -2.50005782E-04 -2.17387423E-05 -3.44242592E-05
  3.35635046E-05  9.93182440E-01  2.74722676E-02  2.68921568E-04 -2.30194629E-04
 -1.62254049E-05 -1.31149156E-02 -2.57900175E-04  1.84070138E-03 -1.37911253E-04
 -1.57005293E-03 -1.75468537E-03 -2.31816035E-03  1.43511879E-04  9.11727483E-05
 -1.22392079E-04  2.53218725E-02  7.71161795E-04  1.13239031E-04 -1.42595583E-05
  3.49924383E-05  3.45351437E-03 -1.47514963E-03  4.72978595E-04 -2.05241429E-04
 -5.56097491E-04 -3.94728027E-04 -1.90106932E-04  2.01056974E-04 -8.76007724E-05
  5.66073977E-05 -2.72605636E-04 -2.27444601E-04  3.02300373E-05 -2.90236978E-05
  3.28439569E-05  9.60883341E-05 -1.76453746E-04  2.01002268E-04 -1.08054396E-04
  3.59733108E-05  1.02254479E-04 -5.99571374E-05 -3.09291641E-05  4.55775880E-05
  2.38997423E-05 -1.93069005E-05  1.48954921E-04  3.26235673E-05  1.96860864E-04
 -3.14594339E-05  3.10712444E-04 -2.00451145E-04  1.58582215E-03 -8.07735589E-05
  2.92702489E-05  5.03576205E-06  1.89292031E-04 -2.82528654E-05 -1.62899600E-04
  5.33418385E-05 -5.13608458E-05  1.20353530E-05  2.65634240E-04 -2.09624890E-04
  8.31329247E-05 -2.04478811E-05 -9.98129861E-05 -2.58859965E-05 -1.41605261E-04
 -8.68718834E-05 -4.29281092E-05 -3.32813039E-05 -5.69922279E-03  6.37694255E-05
 -1.29845187E-05 -2.35729335E-05  8.95383452E-05  3.08029654E-03 -2.33280222E-04
  1.50166390E-03 -5.92972782E-04 -2.03696564E-04 -4.95534912E-04 -7.61933207E-05
  9.87465306E-05 -1.39132462E-05  1.51812557E-04  9.93505240E-01  2.76499345E-02
  1.69703382E-04 -2.57684140E-04  8.87271407E-05 -1.37780663E-02 -2.02878609E-03
  6.05809992E-04 -5.17745624E-04 -1.63632292E-03 -1.75816342E-03 -2.26296376E-03
  1.76802827E-04  1.07867504E-04 -1.26617773E-04 -6.54355426E-02 -2.17193188E-03
  9.59810781E-05  1.73716093E-04 -7.54044730E-06  6.39406856E-03 -1.08489352E-03
 -2.31810143E-03  2.10980308E-04 -2.16338486E-04 -1.64661878E-04  3.19253160E-05
 -3.43278648E-05 -5.86822446E-05  4.62337812E-05 -7.62360243E-03 -2.75165387E-04
  1.95060880E-06 -2.49607430E-05  1.51155456E-05 -1.45155294E-03  7.33474123E-04
  2.95872431E-04  1.19901101E-04  1.78409490E-04  6.08706850E-05  4.28124981E-05
  1.33897457E-05  2.31684170E-05 -2.69418928E-05  1.84633737E-04 -2.52981038E-05
  2.54780857E-05  1.68872809E-06  3.08430310E-05  4.43758054E-04 -2.86003117E-04
  1.63113529E-04 -3.82686467E-05  7.40825691E-06  4.94574823E-05 -2.02089629E-05
  2.90066597E-05  6.67417470E-06  5.75381537E-06 -1.67521923E-04  4.67360241E-04
 -9.42200372E-05 -5.77375326E-05 -2.26780513E-04  1.53360390E-03  1.12441492E-05
  1.96307399E-04 -2.73540175E-05 -9.68063164E-05  1.37597649E-05  1.00629043E-04
  6.54336038E-05  2.08100100E-04  2.22337954E-06  2.70372103E-05  1.01305313E-05
 -1.66404261E-03  2.36588379E-05 -4.75652264E-04 -1.63054822E-04  1.89453843E-04
  2.49070861E-04  1.12318992E-04  4.55844921E-05  3.52906344E-05  2.20233920E-06
  1.25447871E-05 -1.69964375E-04 -1.18297126E-05 -5.82086104E-05 -4.72924028E-05
  1.22764868E-03  4.68329051E-04  5.97245500E-04 -1.04836660E-04 -1.09692432E-05
 -1.76485615E-05 -3.45134845E-05 -7.45774368E-07 -3.66216133E-05 -1.98939730E-05
  5.98682542E-03  1.26089265E-04 -9.91373236E-06  9.13434822E-06 -3.06418161E-05
 -1.76678650E-03 -6.95006214E-04  4.12444829E-04 -1.03982205E-04  1.17946300E-04
  5.64743371E-05 -1.45840985E-05  4.48428674E-05  1.64519632E-05  3.26429542E-06
 -2.61683333E-02 -7.24167906E-04 -9.95970448E-05  8.86718137E-05 -6.76563506E-06
  5.29517370E-03  1.41469278E-03 -1.61971562E-03  2.32789283E-04 -5.22331916E-04
 -2.28092547E-04 -9.06030467E-05  1.14678459E-04 -1.17343033E-04  1.79153643E-05
  9.95237534E-01  2.79536765E-02 -2.91888048E-04 -1.83938271E-04 -1.08567304E-04
 -1.43492991E-02  2.04956186E-03  1.48829431E-03  8.37358469E-04 -1.82075000E-03
 -1.61846833E-03 -2.30512191E-03 -1.01645020E-04  7.72876560E-05  9.18229908E-05