
    -----------------------------------------------------------------------
          Psi4: An Open-Source Ab Initio Electronic Structure Package
                               Psi4 1.3.2 release

                         Git: Rev {HEAD} ecbda83 


    R. M. Parrish, L. A. Burns, D. G. A. Smith, A. C. Simmonett,
    A. E. DePrince III, E. G. Hohenstein, U. Bozkaya, A. Yu. Sokolov,
    R. Di Remigio, R. M. Richard, J. F. Gonthier, A. M. James,
    H. R. McAlexander, A. Kumar, M. Saitow, X. Wang, B. P. Pritchard,
    P. Verma, H. F. Schaefer III, K. Patkowski, R. A. King, E. F. Valeev,
    F. A. Evangelista, J. M. Turney, T. D. Crawford, and C. D. Sherrill,
    J. Chem. Theory Comput. 13(7) pp 3185--3197 (2017).
    (doi: 10.1021/acs.jctc.7b00174)


                         Additional Contributions by
    P. Kraus, H. Kruse, M. H. Lechner, M. C. Schieber, R. A. Shaw,
    A. Alenaizan, R. Galvelis, Z. L. Glick, S. Lehtola, and J. P. Misiewicz

    -----------------------------------------------------------------------


    Psi4 started on: Saturday, 07 November 2020 11:08AM

    Process ID: 3269
    Host:       node142.bme.utexas.edu
    PSIDATADIR: /home/xy3866/psi4conda/share/psi4
    Memory:     500.0 MiB
    Threads:    8
    
  ==> Input File <==

--------------------------------------------------------------------------
#psi4
#
memory 32 gb

molecule  {
0 1
  O        1.0823540    -0.5566580    -0.2632920
  O       -1.0823250    -0.5564370    -0.2635130
  O        0.0000290     0.8790020     1.1568390
  C        2.3645980    -0.0472600     0.2117580
  C       -2.4524444    -0.0123732     0.2442902
  C        3.3580870    -1.1527530    -0.0787140
  C        2.6794210     1.2541120    -0.5011060
  C       -2.6796530     1.2540600    -0.5011170
  C       -3.3579470    -1.1529030    -0.0785870
  C        0.0000190     0.0134100     0.2963400
  H        2.2751950     0.1248800     1.2880410
  H       -2.2750520     0.1249260     1.2879850
  H        4.3537060    -0.8600380     0.2666930
  H        3.0667940    -2.0744370     0.4299490
  H        3.4032550    -1.3462360    -1.1536500
  H        3.6582030     1.6290460    -0.1867860
  H        1.9279580     2.0093320    -0.2633690
  H        2.6983220     1.0899770    -1.5821290
  H       -3.6584150     1.6289180    -0.1866510
  H       -1.9282070     2.0093390    -0.2634970
  H       -2.6986940     1.0899190    -1.5821360
  H       -4.3535640    -0.8602980     0.2669170
  H       -3.0664820    -2.0745270     0.4300870
  H       -3.4032180    -1.3464490    -1.1535090
units angstrom
no_reorient  #important for SAPT in psi4, default
symmetry c1  #important for SAPT in psi4, default
}

set PROPERTIES_ORIGIN ["COM"]
properties('MP2/aug-cc-pvtz', properties = ['dipole'])
--------------------------------------------------------------------------

  Memory set to  29.802 GiB by Python driver.
    SCF Algorithm Type (re)set to DF.

*** tstart() called on node142.bme.utexas.edu
*** at Sat Nov  7 11:08:51 2020

   => Loading Basis Set <=

    Name: AUG-CC-PVTZ
    Role: ORBITAL
    Keyword: BASIS
    atoms 1-3   entry O          line   327 file /home/xy3866/psi4conda/share/psi4/basis/aug-cc-pvtz.gbs 
    atoms 4-10  entry C          line   235 file /home/xy3866/psi4conda/share/psi4/basis/aug-cc-pvtz.gbs 
    atoms 11-24 entry H          line    36 file /home/xy3866/psi4conda/share/psi4/basis/aug-cc-pvtz.gbs 


         ---------------------------------------------------------
                                   SCF
               by Justin Turney, Rob Parrish, Andy Simmonett
                          and Daniel G. A. Smith
                              RHF Reference
                        8 Threads,  30517 MiB Core
         ---------------------------------------------------------

  ==> Geometry <==

    Molecular point group: c1
    Full point group: C1

    Geometry (in Angstrom), charge = 0, multiplicity = 1:

       Center              X                  Y                   Z               Mass       
    ------------   -----------------  -----------------  -----------------  -----------------
         O            1.089570610732    -0.551760633131    -0.282258238844    15.994914619570
         O           -1.075108389268    -0.551539633131    -0.282479238844    15.994914619570
         O            0.007245610732     0.883899366869     1.137872761156    15.994914619570
         C            2.371814610732    -0.042362633131     0.192791761156    12.000000000000
         C           -2.445227789268    -0.007475833131     0.225323961156    12.000000000000
         C            3.365303610732    -1.147855633131    -0.097680238844    12.000000000000
         C            2.686637610732     1.259009366869    -0.520072238844    12.000000000000
         C           -2.672436389268     1.258957366869    -0.520083238844    12.000000000000
         C           -3.350730389268    -1.148005633131    -0.097553238844    12.000000000000
         C            0.007235610732     0.018307366869     0.277373761156    12.000000000000
         H            2.282411610732     0.129777366869     1.269074761156     1.007825032230
         H           -2.267835389268     0.129823366869     1.269018761156     1.007825032230
         H            4.360922610732    -0.855140633131     0.247726761156     1.007825032230
         H            3.074010610732    -2.069539633131     0.410982761156     1.007825032230
         H            3.410471610732    -1.341338633131    -1.172616238844     1.007825032230
         H            3.665419610732     1.633943366869    -0.205752238844     1.007825032230
         H            1.935174610732     2.014229366869    -0.282335238844     1.007825032230
         H            2.705538610732     1.094874366869    -1.601095238844     1.007825032230
         H           -3.651198389268     1.633815366869    -0.205617238844     1.007825032230
         H           -1.920990389268     2.014236366869    -0.282463238844     1.007825032230
         H           -2.691477389268     1.094816366869    -1.601102238844     1.007825032230
         H           -4.346347389268    -0.855400633131     0.247950761156     1.007825032230
         H           -3.059265389268    -2.069629633131     0.411120761156     1.007825032230
         H           -3.396001389268    -1.341551633131    -1.172475238844     1.007825032230

  Running in c1 symmetry.

  Rotational constants: A =      0.10185  B =      0.02098  C =      0.01912 [cm^-1]
  Rotational constants: A =   3053.30505  B =    629.03216  C =    573.22217 [MHz]
  Nuclear repulsion =  575.880517260927604

  Charge       = 0
  Multiplicity = 1
  Electrons    = 80
  Nalpha       = 40
  Nbeta        = 40

  ==> Algorithm <==

  SCF Algorithm Type is DF.
  DIIS enabled.
  MOM disabled.
  Fractional occupation disabled.
  Guess Type is SAD.
  Energy threshold   = 1.00e-10
  Density threshold  = 1.00e-10
  Integral threshold = 0.00e+00

  ==> Primary Basis <==

  Basis Set: AUG-CC-PVTZ
    Blend: AUG-CC-PVTZ
    Number of shells: 266
    Number of basis function: 782
    Number of Cartesian functions: 900
    Spherical Harmonics?: true
    Max angular momentum: 3

   => Loading Basis Set <=

    Name: (AUG-CC-PVTZ AUX)
    Role: JKFIT
    Keyword: DF_BASIS_SCF
    atoms 1-3   entry O          line   286 file /home/xy3866/psi4conda/share/psi4/basis/aug-cc-pvtz-jkfit.gbs 
    atoms 4-10  entry C          line   162 file /home/xy3866/psi4conda/share/psi4/basis/aug-cc-pvtz-jkfit.gbs 
    atoms 11-24 entry H          line    70 file /home/xy3866/psi4conda/share/psi4/basis/aug-cc-pvtz-jkfit.gbs 

  ==> Pre-Iterations <==

   -------------------------------------------------------
    Irrep   Nso     Nmo     Nalpha   Nbeta   Ndocc  Nsocc
   -------------------------------------------------------
     A        782     782       0       0       0       0
   -------------------------------------------------------
    Total     782     782      40      40      40       0
   -------------------------------------------------------

  ==> Integral Setup <==

  DFHelper Memory: AOs need 7.006 GiB; user supplied 22.352 GiB. Using in-core AOs.

  ==> MemDFJK: Density-Fitted J/K Matrices <==

    J tasked:                   Yes
    K tasked:                   Yes
    wK tasked:                   No
    OpenMP threads:               8
    Memory [MiB]:             22888
    Algorithm:                 Disk
    Schwarz Cutoff:           1E-12
    Mask sparsity (%):      11.0406
    Fitting Condition:        1E-10

   => Auxiliary Basis Set <=

  Basis Set: (AUG-CC-PVTZ AUX)
    Blend: AUG-CC-PVTZ-JKFIT
    Number of shells: 496
    Number of basis function: 1684
    Number of Cartesian functions: 2080
    Spherical Harmonics?: true
    Max angular momentum: 4

  Minimum eigenvalue in the overlap matrix is 3.6821211220E-06.
  Using Symmetric Orthogonalization.

  SCF Guess: Superposition of Atomic Densities via on-the-fly atomic UHF.

  ==> Iterations <==

                           Total Energy        Delta E     RMS |[F,P]|

   @DF-RHF iter SAD:  -496.87954861271089   -4.96880e+02   0.00000e+00 
   @DF-RHF iter   1:  -497.63048182272325   -7.50933e-01   1.12089e-03 DIIS
   @DF-RHF iter   2:  -497.94076644723464   -3.10285e-01   6.03585e-04 DIIS
   @DF-RHF iter   3:  -498.02421665195908   -8.34502e-02   1.18294e-04 DIIS
   @DF-RHF iter   4:  -498.02942982128053   -5.21317e-03   4.84277e-05 DIIS
   @DF-RHF iter   5:  -498.03024219600678   -8.12375e-04   1.15719e-05 DIIS
   @DF-RHF iter   6:  -498.03029549206087   -5.32961e-05   4.73108e-06 DIIS
   @DF-RHF iter   7:  -498.03030584182062   -1.03498e-05   1.30973e-06 DIIS
   @DF-RHF iter   8:  -498.03030718935418   -1.34753e-06   6.10780e-07 DIIS
   @DF-RHF iter   9:  -498.03030747478920   -2.85435e-07   2.02745e-07 DIIS
   @DF-RHF iter  10:  -498.03030750843971   -3.36505e-08   6.87571e-08 DIIS
   @DF-RHF iter  11:  -498.03030751160406   -3.16436e-09   2.68037e-08 DIIS
   @DF-RHF iter  12:  -498.03030751194450   -3.40435e-10   8.89542e-09 DIIS
   @DF-RHF iter  13:  -498.03030751198560   -4.10978e-11   1.89976e-09 DIIS
   @DF-RHF iter  14:  -498.03030751198639   -7.95808e-13   5.76880e-10 DIIS
   @DF-RHF iter  15:  -498.03030751198696   -5.68434e-13   1.83777e-10 DIIS
   @DF-RHF iter  16:  -498.03030751198565    1.30740e-12   7.45337e-11 DIIS
  Energy and wave function converged.


  ==> Post-Iterations <==

    Orbital Energies [Eh]
    ---------------------

    Doubly Occupied:                                                      

       1A    -20.594989     2A    -20.585623     3A    -20.534351  
       4A    -11.419202     5A    -11.299858     6A    -11.289937  
       7A    -11.225957     8A    -11.222870     9A    -11.218898  
      10A    -11.215765    11A     -1.478817    12A     -1.370090  
      13A     -1.343065    14A     -1.086629    15A     -1.057405  
      16A     -0.955441    17A     -0.943499    18A     -0.863573  
      19A     -0.802118    20A     -0.766062    21A     -0.732893  
      22A     -0.687550    23A     -0.666431    24A     -0.634878  
      25A     -0.623036    26A     -0.614218    27A     -0.578321  
      28A     -0.573959    29A     -0.560283    30A     -0.552054  
      31A     -0.545199    32A     -0.530894    33A     -0.521837  
      34A     -0.511633    35A     -0.502447    36A     -0.499281  
      37A     -0.485573    38A     -0.463260    39A     -0.455178  
      40A     -0.449826  

    Virtual:                                                              

      41A      0.029215    42A      0.031795    43A      0.036733  
      44A      0.039937    45A      0.046209    46A      0.047690  
      47A      0.048619    48A      0.058191    49A      0.061498  
      50A      0.065283    51A      0.068442    52A      0.071209  
      53A      0.074219    54A      0.091190    55A      0.100363  
      56A      0.108143    57A      0.117181    58A      0.120305  
      59A      0.122904    60A      0.126150    61A      0.129820  
      62A      0.132463    63A      0.133450    64A      0.133608  
      65A      0.141184    66A      0.142377    67A      0.143925  
      68A      0.145162    69A      0.146845    70A      0.158432  
      71A      0.159521    72A      0.171009    73A      0.172396  
      74A      0.179273    75A      0.183806    76A      0.188024  
      77A      0.190644    78A      0.199332    79A      0.201799  
      80A      0.208036    81A      0.219017    82A      0.221479  
      83A      0.225910    84A      0.239135    85A      0.245512  
      86A      0.250209    87A      0.256940    88A      0.259752  
      89A      0.260954    90A      0.267980    91A      0.275999  
      92A      0.278602    93A      0.281772    94A      0.285189  
      95A      0.294246    96A      0.299952    97A      0.300446  
      98A      0.304309    99A      0.311035   100A      0.314202  
     101A      0.316897   102A      0.320261   103A      0.329816  
     104A      0.333965   105A      0.340154   106A      0.342923  
     107A      0.344957   108A      0.349184   109A      0.353335  
     110A      0.357656   111A      0.359092   112A      0.361593  
     113A      0.363487   114A      0.373537   115A      0.376995  
     116A      0.382599   117A      0.383407   118A      0.386979  
     119A      0.389468   120A      0.395194   121A      0.397073  
     122A      0.403792   123A      0.407934   124A      0.411264  
     125A      0.412114   126A      0.415598   127A      0.421889  
     128A      0.427458   129A      0.428536   130A      0.435981  
     131A      0.437121   132A      0.445067   133A      0.449147  
     134A      0.451217   135A      0.458199   136A      0.463915  
     137A      0.465096   138A      0.466410   139A      0.467506  
     140A      0.470268   141A      0.479362   142A      0.479993  
     143A      0.485719   144A      0.486768   145A      0.491197  
     146A      0.494882   147A      0.499127   148A      0.500691  
     149A      0.508309   150A      0.508940   151A      0.511030  
     152A      0.514576   153A      0.520396   154A      0.523763  
     155A      0.532323   156A      0.535665   157A      0.539345  
     158A      0.542876   159A      0.547145   160A      0.551222  
     161A      0.555422   162A      0.558807   163A      0.566558  
     164A      0.575634   165A      0.579334   166A      0.582634  
     167A      0.590331   168A      0.593531   169A      0.594630  
     170A      0.596850   171A      0.599908   172A      0.607148  
     173A      0.611490   174A      0.616131   175A      0.626118  
     176A      0.629651   177A      0.632989   178A      0.645670  
     179A      0.648405   180A      0.652416   181A      0.659913  
     182A      0.675136   183A      0.679327   184A      0.683900  
     185A      0.689649   186A      0.700554   187A      0.705879  
     188A      0.710498   189A      0.712788   190A      0.716544  
     191A      0.724689   192A      0.742144   193A      0.750393  
     194A      0.758896   195A      0.769619   196A      0.773944  
     197A      0.786189   198A      0.788377   199A      0.795779  
     200A      0.797660   201A      0.799569   202A      0.809912  
     203A      0.821474   204A      0.824261   205A      0.831590  
     206A      0.835953   207A      0.841551   208A      0.846889  
     209A      0.850716   210A      0.858076   211A      0.861314  
     212A      0.864468   213A      0.872041   214A      0.879515  
     215A      0.882155   216A      0.890859   217A      0.896725  
     218A      0.900321   219A      0.902286   220A      0.908575  
     221A      0.914241   222A      0.922359   223A      0.927595  
     224A      0.932057   225A      0.936386   226A      0.938068  
     227A      0.941239   228A      0.943337   229A      0.952311  
     230A      0.956517   231A      0.958282   232A      0.960674  
     233A      0.966403   234A      0.968982   235A      0.976613  
     236A      0.980743   237A      0.984109   238A      0.992780  
     239A      0.998279   240A      1.004365   241A      1.007760  
     242A      1.009988   243A      1.018010   244A      1.021818  
     245A      1.025383   246A      1.033537   247A      1.043789  
     248A      1.045111   249A      1.055676   250A      1.058080  
     251A      1.062887   252A      1.076183   253A      1.082354  
     254A      1.085895   255A      1.088342   256A      1.095640  
     257A      1.099340   258A      1.100856   259A      1.109113  
     260A      1.117787   261A      1.125368   262A      1.131265  
     263A      1.135903   264A      1.139948   265A      1.144614  
     266A      1.152996   267A      1.158057   268A      1.164589  
     269A      1.174290   270A      1.175398   271A      1.177918  
     272A      1.180302   273A      1.193802   274A      1.194466  
     275A      1.199437   276A      1.202924   277A      1.220157  
     278A      1.228090   279A      1.238040   280A      1.240263  
     281A      1.242743   282A      1.244749   283A      1.247825  
     284A      1.252939   285A      1.261461   286A      1.267892  
     287A      1.279443   288A      1.287420   289A      1.290843  
     290A      1.300489   291A      1.310183   292A      1.312776  
     293A      1.317293   294A      1.321217   295A      1.324087  
     296A      1.336713   297A      1.338874   298A      1.345866  
     299A      1.359392   300A      1.363614   301A      1.370863  
     302A      1.376083   303A      1.382234   304A      1.388001  
     305A      1.392128   306A      1.406349   307A      1.411420  
     308A      1.421447   309A      1.423454   310A      1.428766  
     311A      1.433893   312A      1.441137   313A      1.448074  
     314A      1.451888   315A      1.456914   316A      1.459049  
     317A      1.479373   318A      1.484568   319A      1.495510  
     320A      1.500793   321A      1.515447   322A      1.516247  
     323A      1.524441   324A      1.526269   325A      1.538778  
     326A      1.545464   327A      1.546949   328A      1.555287  
     329A      1.558494   330A      1.567025   331A      1.576760  
     332A      1.577909   333A      1.587035   334A      1.595754  
     335A      1.613195   336A      1.616824   337A      1.623369  
     338A      1.629775   339A      1.642988   340A      1.646209  
     341A      1.650384   342A      1.652905   343A      1.665280  
     344A      1.671444   345A      1.683282   346A      1.690670  
     347A      1.700629   348A      1.705083   349A      1.711838  
     350A      1.712998   351A      1.718685   352A      1.721744  
     353A      1.725358   354A      1.733214   355A      1.739727  
     356A      1.743782   357A      1.745329   358A      1.752939  
     359A      1.759512   360A      1.760547   361A      1.762776  
     362A      1.768762   363A      1.779111   364A      1.782519  
     365A      1.792250   366A      1.798267   367A      1.803571  
     368A      1.811122   369A      1.813403   370A      1.835552  
     371A      1.844173   372A      1.853636   373A      1.862234  
     374A      1.870959   375A      1.874926   376A      1.880261  
     377A      1.892908   378A      1.897130   379A      1.902173  
     380A      1.906722   381A      1.907290   382A      1.918721  
     383A      1.919264   384A      1.930443   385A      1.932975  
     386A      1.935685   387A      1.944661   388A      1.956131  
     389A      1.962995   390A      1.974359   391A      1.990234  
     392A      1.993831   393A      2.000087   394A      2.003704  
     395A      2.008602   396A      2.023333   397A      2.034431  
     398A      2.040913   399A      2.048511   400A      2.063540  
     401A      2.074147   402A      2.081818   403A      2.090982  
     404A      2.093243   405A      2.101215   406A      2.124210  
     407A      2.130611   408A      2.138555   409A      2.149814  
     410A      2.160309   411A      2.167008   412A      2.170087  
     413A      2.180787   414A      2.185573   415A      2.208885  
     416A      2.228864   417A      2.234405   418A      2.245240  
     419A      2.249361   420A      2.254310   421A      2.262070  
     422A      2.268022   423A      2.272940   424A      2.282594  
     425A      2.285655   426A      2.292452   427A      2.308225  
     428A      2.308539   429A      2.322969   430A      2.337919  
     431A      2.346996   432A      2.362858   433A      2.374310  
     434A      2.380812   435A      2.381959   436A      2.392735  
     437A      2.410435   438A      2.415969   439A      2.438212  
     440A      2.454313   441A      2.461424   442A      2.499299  
     443A      2.505042   444A      2.520045   445A      2.525836  
     446A      2.528375   447A      2.537973   448A      2.558632  
     449A      2.562676   450A      2.582803   451A      2.601066  
     452A      2.609211   453A      2.621991   454A      2.656541  
     455A      2.671818   456A      2.683126   457A      2.704898  
     458A      2.716858   459A      2.727910   460A      2.743978  
     461A      2.750308   462A      2.769183   463A      2.783265  
     464A      2.798250   465A      2.807442   466A      2.829832  
     467A      2.849115   468A      2.870201   469A      2.873578  
     470A      2.892398   471A      2.914440   472A      2.946000  
     473A      2.962535   474A      2.976215   475A      2.981392  
     476A      2.986482   477A      2.999338   478A      3.001679  
     479A      3.067281   480A      3.080898   481A      3.118651  
     482A      3.136017   483A      3.145023   484A      3.151527  
     485A      3.167281   486A      3.185355   487A      3.196194  
     488A      3.228066   489A      3.244381   490A      3.296438  
     491A      3.318186   492A      3.336782   493A      3.349078  
     494A      3.366740   495A      3.412062   496A      3.423001  
     497A      3.427629   498A      3.439869   499A      3.445038  
     500A      3.462850   501A      3.475147   502A      3.492209  
     503A      3.499481   504A      3.502107   505A      3.518914  
     506A      3.527171   507A      3.537667   508A      3.540270  
     509A      3.559217   510A      3.567015   511A      3.577772  
     512A      3.609472   513A      3.623662   514A      3.632653  
     515A      3.641826   516A      3.666300   517A      3.669310  
     518A      3.683945   519A      3.694300   520A      3.700220  
     521A      3.707342   522A      3.709095   523A      3.722884  
     524A      3.735391   525A      3.747510   526A      3.748197  
     527A      3.754026   528A      3.762847   529A      3.765711  
     530A      3.778365   531A      3.789086   532A      3.802330  
     533A      3.807304   534A      3.813377   535A      3.816713  
     536A      3.828891   537A      3.844974   538A      3.854322  
     539A      3.857477   540A      3.872391   541A      3.876403  
     542A      3.891907   543A      3.901177   544A      3.902823  
     545A      3.910328   546A      3.924957   547A      3.940909  
     548A      3.947138   549A      3.958149   550A      3.975182  
     551A      3.980210   552A      3.984149   553A      3.999118  
     554A      4.000589   555A      4.002796   556A      4.009974  
     557A      4.018841   558A      4.038183   559A      4.039685  
     560A      4.049147   561A      4.057346   562A      4.063115  
     563A      4.073978   564A      4.087631   565A      4.093703  
     566A      4.100949   567A      4.137835   568A      4.144914  
     569A      4.155932   570A      4.162655   571A      4.172441  
     572A      4.184510   573A      4.195150   574A      4.202900  
     575A      4.213174   576A      4.216090   577A      4.223700  
     578A      4.231453   579A      4.242523   580A      4.255910  
     581A      4.263559   582A      4.275837   583A      4.278918  
     584A      4.287151   585A      4.305565   586A      4.311859  
     587A      4.321849   588A      4.329547   589A      4.342805  
     590A      4.348710   591A      4.356150   592A      4.369896  
     593A      4.378605   594A      4.382377   595A      4.387384  
     596A      4.404906   597A      4.425386   598A      4.433358  
     599A      4.442046   600A      4.473107   601A      4.486723  
     602A      4.511870   603A      4.515711   604A      4.527097  
     605A      4.552365   606A      4.554686   607A      4.570751  
     608A      4.580566   609A      4.590829   610A      4.607259  
     611A      4.617643   612A      4.630934   613A      4.650012  
     614A      4.654809   615A      4.663645   616A      4.670582  
     617A      4.694451   618A      4.705169   619A      4.707769  
     620A      4.723263   621A      4.742584   622A      4.750886  
     623A      4.762166   624A      4.776489   625A      4.814194  
     626A      4.821456   627A      4.830450   628A      4.840987  
     629A      4.866046   630A      4.870441   631A      4.873452  
     632A      4.886550   633A      4.897798   634A      4.905726  
     635A      4.923992   636A      4.932291   637A      4.949334  
     638A      4.956725   639A      4.978073   640A      4.985483  
     641A      4.995957   642A      5.008178   643A      5.032463  
     644A      5.042204   645A      5.048449   646A      5.081055  
     647A      5.089418   648A      5.105453   649A      5.109131  
     650A      5.122992   651A      5.150355   652A      5.167593  
     653A      5.179562   654A      5.181577   655A      5.189332  
     656A      5.193084   657A      5.214457   658A      5.230750  
     659A      5.244779   660A      5.253168   661A      5.270985  
     662A      5.284748   663A      5.287158   664A      5.301944  
     665A      5.314735   666A      5.328955   667A      5.346124  
     668A      5.361324   669A      5.365969   670A      5.396053  
     671A      5.408070   672A      5.412872   673A      5.430942  
     674A      5.443843   675A      5.449382   676A      5.466401  
     677A      5.486002   678A      5.488599   679A      5.492496  
     680A      5.494753   681A      5.509553   682A      5.526551  
     683A      5.541655   684A      5.543221   685A      5.576197  
     686A      5.593248   687A      5.598743   688A      5.637388  
     689A      5.649898   690A      5.660752   691A      5.677964  
     692A      5.716003   693A      5.743925   694A      5.755278  
     695A      5.761987   696A      5.792292   697A      5.804930  
     698A      5.811686   699A      5.839820   700A      5.861421  
     701A      5.874490   702A      5.881350   703A      5.920928  
     704A      5.963067   705A      5.983564   706A      6.012039  
     707A      6.078203   708A      6.086023   709A      6.100867  
     710A      6.105951   711A      6.153925   712A      6.175734  
     713A      6.199777   714A      6.212610   715A      6.223899  
     716A      6.238223   717A      6.248331   718A      6.285371  
     719A      6.286719   720A      6.313657   721A      6.347310  
     722A      6.369041   723A      6.399101   724A      6.440731  
     725A      6.625777   726A      6.645940   727A      6.681496  
     728A      6.685405   729A      6.812338   730A      6.823041  
     731A      6.826574   732A      6.836522   733A      6.858356  
     734A      6.880396   735A      6.892588   736A      6.918526  
     737A      6.943215   738A      6.949273   739A      6.960125  
     740A      6.981536   741A      7.016294   742A      7.041675  
     743A      7.064900   744A      7.082829   745A      7.125229  
     746A      7.152344   747A      7.260123   748A      7.291150  
     749A      7.320646   750A      7.366228   751A      7.417244  
     752A      7.432085   753A      7.463789   754A      7.519209  
     755A      7.544785   756A      7.606241   757A      7.614088  
     758A      7.671563   759A      7.692852   760A      7.707005  
     761A      7.734424   762A      7.751972   763A      7.909074  
     764A      7.965310   765A      8.043274   766A      8.095152  
     767A      8.122585   768A      8.273566   769A      8.279194  
     770A      8.481653   771A      8.623434   772A      8.703439  
     773A     15.165389   774A     15.752320   775A     16.768280  
     776A     18.059418   777A     18.118558   778A     18.224059  
     779A     18.452887   780A     19.334198   781A     19.763409  
     782A     20.326701  

    Final Occupation by Irrep:
              A 
    DOCC [    40 ]

  @DF-RHF Final Energy:  -498.03030751198565

   => Energetics <=

    Nuclear Repulsion Energy =            575.8805172609276042
    One-Electron Energy =               -1822.8958503382000345
    Two-Electron Energy =                 748.9850255652866053
    Total Energy =                       -498.0303075119857112

Computation Completed

*** tstop() called on node142.bme.utexas.edu at Sat Nov  7 11:10:40 2020
Module time:
	user time   =     490.21 seconds =       8.17 minutes
	system time =      56.96 seconds =       0.95 minutes
	total time  =        109 seconds =       1.82 minutes
Total time:
	user time   =     490.21 seconds =       8.17 minutes
	system time =      56.96 seconds =       0.95 minutes
	total time  =        109 seconds =       1.82 minutes
   => Loading Basis Set <=

    Name: (AUG-CC-PVTZ AUX)
    Role: RIFIT
    Keyword: DF_BASIS_MP2
    atoms 1-3   entry O          line   264 file /home/xy3866/psi4conda/share/psi4/basis/aug-cc-pvtz-ri.gbs 
    atoms 4-10  entry C          line   148 file /home/xy3866/psi4conda/share/psi4/basis/aug-cc-pvtz-ri.gbs 
    atoms 11-24 entry H          line    30 file /home/xy3866/psi4conda/share/psi4/basis/aug-cc-pvtz-ri.gbs 


*** tstart() called on node142.bme.utexas.edu
*** at Sat Nov  7 11:10:40 2020


  //>>>>>>>>>>>>>>>>>>>>>>>>>>>>>>>>>>>//
  //               DFMP2               //
  //<<<<<<<<<<<<<<<<<<<<<<<<<<<<<<<<<<<//

	 --------------------------------------------------------
	                          DF-MP2                         
	      2nd-Order Density-Fitted Moller-Plesset Theory     
	              RMP2 Wavefunction,   8 Threads             
	                                                         
	        Rob Parrish, Justin Turney, Andy Simmonett,      
	           Ed Hohenstein, and C. David Sherrill          
	 --------------------------------------------------------

   => Auxiliary Basis Set <=

  Basis Set: (AUG-CC-PVTZ AUX)
    Blend: AUG-CC-PVTZ-RI
    Number of shells: 476
    Number of basis function: 1704
    Number of Cartesian functions: 2130
    Spherical Harmonics?: true
    Max angular momentum: 4

	 --------------------------------------------------------
	                 NBF =   782, NAUX =  1704
	 --------------------------------------------------------
	   CLASS    FOCC     OCC    AOCC    AVIR     VIR    FVIR
	   PAIRS       0      40      40     742     742       0
	 --------------------------------------------------------

  DFHelper Memory: AOs need 7.006 GiB; user supplied 22.352 GiB. Using in-core AOs.


         ------------------------------------------------------------
                                     CPHF                           
                                  Rob Parrish                       
         ------------------------------------------------------------

  ==> Geometry <==

    Molecular point group: c1
    Full point group: C1

    Geometry (in Angstrom), charge = 0, multiplicity = 1:

       Center              X                  Y                   Z               Mass       
    ------------   -----------------  -----------------  -----------------  -----------------
         O            1.089570610732    -0.551760633131    -0.282258238844    15.994914619570
         O           -1.075108389268    -0.551539633131    -0.282479238844    15.994914619570
         O            0.007245610732     0.883899366869     1.137872761156    15.994914619570
         C            2.371814610732    -0.042362633131     0.192791761156    12.000000000000
         C           -2.445227789268    -0.007475833131     0.225323961156    12.000000000000
         C            3.365303610732    -1.147855633131    -0.097680238844    12.000000000000
         C            2.686637610732     1.259009366869    -0.520072238844    12.000000000000
         C           -2.672436389268     1.258957366869    -0.520083238844    12.000000000000
         C           -3.350730389268    -1.148005633131    -0.097553238844    12.000000000000
         C            0.007235610732     0.018307366869     0.277373761156    12.000000000000
         H            2.282411610732     0.129777366869     1.269074761156     1.007825032230
         H           -2.267835389268     0.129823366869     1.269018761156     1.007825032230
         H            4.360922610732    -0.855140633131     0.247726761156     1.007825032230
         H            3.074010610732    -2.069539633131     0.410982761156     1.007825032230
         H            3.410471610732    -1.341338633131    -1.172616238844     1.007825032230
         H            3.665419610732     1.633943366869    -0.205752238844     1.007825032230
         H            1.935174610732     2.014229366869    -0.282335238844     1.007825032230
         H            2.705538610732     1.094874366869    -1.601095238844     1.007825032230
         H           -3.651198389268     1.633815366869    -0.205617238844     1.007825032230
         H           -1.920990389268     2.014236366869    -0.282463238844     1.007825032230
         H           -2.691477389268     1.094816366869    -1.601102238844     1.007825032230
         H           -4.346347389268    -0.855400633131     0.247950761156     1.007825032230
         H           -3.059265389268    -2.069629633131     0.411120761156     1.007825032230
         H           -3.396001389268    -1.341551633131    -1.172475238844     1.007825032230

  Nuclear repulsion =  575.880517260927604
  Reference energy  = -498.030307511985654

  ==> Basis Set <==

  Basis Set: AUG-CC-PVTZ
    Blend: AUG-CC-PVTZ
    Number of shells: 266
    Number of basis function: 782
    Number of Cartesian functions: 900
    Spherical Harmonics?: true
    Max angular momentum: 3

  ==> CGRSolver (by Rob Parrish) <==

   Number of roots    =         1
   Preconditioning    =    JACOBI
   Convergence cutoff =     1E-06
   Maximum iterations =       100

  ==> CPHFRHamiltonian (by Rob Parrish) <== 

  ==> MemDFJK: Density-Fitted J/K Matrices <==

    J tasked:                   Yes
    K tasked:                   Yes
    wK tasked:                   No
    OpenMP threads:               8
    Memory [MiB]:             22888
    Algorithm:                 Disk
    Schwarz Cutoff:           1E-12
    Mask sparsity (%):      11.0406
    Fitting Condition:        1E-10

   => Auxiliary Basis Set <=

  Basis Set: (AUG-CC-PVTZ AUX)
    Blend: AUG-CC-PVTZ-JKFIT
    Number of shells: 496
    Number of basis function: 1684
    Number of Cartesian functions: 2080
    Spherical Harmonics?: true
    Max angular momentum: 4

  ==> CPHF Iterations <==

  => Iterations <=

             Iter  Converged  Remaining    Residual
  CGR           1          0          1   1.035E-01
  CGR           2          0          1   2.573E-02
  CGR           3          0          1   9.713E-03
  CGR           4          0          1   2.614E-03
  CGR           5          0          1   1.038E-03
  CGR           6          0          1   2.527E-04
  CGR           7          0          1   9.538E-05
  CGR           8          0          1   2.838E-05
  CGR           9          0          1   1.094E-05
  CGR          10          0          1   3.331E-06
  CGR          11          0          1   1.211E-06
  CGR          12          1          0   4.077E-07

    CGRSolver converged.

	-----------------------------------------------------------
	 ==================> DF-MP2 Energies <==================== 
	-----------------------------------------------------------
	 Reference Energy          =    -498.0303075119856544 [Eh]
	 Singles Energy            =      -0.0000000000000000 [Eh]
	 Same-Spin Energy          =      -0.4949141633565635 [Eh]
	 Opposite-Spin Energy      =      -1.6262643957209773 [Eh]
	 Correlation Energy        =      -2.1211785590775407 [Eh]
	 Total Energy              =    -500.1514860710631751 [Eh]
	-----------------------------------------------------------
	 ================> DF-SCS-MP2 Energies <================== 
	-----------------------------------------------------------
	 SCS Same-Spin Scale       =       0.3333333333333333 [-]
	 SCS Opposite-Spin Scale   =       1.2000000000000000 [-]
	 SCS Same-Spin Energy      =      -0.1649713877855211 [Eh]
	 SCS Opposite-Spin Energy  =      -1.9515172748651726 [Eh]
	 SCS Correlation Energy    =      -2.1164886626506938 [Eh]
	 SCS Total Energy          =    -500.1467961746363358 [Eh]
	-----------------------------------------------------------



Properties will be evaluated at   0.000000,   0.000000,   0.000000 [a0]

Properties computed using the MP2 density matrix

  Nuclear Dipole Moment: [e a0]
     X:     0.0946      Y:     1.1360      Z:    -2.4980

  Electronic Dipole Moment: [e a0]
     X:    -0.2955      Y:    -1.1588      Z:     2.3827

  Dipole Moment: [e a0]
     X:    -0.2008      Y:    -0.0228      Z:    -0.1153     Total:     0.2327

  Dipole Moment: [D]
     X:    -0.5105      Y:    -0.0580      Z:    -0.2931     Total:     0.5915


*** tstop() called on node142.bme.utexas.edu at Sat Nov  7 11:15:17 2020
Module time:
	user time   =    1694.35 seconds =      28.24 minutes
	system time =      66.10 seconds =       1.10 minutes
	total time  =        277 seconds =       4.62 minutes
Total time:
	user time   =    2185.77 seconds =      36.43 minutes
	system time =     123.14 seconds =       2.05 minutes
	total time  =        386 seconds =       6.43 minutes

    Psi4 stopped on: Saturday, 07 November 2020 11:15AM
    Psi4 wall time for execution: 0:06:26.82

*** Psi4 exiting successfully. Buy a developer a beer!
