
    -----------------------------------------------------------------------
          Psi4: An Open-Source Ab Initio Electronic Structure Package
                               Psi4 1.3.2 release

                         Git: Rev {HEAD} ecbda83 


    R. M. Parrish, L. A. Burns, D. G. A. Smith, A. C. Simmonett,
    A. E. DePrince III, E. G. Hohenstein, U. Bozkaya, A. Yu. Sokolov,
    R. Di Remigio, R. M. Richard, J. F. Gonthier, A. M. James,
    H. R. McAlexander, A. Kumar, M. Saitow, X. Wang, B. P. Pritchard,
    P. Verma, H. F. Schaefer III, K. Patkowski, R. A. King, E. F. Valeev,
    F. A. Evangelista, J. M. Turney, T. D. Crawford, and C. D. Sherrill,
    J. Chem. Theory Comput. 13(7) pp 3185--3197 (2017).
    (doi: 10.1021/acs.jctc.7b00174)


                         Additional Contributions by
    P. Kraus, H. Kruse, M. H. Lechner, M. C. Schieber, R. A. Shaw,
    A. Alenaizan, R. Galvelis, Z. L. Glick, S. Lehtola, and J. P. Misiewicz

    -----------------------------------------------------------------------


    Psi4 started on: Wednesday, 04 November 2020 05:10AM

    Process ID: 86225
    Host:       node101.bme.utexas.edu
    PSIDATADIR: /home/xy3866/psi4conda/share/psi4
    Memory:     500.0 MiB
    Threads:    8
    
  ==> Input File <==

--------------------------------------------------------------------------
#psi4
#
memory 32 gb

molecule  {
0 1
  O        1.0739760     0.5885990    -0.5132218
  O       -1.0619730     0.5678990     0.5074520
  C        1.7088310    -0.2054710     0.5088440
  C       -1.7086770    -0.2057720    -0.5087890
  C       -0.0000550     1.3374600    -0.0000670
  C        2.8723760    -0.9214300    -0.1416400
  C       -2.8725180    -0.9212340     0.1416940
  H        2.0537520     0.4628900     1.3122050
  H        0.9992830    -0.9151760     0.9492220
  H       -2.0532400     0.4623650    -1.3124830
  H       -0.9991440    -0.9157750    -0.9486970
  H        0.3294190     1.9615920     0.8407020
  H       -0.3295380     1.9615190    -0.8408980
  H        3.4064450    -1.5299190     0.5938180
  H        2.5134590    -1.5743390    -0.9403860
  H        3.5688290    -0.1989250    -0.5723410
  H       -3.4064460    -1.5299900    -0.5936450
  H       -2.5139360    -1.5738270     0.9408480
  H       -3.5690030    -0.1984340     0.5718480
units angstrom
no_reorient  #important for SAPT in psi4, default
symmetry c1  #important for SAPT in psi4, default
}

set PROPERTIES_ORIGIN ["COM"]
properties('MP2/aug-cc-pvtz', properties = ['dipole'])
--------------------------------------------------------------------------

  Memory set to  29.802 GiB by Python driver.
    SCF Algorithm Type (re)set to DF.

*** tstart() called on node101.bme.utexas.edu
*** at Wed Nov  4 05:10:40 2020

   => Loading Basis Set <=

    Name: AUG-CC-PVTZ
    Role: ORBITAL
    Keyword: BASIS
    atoms 1-2  entry O          line   327 file /home/xy3866/psi4conda/share/psi4/basis/aug-cc-pvtz.gbs 
    atoms 3-7  entry C          line   235 file /home/xy3866/psi4conda/share/psi4/basis/aug-cc-pvtz.gbs 
    atoms 8-19 entry H          line    36 file /home/xy3866/psi4conda/share/psi4/basis/aug-cc-pvtz.gbs 


         ---------------------------------------------------------
                                   SCF
               by Justin Turney, Rob Parrish, Andy Simmonett
                          and Daniel G. A. Smith
                              RHF Reference
                        8 Threads,  30517 MiB Core
         ---------------------------------------------------------

  ==> Geometry <==

    Molecular point group: c1
    Full point group: C1

    Geometry (in Angstrom), charge = 0, multiplicity = 1:

       Center              X                  Y                   Z               Mass       
    ------------   -----------------  -----------------  -----------------  -----------------
         O            1.072137576052     0.551276861205    -0.512341845482    15.994914619570
         O           -1.063811423948     0.530576861205     0.508331954518    15.994914619570
         C            1.706992576052    -0.242793138795     0.509723954518    12.000000000000
         C           -1.710515423948    -0.243094138795    -0.507909045482    12.000000000000
         C           -0.001893423948     1.300137861205     0.000812954518    12.000000000000
         C            2.870537576052    -0.958752138795    -0.140760045482    12.000000000000
         C           -2.874356423948    -0.958556138795     0.142573954518    12.000000000000
         H            2.051913576052     0.425567861205     1.313084954518     1.007825032230
         H            0.997444576052    -0.952498138795     0.950101954518     1.007825032230
         H           -2.055078423948     0.425042861205    -1.311603045482     1.007825032230
         H           -1.000982423948    -0.953097138795    -0.947817045482     1.007825032230
         H            0.327580576052     1.924269861205     0.841581954518     1.007825032230
         H           -0.331376423948     1.924196861205    -0.840018045482     1.007825032230
         H            3.404606576052    -1.567241138795     0.594697954518     1.007825032230
         H            2.511620576052    -1.611661138795    -0.939506045482     1.007825032230
         H            3.566990576052    -0.236247138795    -0.571461045482     1.007825032230
         H           -3.408284423948    -1.567312138795    -0.592765045482     1.007825032230
         H           -2.515774423948    -1.611149138795     0.941727954518     1.007825032230
         H           -3.570841423948    -0.235756138795     0.572727954518     1.007825032230

  Running in c1 symmetry.

  Rotational constants: A =      0.17213  B =      0.04193  C =      0.03744 [cm^-1]
  Rotational constants: A =   5160.21505  B =   1257.13536  C =   1122.50722 [MHz]
  Nuclear repulsion =  332.195154770609633

  Charge       = 0
  Multiplicity = 1
  Electrons    = 58
  Nalpha       = 29
  Nbeta        = 29

  ==> Algorithm <==

  SCF Algorithm Type is DF.
  DIIS enabled.
  MOM disabled.
  Fractional occupation disabled.
  Guess Type is SAD.
  Energy threshold   = 1.00e-10
  Density threshold  = 1.00e-10
  Integral threshold = 0.00e+00

  ==> Primary Basis <==

  Basis Set: AUG-CC-PVTZ
    Blend: AUG-CC-PVTZ
    Number of shells: 206
    Number of basis function: 598
    Number of Cartesian functions: 685
    Spherical Harmonics?: true
    Max angular momentum: 3

   => Loading Basis Set <=

    Name: (AUG-CC-PVTZ AUX)
    Role: JKFIT
    Keyword: DF_BASIS_SCF
    atoms 1-2  entry O          line   286 file /home/xy3866/psi4conda/share/psi4/basis/aug-cc-pvtz-jkfit.gbs 
    atoms 3-7  entry C          line   162 file /home/xy3866/psi4conda/share/psi4/basis/aug-cc-pvtz-jkfit.gbs 
    atoms 8-19 entry H          line    70 file /home/xy3866/psi4conda/share/psi4/basis/aug-cc-pvtz-jkfit.gbs 

  ==> Pre-Iterations <==

   -------------------------------------------------------
    Irrep   Nso     Nmo     Nalpha   Nbeta   Ndocc  Nsocc
   -------------------------------------------------------
     A        598     598       0       0       0       0
   -------------------------------------------------------
    Total     598     598      29      29      29       0
   -------------------------------------------------------

  ==> Integral Setup <==

  DFHelper Memory: AOs need 3.315 GiB; user supplied 22.352 GiB. Using in-core AOs.

  ==> MemDFJK: Density-Fitted J/K Matrices <==

    J tasked:                   Yes
    K tasked:                   Yes
    wK tasked:                   No
    OpenMP threads:               8
    Memory [MiB]:             22888
    Algorithm:                 Disk
    Schwarz Cutoff:           1E-12
    Mask sparsity (%):       5.8842
    Fitting Condition:        1E-10

   => Auxiliary Basis Set <=

  Basis Set: (AUG-CC-PVTZ AUX)
    Blend: AUG-CC-PVTZ-JKFIT
    Number of shells: 378
    Number of basis function: 1280
    Number of Cartesian functions: 1577
    Spherical Harmonics?: true
    Max angular momentum: 4

  Minimum eigenvalue in the overlap matrix is 7.9063551925E-06.
  Using Symmetric Orthogonalization.

  SCF Guess: Superposition of Atomic Densities via on-the-fly atomic UHF.

  ==> Iterations <==

                           Total Energy        Delta E     RMS |[F,P]|

   @DF-RHF iter SAD:  -345.18890273899819   -3.45189e+02   0.00000e+00 
   @DF-RHF iter   1:  -345.92000050295889   -7.31098e-01   1.08412e-03 DIIS
   @DF-RHF iter   2:  -346.12181097320655   -2.01810e-01   5.12437e-04 DIIS
   @DF-RHF iter   3:  -346.16162294208635   -3.98120e-02   1.12221e-04 DIIS
   @DF-RHF iter   4:  -346.16480160904803   -3.17867e-03   3.70726e-05 DIIS
   @DF-RHF iter   5:  -346.16508019654765   -2.78587e-04   7.69012e-06 DIIS
   @DF-RHF iter   6:  -346.16509826731391   -1.80708e-05   2.13402e-06 DIIS
   @DF-RHF iter   7:  -346.16509958550182   -1.31819e-06   6.39780e-07 DIIS
   @DF-RHF iter   8:  -346.16509972051989   -1.35018e-07   1.64013e-07 DIIS
   @DF-RHF iter   9:  -346.16509973235992   -1.18400e-08   4.45115e-08 DIIS
   @DF-RHF iter  10:  -346.16509973306188   -7.01959e-10   1.96621e-08 DIIS
   @DF-RHF iter  11:  -346.16509973314322   -8.13429e-11   4.54068e-09 DIIS
   @DF-RHF iter  12:  -346.16509973314936   -6.13909e-12   9.72003e-10 DIIS
   @DF-RHF iter  13:  -346.16509973315027   -9.09495e-13   2.61939e-10 DIIS
   @DF-RHF iter  14:  -346.16509973314896    1.30740e-12   7.63691e-11 DIIS
  Energy and wave function converged.


  ==> Post-Iterations <==

    Orbital Energies [Eh]
    ---------------------

    Doubly Occupied:                                                      

       1A    -20.559896     2A    -20.559769     3A    -11.323117  
       4A    -11.274368     5A    -11.273758     6A    -11.214673  
       7A    -11.214604     8A     -1.408611     9A     -1.340907  
      10A     -1.033055    11A     -1.012757    12A     -0.895410  
      13A     -0.847530    14A     -0.812257    15A     -0.690499  
      16A     -0.683572    17A     -0.672400    18A     -0.619551  
      19A     -0.617690    20A     -0.578169    21A     -0.538174  
      22A     -0.536980    23A     -0.525705    24A     -0.514474  
      25A     -0.502289    26A     -0.494924    27A     -0.462301  
      28A     -0.438257    29A     -0.435003  

    Virtual:                                                              

      30A      0.030389    31A      0.035372    32A      0.037879  
      33A      0.039722    34A      0.051724    35A      0.051810  
      36A      0.052761    37A      0.058367    38A      0.067362  
      39A      0.076560    40A      0.081917    41A      0.083892  
      42A      0.099072    43A      0.106519    44A      0.122116  
      45A      0.124670    46A      0.129431    47A      0.130163  
      48A      0.134540    49A      0.141407    50A      0.143239  
      51A      0.146821    52A      0.150273    53A      0.151854  
      54A      0.153617    55A      0.158339    56A      0.159644  
      57A      0.183727    58A      0.184730    59A      0.194815  
      60A      0.212766    61A      0.214588    62A      0.223497  
      63A      0.224869    64A      0.235540    65A      0.240265  
      66A      0.250125    67A      0.251733    68A      0.259498  
      69A      0.271539    70A      0.274888    71A      0.280943  
      72A      0.282095    73A      0.286572    74A      0.300559  
      75A      0.305985    76A      0.309196    77A      0.311979  
      78A      0.327869    79A      0.331604    80A      0.334244  
      81A      0.338355    82A      0.348959    83A      0.352720  
      84A      0.356605    85A      0.362831    86A      0.365391  
      87A      0.366634    88A      0.371783    89A      0.380815  
      90A      0.382374    91A      0.387315    92A      0.387591  
      93A      0.397343    94A      0.401298    95A      0.403817  
      96A      0.411356    97A      0.416470    98A      0.424106  
      99A      0.429571   100A      0.434414   101A      0.435832  
     102A      0.439482   103A      0.441453   104A      0.446224  
     105A      0.451228   106A      0.455795   107A      0.459584  
     108A      0.465122   109A      0.467546   110A      0.476496  
     111A      0.483165   112A      0.483477   113A      0.486820  
     114A      0.494799   115A      0.496292   116A      0.503211  
     117A      0.509502   118A      0.513510   119A      0.517779  
     120A      0.520309   121A      0.523324   122A      0.526712  
     123A      0.530946   124A      0.544044   125A      0.544583  
     126A      0.562804   127A      0.563984   128A      0.565638  
     129A      0.579303   130A      0.584308   131A      0.584589  
     132A      0.594620   133A      0.599233   134A      0.606093  
     135A      0.608266   136A      0.614665   137A      0.623387  
     138A      0.633860   139A      0.639008   140A      0.639650  
     141A      0.648207   142A      0.656311   143A      0.664280  
     144A      0.673044   145A      0.690653   146A      0.694132  
     147A      0.709290   148A      0.711246   149A      0.736301  
     150A      0.778120   151A      0.781743   152A      0.790016  
     153A      0.807267   154A      0.808417   155A      0.821031  
     156A      0.824636   157A      0.831150   158A      0.838214  
     159A      0.844462   160A      0.846904   161A      0.854233  
     162A      0.855753   163A      0.865260   164A      0.871252  
     165A      0.878063   166A      0.881924   167A      0.890525  
     168A      0.898191   169A      0.900034   170A      0.906879  
     171A      0.907944   172A      0.915609   173A      0.919943  
     174A      0.926812   175A      0.931367   176A      0.933783  
     177A      0.939159   178A      0.953399   179A      0.957205  
     180A      0.958996   181A      0.971310   182A      0.975842  
     183A      0.980002   184A      0.983500   185A      0.999507  
     186A      1.000124   187A      1.019192   188A      1.021066  
     189A      1.025094   190A      1.041090   191A      1.046104  
     192A      1.046926   193A      1.054311   194A      1.060503  
     195A      1.074232   196A      1.075764   197A      1.085123  
     198A      1.086452   199A      1.099621   200A      1.101602  
     201A      1.105010   202A      1.114594   203A      1.117200  
     204A      1.131206   205A      1.137418   206A      1.141955  
     207A      1.144291   208A      1.149511   209A      1.170041  
     210A      1.170710   211A      1.177367   212A      1.183003  
     213A      1.185389   214A      1.200846   215A      1.202899  
     216A      1.203608   217A      1.207878   218A      1.215636  
     219A      1.221448   220A      1.234785   221A      1.243550  
     222A      1.257358   223A      1.260085   224A      1.260515  
     225A      1.269452   226A      1.269601   227A      1.299094  
     228A      1.304111   229A      1.314978   230A      1.319241  
     231A      1.320272   232A      1.335982   233A      1.343037  
     234A      1.345752   235A      1.349912   236A      1.373182  
     237A      1.381319   238A      1.400333   239A      1.409759  
     240A      1.416105   241A      1.435088   242A      1.435567  
     243A      1.456823   244A      1.458428   245A      1.461445  
     246A      1.472110   247A      1.477409   248A      1.493994  
     249A      1.494928   250A      1.511974   251A      1.517268  
     252A      1.543138   253A      1.555846   254A      1.568253  
     255A      1.572537   256A      1.579800   257A      1.596966  
     258A      1.601919   259A      1.604402   260A      1.617476  
     261A      1.627856   262A      1.633266   263A      1.652274  
     264A      1.656226   265A      1.666570   266A      1.668988  
     267A      1.673828   268A      1.675129   269A      1.687395  
     270A      1.688758   271A      1.702141   272A      1.708671  
     273A      1.710202   274A      1.717966   275A      1.718652  
     276A      1.727327   277A      1.732722   278A      1.743221  
     279A      1.748018   280A      1.760989   281A      1.767734  
     282A      1.777163   283A      1.781379   284A      1.794263  
     285A      1.796707   286A      1.809559   287A      1.820891  
     288A      1.824738   289A      1.840224   290A      1.843578  
     291A      1.851928   292A      1.859325   293A      1.866655  
     294A      1.868312   295A      1.883798   296A      1.910144  
     297A      1.914524   298A      1.915531   299A      1.925056  
     300A      1.927808   301A      1.953265   302A      1.958652  
     303A      1.980427   304A      1.982781   305A      1.991863  
     306A      1.996409   307A      2.015183   308A      2.017946  
     309A      2.039095   310A      2.049814   311A      2.054993  
     312A      2.071836   313A      2.080508   314A      2.105225  
     315A      2.129190   316A      2.132761   317A      2.137450  
     318A      2.141744   319A      2.186904   320A      2.193585  
     321A      2.198650   322A      2.221913   323A      2.223219  
     324A      2.228768   325A      2.246864   326A      2.247741  
     327A      2.255493   328A      2.265555   329A      2.268276  
     330A      2.282141   331A      2.285673   332A      2.299286  
     333A      2.315631   334A      2.329570   335A      2.332815  
     336A      2.336486   337A      2.347698   338A      2.406135  
     339A      2.426559   340A      2.435570   341A      2.443008  
     342A      2.453890   343A      2.468995   344A      2.488351  
     345A      2.554014   346A      2.555453   347A      2.573058  
     348A      2.644370   349A      2.677996   350A      2.683957  
     351A      2.705066   352A      2.753883   353A      2.760647  
     354A      2.767340   355A      2.800223   356A      2.844085  
     357A      2.846111   358A      2.860728   359A      2.899620  
     360A      2.931137   361A      2.946004   362A      2.946682  
     363A      2.952794   364A      2.987468   365A      3.015734  
     366A      3.019960   367A      3.061752   368A      3.085483  
     369A      3.145877   370A      3.146842   371A      3.155992  
     372A      3.160617   373A      3.194486   374A      3.220944  
     375A      3.245069   376A      3.274361   377A      3.306841  
     378A      3.321399   379A      3.342999   380A      3.385694  
     381A      3.395355   382A      3.411721   383A      3.447936  
     384A      3.461662   385A      3.464011   386A      3.484788  
     387A      3.503970   388A      3.510931   389A      3.534713  
     390A      3.536083   391A      3.561869   392A      3.615827  
     393A      3.628529   394A      3.637811   395A      3.648692  
     396A      3.649975   397A      3.658806   398A      3.671205  
     399A      3.687662   400A      3.696149   401A      3.717181  
     402A      3.729806   403A      3.743490   404A      3.744471  
     405A      3.763461   406A      3.767089   407A      3.773265  
     408A      3.797905   409A      3.806155   410A      3.812343  
     411A      3.825152   412A      3.846230   413A      3.858752  
     414A      3.866100   415A      3.897090   416A      3.900777  
     417A      3.914774   418A      3.926652   419A      3.951117  
     420A      3.957955   421A      3.977226   422A      3.981400  
     423A      3.987013   424A      3.990357   425A      3.992950  
     426A      4.002837   427A      4.011720   428A      4.024715  
     429A      4.036223   430A      4.068880   431A      4.072025  
     432A      4.090232   433A      4.094887   434A      4.118118  
     435A      4.132325   436A      4.144814   437A      4.159199  
     438A      4.185329   439A      4.192786   440A      4.213386  
     441A      4.218639   442A      4.225525   443A      4.232649  
     444A      4.247030   445A      4.268013   446A      4.279495  
     447A      4.280805   448A      4.290790   449A      4.305958  
     450A      4.314440   451A      4.322528   452A      4.342854  
     453A      4.367341   454A      4.385287   455A      4.398003  
     456A      4.414262   457A      4.444146   458A      4.449453  
     459A      4.474338   460A      4.481464   461A      4.514855  
     462A      4.526260   463A      4.531959   464A      4.549966  
     465A      4.564152   466A      4.570150   467A      4.588279  
     468A      4.623739   469A      4.631313   470A      4.660711  
     471A      4.672143   472A      4.680704   473A      4.719993  
     474A      4.725105   475A      4.758243   476A      4.769226  
     477A      4.779245   478A      4.794739   479A      4.808188  
     480A      4.840807   481A      4.848519   482A      4.855227  
     483A      4.859600   484A      4.867338   485A      4.873585  
     486A      4.889662   487A      4.892973   488A      4.916320  
     489A      4.933489   490A      4.952657   491A      4.963876  
     492A      4.973284   493A      5.019576   494A      5.040318  
     495A      5.066197   496A      5.075874   497A      5.082410  
     498A      5.091190   499A      5.113703   500A      5.115299  
     501A      5.151355   502A      5.155002   503A      5.172799  
     504A      5.174886   505A      5.187293   506A      5.211399  
     507A      5.237576   508A      5.245683   509A      5.255224  
     510A      5.280581   511A      5.286045   512A      5.298395  
     513A      5.341810   514A      5.372335   515A      5.380320  
     516A      5.409349   517A      5.415032   518A      5.428091  
     519A      5.438736   520A      5.447820   521A      5.461358  
     522A      5.485052   523A      5.500465   524A      5.515410  
     525A      5.527898   526A      5.555266   527A      5.585534  
     528A      5.597077   529A      5.602461   530A      5.629286  
     531A      5.669145   532A      5.689475   533A      5.714450  
     534A      5.768802   535A      5.775853   536A      5.780629  
     537A      5.811026   538A      5.826673   539A      5.834537  
     540A      5.888128   541A      5.959033   542A      6.001506  
     543A      6.007539   544A      6.022001   545A      6.057882  
     546A      6.063060   547A      6.077819   548A      6.122435  
     549A      6.159458   550A      6.166233   551A      6.202186  
     552A      6.221138   553A      6.242428   554A      6.243662  
     555A      6.277816   556A      6.321205   557A      6.417374  
     558A      6.422493   559A      6.669654   560A      6.707575  
     561A      6.749253   562A      6.754250   563A      6.798163  
     564A      6.811033   565A      6.813974   566A      6.868808  
     567A      6.890747   568A      7.042014   569A      7.053821  
     570A      7.074209   571A      7.131180   572A      7.212524  
     573A      7.275276   574A      7.297920   575A      7.391112  
     576A      7.486364   577A      7.499646   578A      7.507672  
     579A      7.599895   580A      7.626830   581A      7.652408  
     582A      7.748883   583A      7.793902   584A      7.823141  
     585A      7.833088   586A      8.008459   587A      8.058833  
     588A      8.339077   589A      8.389128   590A      8.492701  
     591A      8.514976   592A     15.541917   593A     15.727239  
     594A     17.937547   595A     17.958997   596A     18.435955  
     597A     18.523565   598A     18.589469  

    Final Occupation by Irrep:
              A 
    DOCC [    29 ]

  @DF-RHF Final Energy:  -346.16509973314896

   => Energetics <=

    Nuclear Repulsion Energy =            332.1951547706096335
    One-Electron Energy =               -1130.5591090098801033
    Two-Electron Energy =                 452.1988545061215063
    Total Energy =                       -346.1650997331489634

Computation Completed

*** tstop() called on node101.bme.utexas.edu at Wed Nov  4 05:12:30 2020
Module time:
	user time   =     198.85 seconds =       3.31 minutes
	system time =      25.96 seconds =       0.43 minutes
	total time  =        110 seconds =       1.83 minutes
Total time:
	user time   =     198.85 seconds =       3.31 minutes
	system time =      25.96 seconds =       0.43 minutes
	total time  =        110 seconds =       1.83 minutes
   => Loading Basis Set <=

    Name: (AUG-CC-PVTZ AUX)
    Role: RIFIT
    Keyword: DF_BASIS_MP2
    atoms 1-2  entry O          line   264 file /home/xy3866/psi4conda/share/psi4/basis/aug-cc-pvtz-ri.gbs 
    atoms 3-7  entry C          line   148 file /home/xy3866/psi4conda/share/psi4/basis/aug-cc-pvtz-ri.gbs 
    atoms 8-19 entry H          line    30 file /home/xy3866/psi4conda/share/psi4/basis/aug-cc-pvtz-ri.gbs 


*** tstart() called on node101.bme.utexas.edu
*** at Wed Nov  4 05:12:30 2020


  //>>>>>>>>>>>>>>>>>>>>>>>>>>>>>>>>>>>//
  //               DFMP2               //
  //<<<<<<<<<<<<<<<<<<<<<<<<<<<<<<<<<<<//

	 --------------------------------------------------------
	                          DF-MP2                         
	      2nd-Order Density-Fitted Moller-Plesset Theory     
	              RMP2 Wavefunction,   8 Threads             
	                                                         
	        Rob Parrish, Justin Turney, Andy Simmonett,      
	           Ed Hohenstein, and C. David Sherrill          
	 --------------------------------------------------------

   => Auxiliary Basis Set <=

  Basis Set: (AUG-CC-PVTZ AUX)
    Blend: AUG-CC-PVTZ-RI
    Number of shells: 364
    Number of basis function: 1294
    Number of Cartesian functions: 1612
    Spherical Harmonics?: true
    Max angular momentum: 4

	 --------------------------------------------------------
	                 NBF =   598, NAUX =  1294
	 --------------------------------------------------------
	   CLASS    FOCC     OCC    AOCC    AVIR     VIR    FVIR
	   PAIRS       0      29      29     569     569       0
	 --------------------------------------------------------

  DFHelper Memory: AOs need 3.315 GiB; user supplied 22.352 GiB. Using in-core AOs.


         ------------------------------------------------------------
                                     CPHF                           
                                  Rob Parrish                       
         ------------------------------------------------------------

  ==> Geometry <==

    Molecular point group: c1
    Full point group: C1

    Geometry (in Angstrom), charge = 0, multiplicity = 1:

       Center              X                  Y                   Z               Mass       
    ------------   -----------------  -----------------  -----------------  -----------------
         O            1.072137576052     0.551276861205    -0.512341845482    15.994914619570
         O           -1.063811423948     0.530576861205     0.508331954518    15.994914619570
         C            1.706992576052    -0.242793138795     0.509723954518    12.000000000000
         C           -1.710515423948    -0.243094138795    -0.507909045482    12.000000000000
         C           -0.001893423948     1.300137861205     0.000812954518    12.000000000000
         C            2.870537576052    -0.958752138795    -0.140760045482    12.000000000000
         C           -2.874356423948    -0.958556138795     0.142573954518    12.000000000000
         H            2.051913576052     0.425567861205     1.313084954518     1.007825032230
         H            0.997444576052    -0.952498138795     0.950101954518     1.007825032230
         H           -2.055078423948     0.425042861205    -1.311603045482     1.007825032230
         H           -1.000982423948    -0.953097138795    -0.947817045482     1.007825032230
         H            0.327580576052     1.924269861205     0.841581954518     1.007825032230
         H           -0.331376423948     1.924196861205    -0.840018045482     1.007825032230
         H            3.404606576052    -1.567241138795     0.594697954518     1.007825032230
         H            2.511620576052    -1.611661138795    -0.939506045482     1.007825032230
         H            3.566990576052    -0.236247138795    -0.571461045482     1.007825032230
         H           -3.408284423948    -1.567312138795    -0.592765045482     1.007825032230
         H           -2.515774423948    -1.611149138795     0.941727954518     1.007825032230
         H           -3.570841423948    -0.235756138795     0.572727954518     1.007825032230

  Nuclear repulsion =  332.195154770609633
  Reference energy  = -346.165099733148963

  ==> Basis Set <==

  Basis Set: AUG-CC-PVTZ
    Blend: AUG-CC-PVTZ
    Number of shells: 206
    Number of basis function: 598
    Number of Cartesian functions: 685
    Spherical Harmonics?: true
    Max angular momentum: 3

  ==> CGRSolver (by Rob Parrish) <==

   Number of roots    =         1
   Preconditioning    =    JACOBI
   Convergence cutoff =     1E-06
   Maximum iterations =       100

  ==> CPHFRHamiltonian (by Rob Parrish) <== 

  ==> MemDFJK: Density-Fitted J/K Matrices <==

    J tasked:                   Yes
    K tasked:                   Yes
    wK tasked:                   No
    OpenMP threads:               8
    Memory [MiB]:             22888
    Algorithm:                 Disk
    Schwarz Cutoff:           1E-12
    Mask sparsity (%):       5.8842
    Fitting Condition:        1E-10

   => Auxiliary Basis Set <=

  Basis Set: (AUG-CC-PVTZ AUX)
    Blend: AUG-CC-PVTZ-JKFIT
    Number of shells: 378
    Number of basis function: 1280
    Number of Cartesian functions: 1577
    Spherical Harmonics?: true
    Max angular momentum: 4

  ==> CPHF Iterations <==

  => Iterations <=

             Iter  Converged  Remaining    Residual
  CGR           1          0          1   8.177E-02
  CGR           2          0          1   1.912E-02
  CGR           3          0          1   7.352E-03
  CGR           4          0          1   1.764E-03
  CGR           5          0          1   4.585E-04
  CGR           6          0          1   1.527E-04
  CGR           7          0          1   3.829E-05
  CGR           8          0          1   1.314E-05
  CGR           9          0          1   4.085E-06
  CGR          10          0          1   1.081E-06
  CGR          11          1          0   3.148E-07

    CGRSolver converged.

	-----------------------------------------------------------
	 ==================> DF-MP2 Energies <==================== 
	-----------------------------------------------------------
	 Reference Energy          =    -346.1650997331489634 [Eh]
	 Singles Energy            =      -0.0000000000000000 [Eh]
	 Same-Spin Energy          =      -0.3395295157126383 [Eh]
	 Opposite-Spin Energy      =      -1.1627699706703016 [Eh]
	 Correlation Energy        =      -1.5022994863829400 [Eh]
	 Total Energy              =    -347.6673992195318874 [Eh]
	-----------------------------------------------------------
	 ================> DF-SCS-MP2 Energies <================== 
	-----------------------------------------------------------
	 SCS Same-Spin Scale       =       0.3333333333333333 [-]
	 SCS Opposite-Spin Scale   =       1.2000000000000000 [-]
	 SCS Same-Spin Energy      =      -0.1131765052375461 [Eh]
	 SCS Opposite-Spin Energy  =      -1.3953239648043618 [Eh]
	 SCS Correlation Energy    =      -1.5085004700419080 [Eh]
	 SCS Total Energy          =    -347.6736002031908583 [Eh]
	-----------------------------------------------------------



Properties will be evaluated at  -0.000000,   0.000000,   0.000000 [a0]

Properties computed using the MP2 density matrix

  Nuclear Dipole Moment: [e a0]
     X:    -0.0208      Y:    -3.7783      Z:     0.0101

  Electronic Dipole Moment: [e a0]
     X:     0.0147      Y:     3.6040      Z:    -0.0029

  Dipole Moment: [e a0]
     X:    -0.0061      Y:    -0.1744      Z:     0.0071     Total:     0.1746

  Dipole Moment: [D]
     X:    -0.0155      Y:    -0.4432      Z:     0.0181     Total:     0.4438


*** tstop() called on node101.bme.utexas.edu at Wed Nov  4 05:14:50 2020
Module time:
	user time   =     606.97 seconds =      10.12 minutes
	system time =      32.11 seconds =       0.54 minutes
	total time  =        140 seconds =       2.33 minutes
Total time:
	user time   =     807.15 seconds =      13.45 minutes
	system time =      58.12 seconds =       0.97 minutes
	total time  =        250 seconds =       4.17 minutes

    Psi4 stopped on: Wednesday, 04 November 2020 05:14AM
    Psi4 wall time for execution: 0:04:10.81

*** Psi4 exiting successfully. Buy a developer a beer!
