
    -----------------------------------------------------------------------
          Psi4: An Open-Source Ab Initio Electronic Structure Package
                               Psi4 1.3.2 release

                         Git: Rev {HEAD} ecbda83 


    R. M. Parrish, L. A. Burns, D. G. A. Smith, A. C. Simmonett,
    A. E. DePrince III, E. G. Hohenstein, U. Bozkaya, A. Yu. Sokolov,
    R. Di Remigio, R. M. Richard, J. F. Gonthier, A. M. James,
    H. R. McAlexander, A. Kumar, M. Saitow, X. Wang, B. P. Pritchard,
    P. Verma, H. F. Schaefer III, K. Patkowski, R. A. King, E. F. Valeev,
    F. A. Evangelista, J. M. Turney, T. D. Crawford, and C. D. Sherrill,
    J. Chem. Theory Comput. 13(7) pp 3185--3197 (2017).
    (doi: 10.1021/acs.jctc.7b00174)


                         Additional Contributions by
    P. Kraus, H. Kruse, M. H. Lechner, M. C. Schieber, R. A. Shaw,
    A. Alenaizan, R. Galvelis, Z. L. Glick, S. Lehtola, and J. P. Misiewicz

    -----------------------------------------------------------------------


    Psi4 started on: Tuesday, 03 November 2020 07:45AM

    Process ID: 100134
    Host:       node58.bme.utexas.edu
    PSIDATADIR: /home/xy3866/psi4conda/share/psi4
    Memory:     500.0 MiB
    Threads:    8
    
  ==> Input File <==

--------------------------------------------------------------------------
#psi4
#
memory 32 gb

molecule  {
0 1
  O        1.1855920    -1.3251230    -0.0110750
  O       -3.7874790    -0.1788050    -0.0307850
  C        2.2579520     0.8287430     0.0207180
  C        3.7608512    -0.0051444    -0.0097419
  C        1.0665970    -0.1008810     0.0170560
  C       -0.2810060     0.5415760     0.0240110
  C       -1.4085440    -0.1910960     0.0012370
  C       -2.7329950     0.4481680    -0.0067340
  H        2.1768340     1.4746290     0.9052650
  H        2.1584520     1.5067170    -0.8392700
  H        3.6798240    -0.5618240     0.8622080
  H        3.6612870    -0.5322660    -0.8978130
  H        4.4176170     0.8001410    -0.0031560
  H       -0.3336460     1.6309400     0.0414110
  H       -1.3609630    -1.2775220    -0.0163660
  H       -2.7297600     1.5577740     0.0156350
units angstrom
no_reorient  #important for SAPT in psi4, default
symmetry c1  #important for SAPT in psi4, default
}

set PROPERTIES_ORIGIN ["COM"]
properties('MP2/aug-cc-pvtz', properties = ['dipole'])
--------------------------------------------------------------------------

  Memory set to  29.802 GiB by Python driver.
    SCF Algorithm Type (re)set to DF.

*** tstart() called on node58.bme.utexas.edu
*** at Tue Nov  3 07:45:32 2020

   => Loading Basis Set <=

    Name: AUG-CC-PVTZ
    Role: ORBITAL
    Keyword: BASIS
    atoms 1-2  entry O          line   327 file /home/xy3866/psi4conda/share/psi4/basis/aug-cc-pvtz.gbs 
    atoms 3-8  entry C          line   235 file /home/xy3866/psi4conda/share/psi4/basis/aug-cc-pvtz.gbs 
    atoms 9-16 entry H          line    36 file /home/xy3866/psi4conda/share/psi4/basis/aug-cc-pvtz.gbs 


         ---------------------------------------------------------
                                   SCF
               by Justin Turney, Rob Parrish, Andy Simmonett
                          and Daniel G. A. Smith
                              RHF Reference
                        8 Threads,  30517 MiB Core
         ---------------------------------------------------------

  ==> Geometry <==

    Molecular point group: c1
    Full point group: C1

    Geometry (in Angstrom), charge = 0, multiplicity = 1:

       Center              X                  Y                   Z               Mass       
    ------------   -----------------  -----------------  -----------------  -----------------
         O            1.166866280773    -1.314732866988    -0.010695280462    15.994914619570
         O           -3.806204719227    -0.168414866988    -0.030405280462    15.994914619570
         C            2.239226280773     0.839133133012     0.021097719538    12.000000000000
         C            3.742125480773     0.005245733012    -0.009362180462    12.000000000000
         C            1.047871280773    -0.090490866988     0.017435719538    12.000000000000
         C           -0.299731719227     0.551966133012     0.024390719538    12.000000000000
         C           -1.427269719227    -0.180705866988     0.001616719538    12.000000000000
         C           -2.751720719227     0.458558133012    -0.006354280462    12.000000000000
         H            2.158108280773     1.485019133012     0.905644719538     1.007825032230
         H            2.139726280773     1.517107133012    -0.838890280462     1.007825032230
         H            3.661098280773    -0.551433866988     0.862587719538     1.007825032230
         H            3.642561280773    -0.521875866988    -0.897433280462     1.007825032230
         H            4.398891280773     0.810531133012    -0.002776280462     1.007825032230
         H           -0.352371719227     1.641330133012     0.041790719538     1.007825032230
         H           -1.379688719227    -1.267131866988    -0.015986280462     1.007825032230
         H           -2.748485719227     1.568164133012     0.016014719538     1.007825032230

  Running in c1 symmetry.

  Rotational constants: A =      0.28610  B =      0.02480  C =      0.02302 [cm^-1]
  Rotational constants: A =   8576.93516  B =    743.46100  C =    689.97620 [MHz]
  Nuclear repulsion =  328.522669691503950

  Charge       = 0
  Multiplicity = 1
  Electrons    = 60
  Nalpha       = 30
  Nbeta        = 30

  ==> Algorithm <==

  SCF Algorithm Type is DF.
  DIIS enabled.
  MOM disabled.
  Fractional occupation disabled.
  Guess Type is SAD.
  Energy threshold   = 1.00e-10
  Density threshold  = 1.00e-10
  Integral threshold = 0.00e+00

  ==> Primary Basis <==

  Basis Set: AUG-CC-PVTZ
    Blend: AUG-CC-PVTZ
    Number of shells: 184
    Number of basis function: 552
    Number of Cartesian functions: 640
    Spherical Harmonics?: true
    Max angular momentum: 3

   => Loading Basis Set <=

    Name: (AUG-CC-PVTZ AUX)
    Role: JKFIT
    Keyword: DF_BASIS_SCF
    atoms 1-2  entry O          line   286 file /home/xy3866/psi4conda/share/psi4/basis/aug-cc-pvtz-jkfit.gbs 
    atoms 3-8  entry C          line   162 file /home/xy3866/psi4conda/share/psi4/basis/aug-cc-pvtz-jkfit.gbs 
    atoms 9-16 entry H          line    70 file /home/xy3866/psi4conda/share/psi4/basis/aug-cc-pvtz-jkfit.gbs 

  ==> Pre-Iterations <==

   -------------------------------------------------------
    Irrep   Nso     Nmo     Nalpha   Nbeta   Ndocc  Nsocc
   -------------------------------------------------------
     A        552     552       0       0       0       0
   -------------------------------------------------------
    Total     552     552      30      30      30       0
   -------------------------------------------------------

  ==> Integral Setup <==

  DFHelper Memory: AOs need 2.579 GiB; user supplied 22.352 GiB. Using in-core AOs.

  ==> MemDFJK: Density-Fitted J/K Matrices <==

    J tasked:                   Yes
    K tasked:                   Yes
    wK tasked:                   No
    OpenMP threads:               8
    Memory [MiB]:             22888
    Algorithm:                 Disk
    Schwarz Cutoff:           1E-12
    Mask sparsity (%):       8.6596
    Fitting Condition:        1E-10

   => Auxiliary Basis Set <=

  Basis Set: (AUG-CC-PVTZ AUX)
    Blend: AUG-CC-PVTZ-JKFIT
    Number of shells: 352
    Number of basis function: 1200
    Number of Cartesian functions: 1488
    Spherical Harmonics?: true
    Max angular momentum: 4

  Minimum eigenvalue in the overlap matrix is 2.9761487112E-06.
  Using Symmetric Orthogonalization.

  SCF Guess: Superposition of Atomic Densities via on-the-fly atomic UHF.

  ==> Iterations <==

                           Total Energy        Delta E     RMS |[F,P]|

   @DF-RHF iter SAD:  -380.12889310643402   -3.80129e+02   0.00000e+00 
   @DF-RHF iter   1:  -381.42375977669553   -1.29487e+00   1.25953e-03 DIIS
   @DF-RHF iter   2:  -381.59622498457304   -1.72465e-01   8.36910e-04 DIIS
   @DF-RHF iter   3:  -381.66988177224141   -7.36568e-02   1.71891e-04 DIIS
   @DF-RHF iter   4:  -381.67526700588508   -5.38523e-03   5.83267e-05 DIIS
   @DF-RHF iter   5:  -381.67607532030445   -8.08314e-04   1.12086e-05 DIIS
   @DF-RHF iter   6:  -381.67613196656185   -5.66463e-05   4.97612e-06 DIIS
   @DF-RHF iter   7:  -381.67614023759296   -8.27103e-06   2.55394e-06 DIIS
   @DF-RHF iter   8:  -381.67614188964131   -1.65205e-06   1.09234e-06 DIIS
   @DF-RHF iter   9:  -381.67614229763012   -4.07989e-07   3.21099e-07 DIIS
   @DF-RHF iter  10:  -381.67614234281058   -4.51805e-08   8.88225e-08 DIIS
   @DF-RHF iter  11:  -381.67614234614911   -3.33853e-09   3.31936e-08 DIIS
   @DF-RHF iter  12:  -381.67614234644520   -2.96097e-10   1.17374e-08 DIIS
   @DF-RHF iter  13:  -381.67614234649352   -4.83169e-11   4.06278e-09 DIIS
   @DF-RHF iter  14:  -381.67614234649960   -6.08225e-12   1.92136e-09 DIIS
   @DF-RHF iter  15:  -381.67614234650324   -3.63798e-12   7.17512e-10 DIIS
   @DF-RHF iter  16:  -381.67614234650256    6.82121e-13   2.65197e-10 DIIS
   @DF-RHF iter  17:  -381.67614234650267   -1.13687e-13   1.21407e-10 DIIS
   @DF-RHF iter  18:  -381.67614234650250    1.70530e-13   5.91865e-11 DIIS
  Energy and wave function converged.


  ==> Post-Iterations <==

    Orbital Energies [Eh]
    ---------------------

    Doubly Occupied:                                                      

       1A    -20.573463     2A    -20.562196     3A    -11.353177  
       4A    -11.350810     5A    -11.281432     6A    -11.277138  
       7A    -11.260445     8A    -11.229870     9A     -1.394884  
      10A     -1.392416    11A     -1.113271    12A     -1.047203  
      13A     -0.956461    14A     -0.888890    15A     -0.800915  
      16A     -0.754058    17A     -0.692993    18A     -0.683600  
      19A     -0.641920    20A     -0.636889    21A     -0.627522  
      22A     -0.578833    23A     -0.569411    24A     -0.565952  
      25A     -0.546384    26A     -0.510338    27A     -0.471028  
      28A     -0.450743    29A     -0.432196    30A     -0.404079  

    Virtual:                                                              

      31A      0.019638    32A      0.028484    33A      0.029727  
      34A      0.035681    35A      0.039856    36A      0.048033  
      37A      0.054458    38A      0.059395    39A      0.068978  
      40A      0.085121    41A      0.085626    42A      0.094303  
      43A      0.102672    44A      0.105747    45A      0.113818  
      46A      0.121716    47A      0.122779    48A      0.124822  
      49A      0.126713    50A      0.134296    51A      0.135105  
      52A      0.143045    53A      0.148586    54A      0.153479  
      55A      0.156981    56A      0.164999    57A      0.171386  
      58A      0.178950    59A      0.194516    60A      0.201440  
      61A      0.206459    62A      0.212850    63A      0.218481  
      64A      0.223242    65A      0.227749    66A      0.237603  
      67A      0.243692    68A      0.247574    69A      0.257734  
      70A      0.258854    71A      0.261461    72A      0.262795  
      73A      0.270094    74A      0.279276    75A      0.288647  
      76A      0.294436    77A      0.303783    78A      0.307241  
      79A      0.312312    80A      0.317213    81A      0.321225  
      82A      0.328501    83A      0.333400    84A      0.335915  
      85A      0.345256    86A      0.349431    87A      0.366569  
      88A      0.368201    89A      0.374080    90A      0.380863  
      91A      0.383193    92A      0.389144    93A      0.391928  
      94A      0.398960    95A      0.404872    96A      0.413013  
      97A      0.417713    98A      0.425041    99A      0.428551  
     100A      0.433546   101A      0.438055   102A      0.447544  
     103A      0.452191   104A      0.453436   105A      0.456483  
     106A      0.460801   107A      0.464866   108A      0.465718  
     109A      0.473486   110A      0.474311   111A      0.481087  
     112A      0.488902   113A      0.495658   114A      0.501898  
     115A      0.504808   116A      0.509819   117A      0.516616  
     118A      0.518556   119A      0.521898   120A      0.528294  
     121A      0.538147   122A      0.549413   123A      0.556916  
     124A      0.562524   125A      0.581926   126A      0.587723  
     127A      0.589163   128A      0.594410   129A      0.596739  
     130A      0.608918   131A      0.619840   132A      0.622402  
     133A      0.644996   134A      0.652752   135A      0.664317  
     136A      0.684492   137A      0.687432   138A      0.698896  
     139A      0.709923   140A      0.721863   141A      0.724879  
     142A      0.728431   143A      0.764497   144A      0.769691  
     145A      0.778020   146A      0.788039   147A      0.793181  
     148A      0.793831   149A      0.808280   150A      0.817066  
     151A      0.824588   152A      0.827803   153A      0.836163  
     154A      0.844553   155A      0.852389   156A      0.853910  
     157A      0.862608   158A      0.862815   159A      0.876060  
     160A      0.880270   161A      0.883386   162A      0.887121  
     163A      0.891445   164A      0.900326   165A      0.901047  
     166A      0.906184   167A      0.910687   168A      0.921986  
     169A      0.923480   170A      0.930705   171A      0.936913  
     172A      0.946718   173A      0.949881   174A      0.959179  
     175A      0.967322   176A      0.969699   177A      0.974564  
     178A      0.981294   179A      0.991580   180A      0.995465  
     181A      0.997078   182A      1.006379   183A      1.017798  
     184A      1.023313   185A      1.030118   186A      1.031341  
     187A      1.036013   188A      1.053637   189A      1.060533  
     190A      1.066421   191A      1.070171   192A      1.084835  
     193A      1.085905   194A      1.103559   195A      1.104232  
     196A      1.107866   197A      1.108782   198A      1.109704  
     199A      1.133307   200A      1.148854   201A      1.154729  
     202A      1.166386   203A      1.171658   204A      1.175519  
     205A      1.182690   206A      1.189248   207A      1.191180  
     208A      1.198992   209A      1.209111   210A      1.215785  
     211A      1.218192   212A      1.227757   213A      1.242251  
     214A      1.249072   215A      1.257871   216A      1.273543  
     217A      1.283342   218A      1.285726   219A      1.302144  
     220A      1.313836   221A      1.321166   222A      1.327718  
     223A      1.337985   224A      1.340734   225A      1.356008  
     226A      1.368683   227A      1.377762   228A      1.409520  
     229A      1.417097   230A      1.423761   231A      1.424253  
     232A      1.439934   233A      1.449305   234A      1.463138  
     235A      1.476883   236A      1.497686   237A      1.501117  
     238A      1.505889   239A      1.518216   240A      1.534614  
     241A      1.551606   242A      1.553747   243A      1.560027  
     244A      1.572792   245A      1.580650   246A      1.597791  
     247A      1.605651   248A      1.611714   249A      1.624144  
     250A      1.634310   251A      1.649569   252A      1.652265  
     253A      1.659217   254A      1.665364   255A      1.672621  
     256A      1.681423   257A      1.702486   258A      1.715134  
     259A      1.715931   260A      1.731563   261A      1.735535  
     262A      1.738544   263A      1.755310   264A      1.764315  
     265A      1.774912   266A      1.775517   267A      1.788419  
     268A      1.804428   269A      1.805462   270A      1.818152  
     271A      1.826825   272A      1.835514   273A      1.844540  
     274A      1.854646   275A      1.875651   276A      1.890265  
     277A      1.898845   278A      1.904846   279A      1.923817  
     280A      1.930057   281A      1.945676   282A      1.970853  
     283A      1.980336   284A      1.989635   285A      1.992625  
     286A      1.997624   287A      2.015352   288A      2.019716  
     289A      2.033899   290A      2.037753   291A      2.050449  
     292A      2.060354   293A      2.086626   294A      2.102990  
     295A      2.127452   296A      2.142784   297A      2.146339  
     298A      2.165391   299A      2.183283   300A      2.186151  
     301A      2.204630   302A      2.227674   303A      2.232961  
     304A      2.244429   305A      2.257086   306A      2.275056  
     307A      2.287435   308A      2.295647   309A      2.323921  
     310A      2.329960   311A      2.340496   312A      2.349290  
     313A      2.362607   314A      2.382834   315A      2.388799  
     316A      2.399431   317A      2.419285   318A      2.434067  
     319A      2.436031   320A      2.467003   321A      2.476205  
     322A      2.495003   323A      2.514615   324A      2.537426  
     325A      2.557167   326A      2.581059   327A      2.616776  
     328A      2.622831   329A      2.648834   330A      2.653626  
     331A      2.668573   332A      2.681529   333A      2.715313  
     334A      2.736543   335A      2.761320   336A      2.796588  
     337A      2.798239   338A      2.815491   339A      2.829460  
     340A      2.869692   341A      2.892080   342A      2.938075  
     343A      2.953939   344A      2.977643   345A      3.023281  
     346A      3.027633   347A      3.062548   348A      3.085245  
     349A      3.107749   350A      3.170466   351A      3.195400  
     352A      3.210247   353A      3.221667   354A      3.242634  
     355A      3.267500   356A      3.278978   357A      3.286897  
     358A      3.332384   359A      3.342223   360A      3.348830  
     361A      3.375650   362A      3.379650   363A      3.403005  
     364A      3.405437   365A      3.412464   366A      3.429961  
     367A      3.441040   368A      3.461572   369A      3.478062  
     370A      3.493079   371A      3.499037   372A      3.499786  
     373A      3.511235   374A      3.553082   375A      3.568411  
     376A      3.580157   377A      3.599549   378A      3.616671  
     379A      3.619787   380A      3.639075   381A      3.643902  
     382A      3.672996   383A      3.679924   384A      3.702783  
     385A      3.703283   386A      3.712376   387A      3.725591  
     388A      3.731467   389A      3.774798   390A      3.781453  
     391A      3.784706   392A      3.793727   393A      3.812955  
     394A      3.813881   395A      3.847817   396A      3.852192  
     397A      3.873111   398A      3.894261   399A      3.900357  
     400A      3.924720   401A      3.939890   402A      3.957865  
     403A      3.976948   404A      3.987618   405A      4.006643  
     406A      4.008867   407A      4.032977   408A      4.036380  
     409A      4.041836   410A      4.055729   411A      4.071409  
     412A      4.073070   413A      4.091120   414A      4.101385  
     415A      4.114548   416A      4.151995   417A      4.162764  
     418A      4.176313   419A      4.199391   420A      4.203249  
     421A      4.208176   422A      4.223192   423A      4.264242  
     424A      4.278624   425A      4.282887   426A      4.288292  
     427A      4.291670   428A      4.314073   429A      4.315689  
     430A      4.343096   431A      4.347172   432A      4.357061  
     433A      4.414824   434A      4.417610   435A      4.442959  
     436A      4.474607   437A      4.499775   438A      4.502632  
     439A      4.541423   440A      4.547662   441A      4.575125  
     442A      4.597713   443A      4.622566   444A      4.632136  
     445A      4.636112   446A      4.649403   447A      4.677845  
     448A      4.685738   449A      4.732154   450A      4.734425  
     451A      4.743848   452A      4.767310   453A      4.780202  
     454A      4.788936   455A      4.824985   456A      4.835956  
     457A      4.845091   458A      4.869411   459A      4.882891  
     460A      4.918294   461A      4.923587   462A      4.938032  
     463A      4.945847   464A      4.980016   465A      4.985096  
     466A      5.005142   467A      5.056414   468A      5.065396  
     469A      5.100142   470A      5.101040   471A      5.113954  
     472A      5.121460   473A      5.192430   474A      5.194718  
     475A      5.219732   476A      5.225906   477A      5.257361  
     478A      5.284359   479A      5.289260   480A      5.301273  
     481A      5.308961   482A      5.326659   483A      5.347796  
     484A      5.377421   485A      5.381414   486A      5.414800  
     487A      5.416765   488A      5.451856   489A      5.504819  
     490A      5.505492   491A      5.532953   492A      5.561184  
     493A      5.599963   494A      5.606664   495A      5.608947  
     496A      5.698460   497A      5.777871   498A      5.813928  
     499A      5.814843   500A      5.915385   501A      5.979264  
     502A      5.982520   503A      6.046882   504A      6.067130  
     505A      6.076481   506A      6.086629   507A      6.158174  
     508A      6.239777   509A      6.327550   510A      6.400441  
     511A      6.442803   512A      6.443320   513A      6.507126  
     514A      6.558967   515A      6.627097   516A      6.627212  
     517A      6.666465   518A      6.679354   519A      6.680701  
     520A      6.714383   521A      6.747522   522A      6.756572  
     523A      6.782751   524A      6.862442   525A      6.931977  
     526A      7.022215   527A      7.030680   528A      7.116205  
     529A      7.142129   530A      7.197661   531A      7.297515  
     532A      7.318547   533A      7.430663   534A      7.434785  
     535A      7.530949   536A      7.596239   537A      7.628713  
     538A      7.662422   539A      7.703689   540A      7.717487  
     541A      7.816939   542A      7.863836   543A      7.895493  
     544A      8.007796   545A     15.101212   546A     15.619067  
     547A     16.535430   548A     17.146296   549A     17.539455  
     550A     18.969884   551A     19.320562   552A     20.068129  

    Final Occupation by Irrep:
              A 
    DOCC [    30 ]

  @DF-RHF Final Energy:  -381.67614234650250

   => Energetics <=

    Nuclear Repulsion Energy =            328.5226696915039497
    One-Electron Energy =               -1170.3005903787038733
    Two-Electron Energy =                 460.1017783406973649
    Total Energy =                       -381.6761423465025018

Computation Completed

*** tstop() called on node58.bme.utexas.edu at Tue Nov  3 07:46:14 2020
Module time:
	user time   =     174.06 seconds =       2.90 minutes
	system time =      24.93 seconds =       0.42 minutes
	total time  =         42 seconds =       0.70 minutes
Total time:
	user time   =     174.06 seconds =       2.90 minutes
	system time =      24.93 seconds =       0.42 minutes
	total time  =         42 seconds =       0.70 minutes
   => Loading Basis Set <=

    Name: (AUG-CC-PVTZ AUX)
    Role: RIFIT
    Keyword: DF_BASIS_MP2
    atoms 1-2  entry O          line   264 file /home/xy3866/psi4conda/share/psi4/basis/aug-cc-pvtz-ri.gbs 
    atoms 3-8  entry C          line   148 file /home/xy3866/psi4conda/share/psi4/basis/aug-cc-pvtz-ri.gbs 
    atoms 9-16 entry H          line    30 file /home/xy3866/psi4conda/share/psi4/basis/aug-cc-pvtz-ri.gbs 


*** tstart() called on node58.bme.utexas.edu
*** at Tue Nov  3 07:46:14 2020


  //>>>>>>>>>>>>>>>>>>>>>>>>>>>>>>>>>>>//
  //               DFMP2               //
  //<<<<<<<<<<<<<<<<<<<<<<<<<<<<<<<<<<<//

	 --------------------------------------------------------
	                          DF-MP2                         
	      2nd-Order Density-Fitted Moller-Plesset Theory     
	              RMP2 Wavefunction,   8 Threads             
	                                                         
	        Rob Parrish, Justin Turney, Andy Simmonett,      
	           Ed Hohenstein, and C. David Sherrill          
	 --------------------------------------------------------

   => Auxiliary Basis Set <=

  Basis Set: (AUG-CC-PVTZ AUX)
    Blend: AUG-CC-PVTZ-RI
    Number of shells: 336
    Number of basis function: 1216
    Number of Cartesian functions: 1528
    Spherical Harmonics?: true
    Max angular momentum: 4

	 --------------------------------------------------------
	                 NBF =   552, NAUX =  1216
	 --------------------------------------------------------
	   CLASS    FOCC     OCC    AOCC    AVIR     VIR    FVIR
	   PAIRS       0      30      30     522     522       0
	 --------------------------------------------------------

  DFHelper Memory: AOs need 2.579 GiB; user supplied 22.352 GiB. Using in-core AOs.


         ------------------------------------------------------------
                                     CPHF                           
                                  Rob Parrish                       
         ------------------------------------------------------------

  ==> Geometry <==

    Molecular point group: c1
    Full point group: C1

    Geometry (in Angstrom), charge = 0, multiplicity = 1:

       Center              X                  Y                   Z               Mass       
    ------------   -----------------  -----------------  -----------------  -----------------
         O            1.166866280773    -1.314732866988    -0.010695280462    15.994914619570
         O           -3.806204719227    -0.168414866988    -0.030405280462    15.994914619570
         C            2.239226280773     0.839133133012     0.021097719538    12.000000000000
         C            3.742125480773     0.005245733012    -0.009362180462    12.000000000000
         C            1.047871280773    -0.090490866988     0.017435719538    12.000000000000
         C           -0.299731719227     0.551966133012     0.024390719538    12.000000000000
         C           -1.427269719227    -0.180705866988     0.001616719538    12.000000000000
         C           -2.751720719227     0.458558133012    -0.006354280462    12.000000000000
         H            2.158108280773     1.485019133012     0.905644719538     1.007825032230
         H            2.139726280773     1.517107133012    -0.838890280462     1.007825032230
         H            3.661098280773    -0.551433866988     0.862587719538     1.007825032230
         H            3.642561280773    -0.521875866988    -0.897433280462     1.007825032230
         H            4.398891280773     0.810531133012    -0.002776280462     1.007825032230
         H           -0.352371719227     1.641330133012     0.041790719538     1.007825032230
         H           -1.379688719227    -1.267131866988    -0.015986280462     1.007825032230
         H           -2.748485719227     1.568164133012     0.016014719538     1.007825032230

  Nuclear repulsion =  328.522669691503950
  Reference energy  = -381.676142346502502

  ==> Basis Set <==

  Basis Set: AUG-CC-PVTZ
    Blend: AUG-CC-PVTZ
    Number of shells: 184
    Number of basis function: 552
    Number of Cartesian functions: 640
    Spherical Harmonics?: true
    Max angular momentum: 3

  ==> CGRSolver (by Rob Parrish) <==

   Number of roots    =         1
   Preconditioning    =    JACOBI
   Convergence cutoff =     1E-06
   Maximum iterations =       100

  ==> CPHFRHamiltonian (by Rob Parrish) <== 

  ==> MemDFJK: Density-Fitted J/K Matrices <==

    J tasked:                   Yes
    K tasked:                   Yes
    wK tasked:                   No
    OpenMP threads:               8
    Memory [MiB]:             22888
    Algorithm:                 Disk
    Schwarz Cutoff:           1E-12
    Mask sparsity (%):       8.6596
    Fitting Condition:        1E-10

   => Auxiliary Basis Set <=

  Basis Set: (AUG-CC-PVTZ AUX)
    Blend: AUG-CC-PVTZ-JKFIT
    Number of shells: 352
    Number of basis function: 1200
    Number of Cartesian functions: 1488
    Spherical Harmonics?: true
    Max angular momentum: 4

  ==> CPHF Iterations <==

  => Iterations <=

             Iter  Converged  Remaining    Residual
  CGR           1          0          1   1.167E-01
  CGR           2          0          1   3.454E-02
  CGR           3          0          1   1.111E-02
  CGR           4          0          1   3.906E-03
  CGR           5          0          1   1.749E-03
  CGR           6          0          1   7.536E-04
  CGR           7          0          1   2.468E-04
  CGR           8          0          1   9.302E-05
  CGR           9          0          1   3.283E-05
  CGR          10          0          1   1.459E-05
  CGR          11          0          1   5.642E-06
  CGR          12          0          1   1.436E-06
  CGR          13          1          0   4.935E-07

    CGRSolver converged.

	-----------------------------------------------------------
	 ==================> DF-MP2 Energies <==================== 
	-----------------------------------------------------------
	 Reference Energy          =    -381.6761423465025018 [Eh]
	 Singles Energy            =      -0.0000000000000000 [Eh]
	 Same-Spin Energy          =      -0.3772630968728644 [Eh]
	 Opposite-Spin Energy      =      -1.2248028811432154 [Eh]
	 Correlation Energy        =      -1.6020659780160798 [Eh]
	 Total Energy              =    -383.2782083245185731 [Eh]
	-----------------------------------------------------------
	 ================> DF-SCS-MP2 Energies <================== 
	-----------------------------------------------------------
	 SCS Same-Spin Scale       =       0.3333333333333333 [-]
	 SCS Opposite-Spin Scale   =       1.2000000000000000 [-]
	 SCS Same-Spin Energy      =      -0.1257543656242881 [Eh]
	 SCS Opposite-Spin Energy  =      -1.4697634573718585 [Eh]
	 SCS Correlation Energy    =      -1.5955178229961466 [Eh]
	 SCS Total Energy          =    -383.2716601694986593 [Eh]
	-----------------------------------------------------------



Properties will be evaluated at   0.000000,  -0.000000,   0.000000 [a0]

Properties computed using the MP2 density matrix

  Nuclear Dipole Moment: [e a0]
     X:    10.7868      Y:     4.3818      Z:     0.0663

  Electronic Dipole Moment: [e a0]
     X:    -9.7053      Y:    -2.9958      Z:    -0.0309

  Dipole Moment: [e a0]
     X:     1.0815      Y:     1.3860      Z:     0.0354     Total:     1.7584

  Dipole Moment: [D]
     X:     2.7489      Y:     3.5229      Z:     0.0900     Total:     4.4694


*** tstop() called on node58.bme.utexas.edu at Tue Nov  3 07:47:45 2020
Module time:
	user time   =     489.42 seconds =       8.16 minutes
	system time =      28.10 seconds =       0.47 minutes
	total time  =         91 seconds =       1.52 minutes
Total time:
	user time   =     664.69 seconds =      11.08 minutes
	system time =      53.09 seconds =       0.88 minutes
	total time  =        133 seconds =       2.22 minutes

    Psi4 stopped on: Tuesday, 03 November 2020 07:47AM
    Psi4 wall time for execution: 0:02:12.25

*** Psi4 exiting successfully. Buy a developer a beer!
