
    -----------------------------------------------------------------------
          Psi4: An Open-Source Ab Initio Electronic Structure Package
                               Psi4 1.3.2 release

                         Git: Rev {HEAD} ecbda83 


    R. M. Parrish, L. A. Burns, D. G. A. Smith, A. C. Simmonett,
    A. E. DePrince III, E. G. Hohenstein, U. Bozkaya, A. Yu. Sokolov,
    R. Di Remigio, R. M. Richard, J. F. Gonthier, A. M. James,
    H. R. McAlexander, A. Kumar, M. Saitow, X. Wang, B. P. Pritchard,
    P. Verma, H. F. Schaefer III, K. Patkowski, R. A. King, E. F. Valeev,
    F. A. Evangelista, J. M. Turney, T. D. Crawford, and C. D. Sherrill,
    J. Chem. Theory Comput. 13(7) pp 3185--3197 (2017).
    (doi: 10.1021/acs.jctc.7b00174)


                         Additional Contributions by
    P. Kraus, H. Kruse, M. H. Lechner, M. C. Schieber, R. A. Shaw,
    A. Alenaizan, R. Galvelis, Z. L. Glick, S. Lehtola, and J. P. Misiewicz

    -----------------------------------------------------------------------


    Psi4 started on: Tuesday, 03 November 2020 08:15AM

    Process ID: 101707
    Host:       node58.bme.utexas.edu
    PSIDATADIR: /home/xy3866/psi4conda/share/psi4
    Memory:     500.0 MiB
    Threads:    8
    
  ==> Input File <==

--------------------------------------------------------------------------
#psi4
#
memory 32 gb

molecule  {
0 1
  O        1.1855920    -1.3251230    -0.0110750
  O       -3.7874790    -0.1788050    -0.0307850
  C        2.2579520     0.8287430     0.0207180
  C        3.5859950     0.0918750    -0.0061980
  C        1.0622838    -0.0953038     0.0282001
  C       -0.2810060     0.5415760     0.0240110
  C       -1.4085440    -0.1910960     0.0012370
  C       -2.7329950     0.4481680    -0.0067340
  H        2.1686747     1.4702209     0.9076836
  H        2.1584520     1.5067170    -0.8392700
  H        3.6798240    -0.5618240     0.8622080
  H        3.6612870    -0.5322660    -0.8978130
  H        4.4176170     0.8001410    -0.0031560
  H       -0.3336460     1.6309400     0.0414110
  H       -1.3609630    -1.2775220    -0.0163660
  H       -2.7297600     1.5577740     0.0156350
units angstrom
no_reorient  #important for SAPT in psi4, default
symmetry c1  #important for SAPT in psi4, default
}

set PROPERTIES_ORIGIN ["COM"]
properties('MP2/aug-cc-pvtz', properties = ['dipole'])
--------------------------------------------------------------------------

  Memory set to  29.802 GiB by Python driver.
    SCF Algorithm Type (re)set to DF.

*** tstart() called on node58.bme.utexas.edu
*** at Tue Nov  3 08:15:07 2020

   => Loading Basis Set <=

    Name: AUG-CC-PVTZ
    Role: ORBITAL
    Keyword: BASIS
    atoms 1-2  entry O          line   327 file /home/xy3866/psi4conda/share/psi4/basis/aug-cc-pvtz.gbs 
    atoms 3-8  entry C          line   235 file /home/xy3866/psi4conda/share/psi4/basis/aug-cc-pvtz.gbs 
    atoms 9-16 entry H          line    36 file /home/xy3866/psi4conda/share/psi4/basis/aug-cc-pvtz.gbs 


         ---------------------------------------------------------
                                   SCF
               by Justin Turney, Rob Parrish, Andy Simmonett
                          and Daniel G. A. Smith
                              RHF Reference
                        8 Threads,  30517 MiB Core
         ---------------------------------------------------------

  ==> Geometry <==

    Molecular point group: c1
    Full point group: C1

    Geometry (in Angstrom), charge = 0, multiplicity = 1:

       Center              X                  Y                   Z               Mass       
    ------------   -----------------  -----------------  -----------------  -----------------
         O            1.186127406627    -1.325680568987    -0.012290011843    15.994914619570
         O           -3.786943593373    -0.179362568987    -0.032000011843    15.994914619570
         C            2.258487406627     0.828185431013     0.019502988157    12.000000000000
         C            3.586530406627     0.091317431013    -0.007413011843    12.000000000000
         C            1.062819206627    -0.095861368987     0.026985088157    12.000000000000
         C           -0.280470593373     0.541018431013     0.022795988157    12.000000000000
         C           -1.408008593373    -0.191653568987     0.000021988157    12.000000000000
         C           -2.732459593373     0.447610431013    -0.007949011843    12.000000000000
         H            2.169210106627     1.469663331013     0.906468588157     1.007825032230
         H            2.158987406627     1.506159431013    -0.840485011843     1.007825032230
         H            3.680359406627    -0.562381568987     0.860992988157     1.007825032230
         H            3.661822406627    -0.532823568987    -0.899028011843     1.007825032230
         H            4.418152406627     0.799583431013    -0.004371011843     1.007825032230
         H           -0.333110593373     1.630382431013     0.040195988157     1.007825032230
         H           -1.360427593373    -1.278079568987    -0.017581011843     1.007825032230
         H           -2.729224593373     1.557216431013     0.014419988157     1.007825032230

  Running in c1 symmetry.

  Rotational constants: A =      0.28554  B =      0.02538  C =      0.02351 [cm^-1]
  Rotational constants: A =   8560.13728  B =    760.84694  C =    704.82822 [MHz]
  Nuclear repulsion =  331.114132005797330

  Charge       = 0
  Multiplicity = 1
  Electrons    = 60
  Nalpha       = 30
  Nbeta        = 30

  ==> Algorithm <==

  SCF Algorithm Type is DF.
  DIIS enabled.
  MOM disabled.
  Fractional occupation disabled.
  Guess Type is SAD.
  Energy threshold   = 1.00e-10
  Density threshold  = 1.00e-10
  Integral threshold = 0.00e+00

  ==> Primary Basis <==

  Basis Set: AUG-CC-PVTZ
    Blend: AUG-CC-PVTZ
    Number of shells: 184
    Number of basis function: 552
    Number of Cartesian functions: 640
    Spherical Harmonics?: true
    Max angular momentum: 3

   => Loading Basis Set <=

    Name: (AUG-CC-PVTZ AUX)
    Role: JKFIT
    Keyword: DF_BASIS_SCF
    atoms 1-2  entry O          line   286 file /home/xy3866/psi4conda/share/psi4/basis/aug-cc-pvtz-jkfit.gbs 
    atoms 3-8  entry C          line   162 file /home/xy3866/psi4conda/share/psi4/basis/aug-cc-pvtz-jkfit.gbs 
    atoms 9-16 entry H          line    70 file /home/xy3866/psi4conda/share/psi4/basis/aug-cc-pvtz-jkfit.gbs 

  ==> Pre-Iterations <==

   -------------------------------------------------------
    Irrep   Nso     Nmo     Nalpha   Nbeta   Ndocc  Nsocc
   -------------------------------------------------------
     A        552     552       0       0       0       0
   -------------------------------------------------------
    Total     552     552      30      30      30       0
   -------------------------------------------------------

  ==> Integral Setup <==

  DFHelper Memory: AOs need 2.584 GiB; user supplied 22.352 GiB. Using in-core AOs.

  ==> MemDFJK: Density-Fitted J/K Matrices <==

    J tasked:                   Yes
    K tasked:                   Yes
    wK tasked:                   No
    OpenMP threads:               8
    Memory [MiB]:             22888
    Algorithm:                 Disk
    Schwarz Cutoff:           1E-12
    Mask sparsity (%):       8.4620
    Fitting Condition:        1E-10

   => Auxiliary Basis Set <=

  Basis Set: (AUG-CC-PVTZ AUX)
    Blend: AUG-CC-PVTZ-JKFIT
    Number of shells: 352
    Number of basis function: 1200
    Number of Cartesian functions: 1488
    Spherical Harmonics?: true
    Max angular momentum: 4

  Minimum eigenvalue in the overlap matrix is 2.9439266985E-06.
  Using Symmetric Orthogonalization.

  SCF Guess: Superposition of Atomic Densities via on-the-fly atomic UHF.

  ==> Iterations <==

                           Total Energy        Delta E     RMS |[F,P]|

   @DF-RHF iter SAD:  -380.31464661258985   -3.80315e+02   0.00000e+00 
   @DF-RHF iter   1:  -381.43713228683805   -1.12249e+00   1.28492e-03 DIIS
   @DF-RHF iter   2:  -381.62043515218642   -1.83303e-01   8.40480e-04 DIIS
   @DF-RHF iter   3:  -381.69566376756387   -7.52286e-02   1.72117e-04 DIIS
   @DF-RHF iter   4:  -381.70103533267491   -5.37157e-03   6.38760e-05 DIIS
   @DF-RHF iter   5:  -381.70194458039140   -9.09248e-04   1.18838e-05 DIIS
   @DF-RHF iter   6:  -381.70200583479863   -6.12544e-05   5.22824e-06 DIIS
   @DF-RHF iter   7:  -381.70201556445863   -9.72966e-06   2.66637e-06 DIIS
   @DF-RHF iter   8:  -381.70201756115898   -1.99670e-06   1.23220e-06 DIIS
   @DF-RHF iter   9:  -381.70201805239935   -4.91240e-07   3.59905e-07 DIIS
   @DF-RHF iter  10:  -381.70201810621353   -5.38142e-08   8.27981e-08 DIIS
   @DF-RHF iter  11:  -381.70201810941148   -3.19795e-09   3.05484e-08 DIIS
   @DF-RHF iter  12:  -381.70201810968933   -2.77851e-10   1.02606e-08 DIIS
   @DF-RHF iter  13:  -381.70201810973720   -4.78622e-11   4.40845e-09 DIIS
   @DF-RHF iter  14:  -381.70201810974709   -9.89075e-12   2.37427e-09 DIIS
   @DF-RHF iter  15:  -381.70201810975107   -3.97904e-12   1.04024e-09 DIIS
   @DF-RHF iter  16:  -381.70201810975220   -1.13687e-12   4.63520e-10 DIIS
   @DF-RHF iter  17:  -381.70201810975266   -4.54747e-13   2.33935e-10 DIIS
   @DF-RHF iter  18:  -381.70201810975232    3.41061e-13   9.00521e-11 DIIS
  Energy and wave function converged.


  ==> Post-Iterations <==

    Orbital Energies [Eh]
    ---------------------

    Doubly Occupied:                                                      

       1A    -20.574578     2A    -20.563286     3A    -11.353957  
       4A    -11.351796     5A    -11.282406     6A    -11.278727  
       7A    -11.257183     8A    -11.228282     9A     -1.395792  
      10A     -1.390072    11A     -1.115845    12A     -1.070259  
      13A     -0.956099    14A     -0.879738    15A     -0.801857  
      16A     -0.756302    17A     -0.696210    18A     -0.686058  
      19A     -0.646086    20A     -0.636338    21A     -0.629471  
      22A     -0.573580    23A     -0.554671    24A     -0.543904  
      25A     -0.535794    26A     -0.528462    27A     -0.501297  
      28A     -0.451762    29A     -0.436406    30A     -0.404750  

    Virtual:                                                              

      31A      0.019440    32A      0.026471    33A      0.029263  
      34A      0.035472    35A      0.039701    36A      0.047722  
      37A      0.054363    38A      0.059779    39A      0.068960  
      40A      0.084451    41A      0.085424    42A      0.093806  
      43A      0.102370    44A      0.105972    45A      0.113925  
      46A      0.121744    47A      0.122902    48A      0.126019  
      49A      0.128171    50A      0.133613    51A      0.134547  
      52A      0.142702    53A      0.149940    54A      0.151624  
      55A      0.158213    56A      0.164301    57A      0.170842  
      58A      0.180581    59A      0.197054    60A      0.201692  
      61A      0.205749    62A      0.214169    63A      0.217936  
      64A      0.221666    65A      0.227970    66A      0.239889  
      67A      0.243861    68A      0.247993    69A      0.257456  
      70A      0.260060    71A      0.263366    72A      0.270104  
      73A      0.271389    74A      0.284111    75A      0.288031  
      76A      0.302375    77A      0.304287    78A      0.309748  
      79A      0.312988    80A      0.316932    81A      0.319729  
      82A      0.329860    83A      0.337145    84A      0.339101  
      85A      0.345683    86A      0.349302    87A      0.364942  
      88A      0.370275    89A      0.377760    90A      0.379631  
      91A      0.380380    92A      0.390365    93A      0.398385  
      94A      0.399430    95A      0.406864    96A      0.410286  
      97A      0.415974    98A      0.424711    99A      0.429702  
     100A      0.431409   101A      0.441531   102A      0.448960  
     103A      0.451237   104A      0.454330   105A      0.456459  
     106A      0.461427   107A      0.464494   108A      0.466456  
     109A      0.470498   110A      0.476729   111A      0.486335  
     112A      0.490792   113A      0.499699   114A      0.502238  
     115A      0.510807   116A      0.516174   117A      0.522420  
     118A      0.527101   119A      0.528518   120A      0.529507  
     121A      0.539848   122A      0.559089   123A      0.566677  
     124A      0.573675   125A      0.578471   126A      0.589872  
     127A      0.591373   128A      0.595901   129A      0.597228  
     130A      0.611406   131A      0.625521   132A      0.639465  
     133A      0.644316   134A      0.654457   135A      0.661797  
     136A      0.684856   137A      0.689568   138A      0.699049  
     139A      0.707563   140A      0.716880   141A      0.727756  
     142A      0.730915   143A      0.758415   144A      0.776702  
     145A      0.786930   146A      0.791274   147A      0.800209  
     148A      0.803168   149A      0.811459   150A      0.819019  
     151A      0.824200   152A      0.826488   153A      0.844606  
     154A      0.850686   155A      0.853985   156A      0.855558  
     157A      0.859931   158A      0.862430   159A      0.876736  
     160A      0.879495   161A      0.881688   162A      0.886403  
     163A      0.898901   164A      0.899400   165A      0.903584  
     166A      0.907469   167A      0.913146   168A      0.917331  
     169A      0.918838   170A      0.930291   171A      0.946072  
     172A      0.946931   173A      0.952202   174A      0.958511  
     175A      0.968752   176A      0.972690   177A      0.976893  
     178A      0.986515   179A      0.994127   180A      0.998980  
     181A      0.999721   182A      1.011038   183A      1.021935  
     184A      1.025516   185A      1.028338   186A      1.031712  
     187A      1.043254   188A      1.054021   189A      1.069714  
     190A      1.072134   191A      1.077016   192A      1.084034  
     193A      1.086489   194A      1.099730   195A      1.107609  
     196A      1.108933   197A      1.113909   198A      1.117814  
     199A      1.138106   200A      1.147518   201A      1.157632  
     202A      1.162375   203A      1.170597   204A      1.173244  
     205A      1.184313   206A      1.186855   207A      1.189002  
     208A      1.206103   209A      1.212626   210A      1.218285  
     211A      1.220935   212A      1.221449   213A      1.238946  
     214A      1.246254   215A      1.256051   216A      1.268932  
     217A      1.281313   218A      1.290173   219A      1.292770  
     220A      1.311960   221A      1.314841   222A      1.328701  
     223A      1.343742   224A      1.347794   225A      1.359074  
     226A      1.367602   227A      1.380309   228A      1.402317  
     229A      1.415057   230A      1.424758   231A      1.439082  
     232A      1.444465   233A      1.453689   234A      1.460816  
     235A      1.477961   236A      1.491836   237A      1.499896  
     238A      1.510853   239A      1.524616   240A      1.547034  
     241A      1.549032   242A      1.560272   243A      1.571193  
     244A      1.576636   245A      1.583088   246A      1.595681  
     247A      1.599549   248A      1.630013   249A      1.637980  
     250A      1.644764   251A      1.647676   252A      1.649200  
     253A      1.660372   254A      1.673070   255A      1.691011  
     256A      1.695332   257A      1.711501   258A      1.717645  
     259A      1.724097   260A      1.732095   261A      1.734730  
     262A      1.739857   263A      1.758886   264A      1.763893  
     265A      1.776963   266A      1.787546   267A      1.789258  
     268A      1.795596   269A      1.804550   270A      1.825215  
     271A      1.827709   272A      1.838763   273A      1.850943  
     274A      1.879810   275A      1.892328   276A      1.894230  
     277A      1.896803   278A      1.914151   279A      1.925906  
     280A      1.944848   281A      1.960496   282A      1.970677  
     283A      1.985379   284A      1.993750   285A      2.000064  
     286A      2.002286   287A      2.020350   288A      2.026404  
     289A      2.034762   290A      2.049673   291A      2.058915  
     292A      2.077193   293A      2.086582   294A      2.110737  
     295A      2.131923   296A      2.147846   297A      2.154527  
     298A      2.182951   299A      2.184437   300A      2.202987  
     301A      2.217675   302A      2.235275   303A      2.238431  
     304A      2.258594   305A      2.259942   306A      2.276614  
     307A      2.293051   308A      2.309602   309A      2.320700  
     310A      2.327689   311A      2.334508   312A      2.362348  
     313A      2.370707   314A      2.375955   315A      2.401731  
     316A      2.402014   317A      2.436067   318A      2.442253  
     319A      2.450917   320A      2.475537   321A      2.503514  
     322A      2.509046   323A      2.533779   324A      2.560623  
     325A      2.563163   326A      2.591853   327A      2.628529  
     328A      2.643710   329A      2.654416   330A      2.674523  
     331A      2.693587   332A      2.705743   333A      2.714356  
     334A      2.755052   335A      2.775902   336A      2.797732  
     337A      2.817440   338A      2.831717   339A      2.851472  
     340A      2.893654   341A      2.913670   342A      2.947736  
     343A      2.963802   344A      3.017877   345A      3.033522  
     346A      3.044425   347A      3.081220   348A      3.088959  
     349A      3.108148   350A      3.182598   351A      3.195797  
     352A      3.215817   353A      3.225266   354A      3.245839  
     355A      3.269823   356A      3.276624   357A      3.292785  
     358A      3.336662   359A      3.347788   360A      3.354588  
     361A      3.387168   362A      3.390992   363A      3.396670  
     364A      3.424906   365A      3.427194   366A      3.454048  
     367A      3.456237   368A      3.482505   369A      3.492827  
     370A      3.497310   371A      3.501921   372A      3.530295  
     373A      3.537514   374A      3.564372   375A      3.569171  
     376A      3.588112   377A      3.600735   378A      3.621074  
     379A      3.628479   380A      3.648296   381A      3.662749  
     382A      3.666750   383A      3.693645   384A      3.698437  
     385A      3.717838   386A      3.736853   387A      3.738718  
     388A      3.750711   389A      3.782914   390A      3.785578  
     391A      3.788371   392A      3.811585   393A      3.819027  
     394A      3.827707   395A      3.852214   396A      3.866735  
     397A      3.872246   398A      3.894398   399A      3.901622  
     400A      3.930000   401A      3.949715   402A      3.964973  
     403A      3.973276   404A      3.979607   405A      3.989684  
     406A      4.013617   407A      4.023278   408A      4.033758  
     409A      4.058410   410A      4.067466   411A      4.091389  
     412A      4.105426   413A      4.117680   414A      4.151310  
     415A      4.160860   416A      4.165804   417A      4.175511  
     418A      4.177159   419A      4.191964   420A      4.201729  
     421A      4.219059   422A      4.226375   423A      4.248551  
     424A      4.272057   425A      4.279262   426A      4.301074  
     427A      4.302336   428A      4.308018   429A      4.328657  
     430A      4.346946   431A      4.352562   432A      4.357083  
     433A      4.404989   434A      4.431447   435A      4.470209  
     436A      4.472253   437A      4.498600   438A      4.504506  
     439A      4.514157   440A      4.564672   441A      4.582654  
     442A      4.604249   443A      4.615466   444A      4.624407  
     445A      4.650031   446A      4.673935   447A      4.685071  
     448A      4.700758   449A      4.728814   450A      4.735934  
     451A      4.769653   452A      4.790163   453A      4.790760  
     454A      4.801450   455A      4.835637   456A      4.847989  
     457A      4.851942   458A      4.854675   459A      4.873304  
     460A      4.886294   461A      4.931513   462A      4.948079  
     463A      4.955438   464A      4.977772   465A      5.017569  
     466A      5.028612   467A      5.048873   468A      5.064976  
     469A      5.098895   470A      5.120523   471A      5.125266  
     472A      5.137213   473A      5.186352   474A      5.193298  
     475A      5.202082   476A      5.213141   477A      5.245240  
     478A      5.260676   479A      5.267311   480A      5.324108  
     481A      5.330307   482A      5.366280   483A      5.371686  
     484A      5.383248   485A      5.414421   486A      5.424010  
     487A      5.430486   488A      5.449645   489A      5.501757  
     490A      5.535367   491A      5.558907   492A      5.588597  
     493A      5.601525   494A      5.610582   495A      5.656850  
     496A      5.700474   497A      5.708853   498A      5.783108  
     499A      5.828054   500A      5.839338   501A      5.929397  
     502A      5.994624   503A      6.002240   504A      6.059775  
     505A      6.120792   506A      6.153289   507A      6.185006  
     508A      6.214863   509A      6.258490   510A      6.305854  
     511A      6.411795   512A      6.431731   513A      6.458345  
     514A      6.519293   515A      6.590464   516A      6.626271  
     517A      6.631670   518A      6.675564   519A      6.714462  
     520A      6.737816   521A      6.756666   522A      6.804732  
     523A      6.832190   524A      6.891834   525A      6.931508  
     526A      7.021584   527A      7.032696   528A      7.115349  
     529A      7.145719   530A      7.192250   531A      7.296868  
     532A      7.319450   533A      7.430593   534A      7.441889  
     535A      7.528074   536A      7.594804   537A      7.628130  
     538A      7.664969   539A      7.711809   540A      7.716087  
     541A      7.816749   542A      7.863004   543A      7.894578  
     544A      8.013773   545A     15.105945   546A     15.638377  
     547A     16.536575   548A     17.352959   549A     17.634743  
     550A     18.513346   551A     19.543910   552A     20.232339  

    Final Occupation by Irrep:
              A 
    DOCC [    30 ]

  @DF-RHF Final Energy:  -381.70201810975232

   => Energetics <=

    Nuclear Repulsion Energy =            331.1141320057973303
    One-Electron Energy =               -1175.4703705022986924
    Two-Electron Energy =                 462.6542203867491025
    Total Energy =                       -381.7020181097523164

Computation Completed

*** tstop() called on node58.bme.utexas.edu at Tue Nov  3 08:15:48 2020
Module time:
	user time   =     174.35 seconds =       2.91 minutes
	system time =      24.77 seconds =       0.41 minutes
	total time  =         41 seconds =       0.68 minutes
Total time:
	user time   =     174.35 seconds =       2.91 minutes
	system time =      24.77 seconds =       0.41 minutes
	total time  =         41 seconds =       0.68 minutes
   => Loading Basis Set <=

    Name: (AUG-CC-PVTZ AUX)
    Role: RIFIT
    Keyword: DF_BASIS_MP2
    atoms 1-2  entry O          line   264 file /home/xy3866/psi4conda/share/psi4/basis/aug-cc-pvtz-ri.gbs 
    atoms 3-8  entry C          line   148 file /home/xy3866/psi4conda/share/psi4/basis/aug-cc-pvtz-ri.gbs 
    atoms 9-16 entry H          line    30 file /home/xy3866/psi4conda/share/psi4/basis/aug-cc-pvtz-ri.gbs 


*** tstart() called on node58.bme.utexas.edu
*** at Tue Nov  3 08:15:48 2020


  //>>>>>>>>>>>>>>>>>>>>>>>>>>>>>>>>>>>//
  //               DFMP2               //
  //<<<<<<<<<<<<<<<<<<<<<<<<<<<<<<<<<<<//

	 --------------------------------------------------------
	                          DF-MP2                         
	      2nd-Order Density-Fitted Moller-Plesset Theory     
	              RMP2 Wavefunction,   8 Threads             
	                                                         
	        Rob Parrish, Justin Turney, Andy Simmonett,      
	           Ed Hohenstein, and C. David Sherrill          
	 --------------------------------------------------------

   => Auxiliary Basis Set <=

  Basis Set: (AUG-CC-PVTZ AUX)
    Blend: AUG-CC-PVTZ-RI
    Number of shells: 336
    Number of basis function: 1216
    Number of Cartesian functions: 1528
    Spherical Harmonics?: true
    Max angular momentum: 4

	 --------------------------------------------------------
	                 NBF =   552, NAUX =  1216
	 --------------------------------------------------------
	   CLASS    FOCC     OCC    AOCC    AVIR     VIR    FVIR
	   PAIRS       0      30      30     522     522       0
	 --------------------------------------------------------

  DFHelper Memory: AOs need 2.584 GiB; user supplied 22.352 GiB. Using in-core AOs.


         ------------------------------------------------------------
                                     CPHF                           
                                  Rob Parrish                       
         ------------------------------------------------------------

  ==> Geometry <==

    Molecular point group: c1
    Full point group: C1

    Geometry (in Angstrom), charge = 0, multiplicity = 1:

       Center              X                  Y                   Z               Mass       
    ------------   -----------------  -----------------  -----------------  -----------------
         O            1.186127406627    -1.325680568987    -0.012290011843    15.994914619570
         O           -3.786943593373    -0.179362568987    -0.032000011843    15.994914619570
         C            2.258487406627     0.828185431013     0.019502988157    12.000000000000
         C            3.586530406627     0.091317431013    -0.007413011843    12.000000000000
         C            1.062819206627    -0.095861368987     0.026985088157    12.000000000000
         C           -0.280470593373     0.541018431013     0.022795988157    12.000000000000
         C           -1.408008593373    -0.191653568987     0.000021988157    12.000000000000
         C           -2.732459593373     0.447610431013    -0.007949011843    12.000000000000
         H            2.169210106627     1.469663331013     0.906468588157     1.007825032230
         H            2.158987406627     1.506159431013    -0.840485011843     1.007825032230
         H            3.680359406627    -0.562381568987     0.860992988157     1.007825032230
         H            3.661822406627    -0.532823568987    -0.899028011843     1.007825032230
         H            4.418152406627     0.799583431013    -0.004371011843     1.007825032230
         H           -0.333110593373     1.630382431013     0.040195988157     1.007825032230
         H           -1.360427593373    -1.278079568987    -0.017581011843     1.007825032230
         H           -2.729224593373     1.557216431013     0.014419988157     1.007825032230

  Nuclear repulsion =  331.114132005797330
  Reference energy  = -381.702018109752316

  ==> Basis Set <==

  Basis Set: AUG-CC-PVTZ
    Blend: AUG-CC-PVTZ
    Number of shells: 184
    Number of basis function: 552
    Number of Cartesian functions: 640
    Spherical Harmonics?: true
    Max angular momentum: 3

  ==> CGRSolver (by Rob Parrish) <==

   Number of roots    =         1
   Preconditioning    =    JACOBI
   Convergence cutoff =     1E-06
   Maximum iterations =       100

  ==> CPHFRHamiltonian (by Rob Parrish) <== 

  ==> MemDFJK: Density-Fitted J/K Matrices <==

    J tasked:                   Yes
    K tasked:                   Yes
    wK tasked:                   No
    OpenMP threads:               8
    Memory [MiB]:             22888
    Algorithm:                 Disk
    Schwarz Cutoff:           1E-12
    Mask sparsity (%):       8.4620
    Fitting Condition:        1E-10

   => Auxiliary Basis Set <=

  Basis Set: (AUG-CC-PVTZ AUX)
    Blend: AUG-CC-PVTZ-JKFIT
    Number of shells: 352
    Number of basis function: 1200
    Number of Cartesian functions: 1488
    Spherical Harmonics?: true
    Max angular momentum: 4

  ==> CPHF Iterations <==

  => Iterations <=

             Iter  Converged  Remaining    Residual
  CGR           1          0          1   1.170E-01
  CGR           2          0          1   3.493E-02
  CGR           3          0          1   1.124E-02
  CGR           4          0          1   4.189E-03
  CGR           5          0          1   1.853E-03
  CGR           6          0          1   7.885E-04
  CGR           7          0          1   2.777E-04
  CGR           8          0          1   9.899E-05
  CGR           9          0          1   3.786E-05
  CGR          10          0          1   1.760E-05
  CGR          11          0          1   6.381E-06
  CGR          12          0          1   1.549E-06
  CGR          13          1          0   6.180E-07

    CGRSolver converged.

	-----------------------------------------------------------
	 ==================> DF-MP2 Energies <==================== 
	-----------------------------------------------------------
	 Reference Energy          =    -381.7020181097523164 [Eh]
	 Singles Energy            =      -0.0000000000000000 [Eh]
	 Same-Spin Energy          =      -0.3776361548862786 [Eh]
	 Opposite-Spin Energy      =      -1.2242804159530931 [Eh]
	 Correlation Energy        =      -1.6019165708393717 [Eh]
	 Total Energy              =    -383.3039346805916807 [Eh]
	-----------------------------------------------------------
	 ================> DF-SCS-MP2 Energies <================== 
	-----------------------------------------------------------
	 SCS Same-Spin Scale       =       0.3333333333333333 [-]
	 SCS Opposite-Spin Scale   =       1.2000000000000000 [-]
	 SCS Same-Spin Energy      =      -0.1258787182954262 [Eh]
	 SCS Opposite-Spin Energy  =      -1.4691364991437117 [Eh]
	 SCS Correlation Energy    =      -1.5950152174391379 [Eh]
	 SCS Total Energy          =    -383.2970333271914569 [Eh]
	-----------------------------------------------------------



Properties will be evaluated at   0.000000,   0.000000,   0.000000 [a0]

Properties computed using the MP2 density matrix

  Nuclear Dipole Moment: [e a0]
     X:    10.9238      Y:     4.2955      Z:     0.0566

  Electronic Dipole Moment: [e a0]
     X:    -9.8544      Y:    -2.9072      Z:    -0.0188

  Dipole Moment: [e a0]
     X:     1.0694      Y:     1.3882      Z:     0.0378     Total:     1.7528

  Dipole Moment: [D]
     X:     2.7180      Y:     3.5286      Z:     0.0961     Total:     4.4551


*** tstop() called on node58.bme.utexas.edu at Tue Nov  3 08:17:19 2020
Module time:
	user time   =     490.75 seconds =       8.18 minutes
	system time =      27.91 seconds =       0.47 minutes
	total time  =         91 seconds =       1.52 minutes
Total time:
	user time   =     666.34 seconds =      11.11 minutes
	system time =      52.75 seconds =       0.88 minutes
	total time  =        132 seconds =       2.20 minutes

    Psi4 stopped on: Tuesday, 03 November 2020 08:17AM
    Psi4 wall time for execution: 0:02:11.43

*** Psi4 exiting successfully. Buy a developer a beer!
