
    -----------------------------------------------------------------------
          Psi4: An Open-Source Ab Initio Electronic Structure Package
                               Psi4 1.3.2 release

                         Git: Rev {HEAD} ecbda83 


    R. M. Parrish, L. A. Burns, D. G. A. Smith, A. C. Simmonett,
    A. E. DePrince III, E. G. Hohenstein, U. Bozkaya, A. Yu. Sokolov,
    R. Di Remigio, R. M. Richard, J. F. Gonthier, A. M. James,
    H. R. McAlexander, A. Kumar, M. Saitow, X. Wang, B. P. Pritchard,
    P. Verma, H. F. Schaefer III, K. Patkowski, R. A. King, E. F. Valeev,
    F. A. Evangelista, J. M. Turney, T. D. Crawford, and C. D. Sherrill,
    J. Chem. Theory Comput. 13(7) pp 3185--3197 (2017).
    (doi: 10.1021/acs.jctc.7b00174)


                         Additional Contributions by
    P. Kraus, H. Kruse, M. H. Lechner, M. C. Schieber, R. A. Shaw,
    A. Alenaizan, R. Galvelis, Z. L. Glick, S. Lehtola, and J. P. Misiewicz

    -----------------------------------------------------------------------


    Psi4 started on: Saturday, 27 March 2021 08:29PM

    Process ID: 24256
    Host:       node59.bme.utexas.edu
    PSIDATADIR: /home/xy3866/psi4conda/share/psi4
    Memory:     500.0 MiB
    Threads:    8
    
  ==> Input File <==

--------------------------------------------------------------------------
#psi4
#
memory 32 gb

molecule  {
0 1
  S       -1.0050790    -1.7376190    -0.0151270
  O        2.1293390     1.6156530    -0.0602560
  N        1.4328010    -0.5712990    -0.0002240
  C       -2.0712570     0.6114660     0.0102110
  C        0.0482060    -0.3546190     0.0027700
  C       -0.6600310     0.8254930     0.0130800
  C       -2.4003070    -0.7218620    -0.0026000
  C       -3.0748160     1.7280810     0.0214760
  C        2.3954760     0.4154750    -0.0251370
  C        3.8156290    -0.1071950     0.0454080
  H       -0.1788490     1.7941090     0.0202490
  H       -3.3863739    -1.1704822     0.1956319
  H        1.7501540    -1.5327770     0.0300190
  H       -2.9559420     2.3719740    -0.8556620
  H       -4.0955650     1.3361040     0.0184570
  H       -2.9548850     2.3555760     0.9102830
  H        3.9313990    -1.0827470    -0.4343570
  H        4.1211000    -0.1952360     1.0924070
  H        4.4689380     0.6162650    -0.4426230
units angstrom
no_reorient  #important for SAPT in psi4, default
symmetry c1  #important for SAPT in psi4, default
}

set PROPERTIES_ORIGIN ["COM"]
properties('MP2/aug-cc-pvtz', properties = ['dipole'])
--------------------------------------------------------------------------

  Memory set to  29.802 GiB by Python driver.
    SCF Algorithm Type (re)set to DF.

*** tstart() called on node59.bme.utexas.edu
*** at Sat Mar 27 20:29:17 2021

   => Loading Basis Set <=

    Name: AUG-CC-PVTZ
    Role: ORBITAL
    Keyword: BASIS
    atoms 1     entry S          line   902 file /home/xy3866/psi4conda/share/psi4/basis/aug-cc-pvtz.gbs 
    atoms 2     entry O          line   327 file /home/xy3866/psi4conda/share/psi4/basis/aug-cc-pvtz.gbs 
    atoms 3     entry N          line   281 file /home/xy3866/psi4conda/share/psi4/basis/aug-cc-pvtz.gbs 
    atoms 4-10  entry C          line   235 file /home/xy3866/psi4conda/share/psi4/basis/aug-cc-pvtz.gbs 
    atoms 11-19 entry H          line    36 file /home/xy3866/psi4conda/share/psi4/basis/aug-cc-pvtz.gbs 


         ---------------------------------------------------------
                                   SCF
               by Justin Turney, Rob Parrish, Andy Simmonett
                          and Daniel G. A. Smith
                              RHF Reference
                        8 Threads,  30517 MiB Core
         ---------------------------------------------------------

  ==> Geometry <==

    Molecular point group: c1
    Full point group: C1

    Geometry (in Angstrom), charge = 0, multiplicity = 1:

       Center              X                  Y                   Z               Mass       
    ------------   -----------------  -----------------  -----------------  -----------------
         S           -1.000744713054    -1.709091104647    -0.014291830084    31.972071174400
         O            2.133673286946     1.644180895353    -0.059420830084    15.994914619570
         N            1.437135286946    -0.542771104647     0.000611169916    14.003074004430
         C           -2.066922713054     0.639993895353     0.011046169916    12.000000000000
         C            0.052540286946    -0.326091104647     0.003605169916    12.000000000000
         C           -0.655696713054     0.854020895353     0.013915169916    12.000000000000
         C           -2.395972713054    -0.693334104647    -0.001764830084    12.000000000000
         C           -3.070481713054     1.756608895353     0.022311169916    12.000000000000
         C            2.399810286946     0.444002895353    -0.024301830084    12.000000000000
         C            3.819963286946    -0.078667104647     0.046243169916    12.000000000000
         H           -0.174514713054     1.822636895353     0.021084169916     1.007825032230
         H           -3.382039613054    -1.141954304647     0.196467069916     1.007825032230
         H            1.754488286946    -1.504249104647     0.030854169916     1.007825032230
         H           -2.951607713054     2.400501895353    -0.854826830084     1.007825032230
         H           -4.091230713054     1.364631895353     0.019292169916     1.007825032230
         H           -2.950550713054     2.384103895353     0.911118169916     1.007825032230
         H            3.935733286946    -1.054219104647    -0.433521830084     1.007825032230
         H            4.125434286946    -0.166708104647     1.093242169916     1.007825032230
         H            4.473272286946     0.644792895353    -0.441787830084     1.007825032230

  Running in c1 symmetry.

  Rotational constants: A =      0.07482  B =      0.02333  C =      0.01791 [cm^-1]
  Rotational constants: A =   2242.99570  B =    699.36155  C =    536.87820 [MHz]
  Nuclear repulsion =  584.756880158849299

  Charge       = 0
  Multiplicity = 1
  Electrons    = 82
  Nalpha       = 41
  Nbeta        = 41

  ==> Algorithm <==

  SCF Algorithm Type is DF.
  DIIS enabled.
  MOM disabled.
  Fractional occupation disabled.
  Guess Type is SAD.
  Energy threshold   = 1.00e-10
  Density threshold  = 1.00e-10
  Integral threshold = 0.00e+00

  ==> Primary Basis <==

  Basis Set: AUG-CC-PVTZ
    Blend: AUG-CC-PVTZ
    Number of shells: 223
    Number of basis function: 671
    Number of Cartesian functions: 779
    Spherical Harmonics?: true
    Max angular momentum: 3

   => Loading Basis Set <=

    Name: (AUG-CC-PVTZ AUX)
    Role: JKFIT
    Keyword: DF_BASIS_SCF
    atoms 1     entry S          line   730 file /home/xy3866/psi4conda/share/psi4/basis/aug-cc-pvtz-jkfit.gbs 
    atoms 2     entry O          line   286 file /home/xy3866/psi4conda/share/psi4/basis/aug-cc-pvtz-jkfit.gbs 
    atoms 3     entry N          line   224 file /home/xy3866/psi4conda/share/psi4/basis/aug-cc-pvtz-jkfit.gbs 
    atoms 4-10  entry C          line   162 file /home/xy3866/psi4conda/share/psi4/basis/aug-cc-pvtz-jkfit.gbs 
    atoms 11-19 entry H          line    70 file /home/xy3866/psi4conda/share/psi4/basis/aug-cc-pvtz-jkfit.gbs 

  ==> Pre-Iterations <==

   -------------------------------------------------------
    Irrep   Nso     Nmo     Nalpha   Nbeta   Ndocc  Nsocc
   -------------------------------------------------------
     A        671     671       0       0       0       0
   -------------------------------------------------------
    Total     671     671      41      41      41       0
   -------------------------------------------------------

  ==> Integral Setup <==

  DFHelper Memory: AOs need 4.696 GiB; user supplied 22.352 GiB. Using in-core AOs.

  ==> MemDFJK: Density-Fitted J/K Matrices <==

    J tasked:                   Yes
    K tasked:                   Yes
    wK tasked:                   No
    OpenMP threads:               8
    Memory [MiB]:             22888
    Algorithm:                 Disk
    Schwarz Cutoff:           1E-12
    Mask sparsity (%):       9.1000
    Fitting Condition:        1E-10

   => Auxiliary Basis Set <=

  Basis Set: (AUG-CC-PVTZ AUX)
    Blend: AUG-CC-PVTZ-JKFIT
    Number of shells: 438
    Number of basis function: 1496
    Number of Cartesian functions: 1854
    Spherical Harmonics?: true
    Max angular momentum: 4

  Minimum eigenvalue in the overlap matrix is 2.0782650936E-06.
  Using Symmetric Orthogonalization.

  SCF Guess: Superposition of Atomic Densities via on-the-fly atomic UHF.

  ==> Iterations <==

                           Total Energy        Delta E     RMS |[F,P]|

   @DF-RHF iter SAD:  -796.75359517264417   -7.96754e+02   0.00000e+00 
   @DF-RHF iter   1:  -796.92807639663340   -1.74481e-01   1.23564e-03 DIIS
   @DF-RHF iter   2:  -797.17123891085180   -2.43163e-01   8.22117e-04 DIIS
   @DF-RHF iter   3:  -797.30839749478616   -1.37159e-01   1.56424e-04 DIIS
   @DF-RHF iter   4:  -797.31586790176061   -7.47041e-03   6.28414e-05 DIIS
   @DF-RHF iter   5:  -797.31723811322706   -1.37021e-03   1.72387e-05 DIIS
   @DF-RHF iter   6:  -797.31739881329202   -1.60700e-04   8.14902e-06 DIIS
   @DF-RHF iter   7:  -797.31745288597097   -5.40727e-05   3.42872e-06 DIIS
   @DF-RHF iter   8:  -797.31746371094710   -1.08250e-05   1.31392e-06 DIIS
   @DF-RHF iter   9:  -797.31746532159048   -1.61064e-06   4.46357e-07 DIIS
   @DF-RHF iter  10:  -797.31746549025956   -1.68669e-07   1.45979e-07 DIIS
   @DF-RHF iter  11:  -797.31746551080016   -2.05406e-08   7.29654e-08 DIIS
   @DF-RHF iter  12:  -797.31746551475135   -3.95119e-09   3.26256e-08 DIIS
   @DF-RHF iter  13:  -797.31746551588628   -1.13494e-09   1.52201e-08 DIIS
   @DF-RHF iter  14:  -797.31746551612150   -2.35218e-10   5.81984e-09 DIIS
   @DF-RHF iter  15:  -797.31746551614276   -2.12594e-11   2.17703e-09 DIIS
   @DF-RHF iter  16:  -797.31746551614503   -2.27374e-12   8.09243e-10 DIIS
   @DF-RHF iter  17:  -797.31746551614435    6.82121e-13   3.15116e-10 DIIS
   @DF-RHF iter  18:  -797.31746551614810   -3.75167e-12   9.59373e-11 DIIS
  Energy and wave function converged.


  ==> Post-Iterations <==

    Orbital Energies [Eh]
    ---------------------

    Doubly Occupied:                                                      

       1A    -91.984238     2A    -20.533229     3A    -15.619522  
       4A    -11.369560     5A    -11.312225     6A    -11.250395  
       7A    -11.249643     8A    -11.245607     9A    -11.226125  
      10A    -11.222207    11A     -8.984741    12A     -6.665903  
      13A     -6.665336    14A     -6.664451    15A     -1.389045  
      16A     -1.265248    17A     -1.159709    18A     -1.038338  
      19A     -1.012211    20A     -0.971488    21A     -0.912727  
      22A     -0.825739    23A     -0.784534    24A     -0.725963  
      25A     -0.688246    26A     -0.673365    27A     -0.633077  
      28A     -0.610147    29A     -0.592990    30A     -0.581941  
      31A     -0.576008    32A     -0.559253    33A     -0.558395  
      34A     -0.523667    35A     -0.516604    36A     -0.501958  
      37A     -0.472959    38A     -0.442187    39A     -0.433865  
      40A     -0.340414    41A     -0.295826  

    Virtual:                                                              

      42A      0.022760    43A      0.031200    44A      0.037633  
      45A      0.041717    46A      0.043796    47A      0.051499  
      48A      0.052897    49A      0.063984    50A      0.069528  
      51A      0.083766    52A      0.087993    53A      0.094233  
      54A      0.096700    55A      0.102384    56A      0.104690  
      57A      0.110498    58A      0.115749    59A      0.119463  
      60A      0.123020    61A      0.127347    62A      0.130052  
      63A      0.132693    64A      0.135784    65A      0.139636  
      66A      0.143132    67A      0.144529    68A      0.151774  
      69A      0.156885    70A      0.158120    71A      0.162819  
      72A      0.166881    73A      0.176098    74A      0.179580  
      75A      0.183167    76A      0.191001    77A      0.193983  
      78A      0.203396    79A      0.206198    80A      0.214411  
      81A      0.216791    82A      0.229450    83A      0.230259  
      84A      0.238372    85A      0.238800    86A      0.243195  
      87A      0.248906    88A      0.251851    89A      0.259612  
      90A      0.265095    91A      0.270917    92A      0.272482  
      93A      0.283303    94A      0.284440    95A      0.297374  
      96A      0.298676    97A      0.304802    98A      0.308080  
      99A      0.314664   100A      0.322751   101A      0.326091  
     102A      0.328973   103A      0.335685   104A      0.337191  
     105A      0.338933   106A      0.344572   107A      0.353774  
     108A      0.355138   109A      0.360113   110A      0.365360  
     111A      0.367559   112A      0.370250   113A      0.375920  
     114A      0.381807   115A      0.389279   116A      0.394782  
     117A      0.399309   118A      0.403300   119A      0.404709  
     120A      0.407916   121A      0.412468   122A      0.416314  
     123A      0.422816   124A      0.428250   125A      0.431617  
     126A      0.438691   127A      0.444278   128A      0.444806  
     129A      0.452619   130A      0.455631   131A      0.459234  
     132A      0.459621   133A      0.469948   134A      0.474996  
     135A      0.476790   136A      0.481759   137A      0.490737  
     138A      0.491097   139A      0.492523   140A      0.495658  
     141A      0.499670   142A      0.504122   143A      0.508816  
     144A      0.512648   145A      0.519891   146A      0.521533  
     147A      0.527072   148A      0.529004   149A      0.540856  
     150A      0.544550   151A      0.551066   152A      0.552144  
     153A      0.555485   154A      0.561428   155A      0.565903  
     156A      0.578332   157A      0.581985   158A      0.585102  
     159A      0.588558   160A      0.594893   161A      0.598049  
     162A      0.604244   163A      0.610305   164A      0.621371  
     165A      0.627100   166A      0.632314   167A      0.644877  
     168A      0.652941   169A      0.659529   170A      0.666752  
     171A      0.671008   172A      0.678213   173A      0.688433  
     174A      0.703921   175A      0.715864   176A      0.718260  
     177A      0.732400   178A      0.746192   179A      0.747844  
     180A      0.760281   181A      0.762880   182A      0.769658  
     183A      0.772348   184A      0.782508   185A      0.793551  
     186A      0.799717   187A      0.804897   188A      0.809916  
     189A      0.813001   190A      0.820203   191A      0.821445  
     192A      0.828491   193A      0.830468   194A      0.841968  
     195A      0.847911   196A      0.853846   197A      0.865697  
     198A      0.871971   199A      0.873974   200A      0.875928  
     201A      0.891093   202A      0.892833   203A      0.896558  
     204A      0.900886   205A      0.911369   206A      0.916029  
     207A      0.919084   208A      0.921722   209A      0.929596  
     210A      0.935969   211A      0.945334   212A      0.947648  
     213A      0.952865   214A      0.956951   215A      0.961418  
     216A      0.966298   217A      0.976228   218A      0.978223  
     219A      0.980672   220A      0.985247   221A      0.996599  
     222A      0.999026   223A      1.007936   224A      1.009525  
     225A      1.012850   226A      1.017916   227A      1.027681  
     228A      1.029403   229A      1.034857   230A      1.037689  
     231A      1.054358   232A      1.055868   233A      1.063692  
     234A      1.068745   235A      1.071895   236A      1.078773  
     237A      1.081394   238A      1.088241   239A      1.091938  
     240A      1.096958   241A      1.102073   242A      1.106891  
     243A      1.110784   244A      1.117134   245A      1.126525  
     246A      1.128613   247A      1.129006   248A      1.135578  
     249A      1.139366   250A      1.150651   251A      1.154747  
     252A      1.165898   253A      1.168668   254A      1.172661  
     255A      1.178648   256A      1.180892   257A      1.189551  
     258A      1.192779   259A      1.207408   260A      1.210710  
     261A      1.219696   262A      1.223403   263A      1.223930  
     264A      1.236253   265A      1.245765   266A      1.248658  
     267A      1.259697   268A      1.266704   269A      1.267906  
     270A      1.270794   271A      1.275924   272A      1.287965  
     273A      1.294006   274A      1.302543   275A      1.310229  
     276A      1.321692   277A      1.334783   278A      1.346401  
     279A      1.348547   280A      1.356699   281A      1.365740  
     282A      1.378926   283A      1.382023   284A      1.387649  
     285A      1.394167   286A      1.404384   287A      1.417359  
     288A      1.428479   289A      1.431444   290A      1.433315  
     291A      1.453332   292A      1.463863   293A      1.464485  
     294A      1.477157   295A      1.480035   296A      1.486661  
     297A      1.487873   298A      1.499894   299A      1.501918  
     300A      1.506070   301A      1.521365   302A      1.529050  
     303A      1.537942   304A      1.549212   305A      1.558915  
     306A      1.569862   307A      1.583855   308A      1.591531  
     309A      1.613632   310A      1.618773   311A      1.622150  
     312A      1.637086   313A      1.642900   314A      1.645914  
     315A      1.648345   316A      1.653343   317A      1.663281  
     318A      1.668937   319A      1.679702   320A      1.685945  
     321A      1.697548   322A      1.704976   323A      1.712367  
     324A      1.715248   325A      1.729267   326A      1.736219  
     327A      1.746313   328A      1.750169   329A      1.758272  
     330A      1.767177   331A      1.780033   332A      1.786525  
     333A      1.790008   334A      1.796025   335A      1.801934  
     336A      1.824809   337A      1.833279   338A      1.841241  
     339A      1.855185   340A      1.861059   341A      1.874682  
     342A      1.883420   343A      1.894732   344A      1.900891  
     345A      1.910219   346A      1.913121   347A      1.926624  
     348A      1.937939   349A      1.951002   350A      1.958135  
     351A      1.966071   352A      1.968349   353A      1.980441  
     354A      1.983865   355A      1.999596   356A      2.004405  
     357A      2.014467   358A      2.025493   359A      2.033966  
     360A      2.038073   361A      2.056265   362A      2.068936  
     363A      2.086124   364A      2.095366   365A      2.105541  
     366A      2.117617   367A      2.131581   368A      2.141308  
     369A      2.149958   370A      2.165321   371A      2.170944  
     372A      2.178865   373A      2.189359   374A      2.199106  
     375A      2.204268   376A      2.209708   377A      2.213773  
     378A      2.231157   379A      2.242882   380A      2.255145  
     381A      2.271964   382A      2.279176   383A      2.285323  
     384A      2.301094   385A      2.309749   386A      2.319298  
     387A      2.327556   388A      2.344123   389A      2.350800  
     390A      2.358295   391A      2.381352   392A      2.391072  
     393A      2.396687   394A      2.401181   395A      2.416262  
     396A      2.433680   397A      2.443826   398A      2.451357  
     399A      2.468335   400A      2.484256   401A      2.495312  
     402A      2.506995   403A      2.524963   404A      2.547652  
     405A      2.550817   406A      2.560223   407A      2.569263  
     408A      2.577167   409A      2.606366   410A      2.620058  
     411A      2.634327   412A      2.651043   413A      2.667032  
     414A      2.672161   415A      2.692019   416A      2.701369  
     417A      2.717706   418A      2.729951   419A      2.761151  
     420A      2.790490   421A      2.792721   422A      2.810766  
     423A      2.838332   424A      2.867914   425A      2.873085  
     426A      2.899459   427A      2.927856   428A      2.943311  
     429A      2.975481   430A      2.986247   431A      2.992701  
     432A      3.020882   433A      3.056460   434A      3.077208  
     435A      3.091959   436A      3.105913   437A      3.146971  
     438A      3.178537   439A      3.193495   440A      3.208734  
     441A      3.211152   442A      3.249734   443A      3.254271  
     444A      3.274424   445A      3.285726   446A      3.313641  
     447A      3.327071   448A      3.360116   449A      3.376623  
     450A      3.398218   451A      3.405244   452A      3.422239  
     453A      3.439655   454A      3.442644   455A      3.467395  
     456A      3.473284   457A      3.483869   458A      3.505184  
     459A      3.509350   460A      3.535988   461A      3.553062  
     462A      3.556459   463A      3.569692   464A      3.583568  
     465A      3.593882   466A      3.603221   467A      3.616465  
     468A      3.632590   469A      3.636745   470A      3.638864  
     471A      3.643101   472A      3.652367   473A      3.658339  
     474A      3.673103   475A      3.677941   476A      3.686927  
     477A      3.712389   478A      3.723733   479A      3.742307  
     480A      3.751993   481A      3.759736   482A      3.785079  
     483A      3.790395   484A      3.797947   485A      3.819950  
     486A      3.833703   487A      3.851604   488A      3.867388  
     489A      3.870639   490A      3.876306   491A      3.876763  
     492A      3.885227   493A      3.896765   494A      3.912023  
     495A      3.918035   496A      3.925398   497A      3.937659  
     498A      3.956998   499A      3.963762   500A      3.967532  
     501A      3.980492   502A      3.998807   503A      4.011531  
     504A      4.013570   505A      4.033273   506A      4.044324  
     507A      4.054828   508A      4.062987   509A      4.076745  
     510A      4.085024   511A      4.097012   512A      4.107030  
     513A      4.118011   514A      4.125168   515A      4.134661  
     516A      4.152185   517A      4.159478   518A      4.179653  
     519A      4.181833   520A      4.202638   521A      4.206278  
     522A      4.217750   523A      4.225327   524A      4.232854  
     525A      4.252536   526A      4.273520   527A      4.280667  
     528A      4.302827   529A      4.310924   530A      4.320526  
     531A      4.331930   532A      4.347520   533A      4.362647  
     534A      4.370633   535A      4.387339   536A      4.407099  
     537A      4.410656   538A      4.431021   539A      4.445533  
     540A      4.457856   541A      4.479033   542A      4.480502  
     543A      4.497807   544A      4.501745   545A      4.511519  
     546A      4.522052   547A      4.532062   548A      4.548447  
     549A      4.567745   550A      4.572563   551A      4.585212  
     552A      4.620387   553A      4.629305   554A      4.646744  
     555A      4.666573   556A      4.678918   557A      4.693529  
     558A      4.707481   559A      4.715521   560A      4.748972  
     561A      4.775241   562A      4.775670   563A      4.781471  
     564A      4.813705   565A      4.818847   566A      4.837387  
     567A      4.844965   568A      4.856203   569A      4.868799  
     570A      4.880917   571A      4.900292   572A      4.929656  
     573A      4.954235   574A      4.977719   575A      4.991084  
     576A      5.001833   577A      5.021742   578A      5.030244  
     579A      5.055611   580A      5.075149   581A      5.076412  
     582A      5.090321   583A      5.107154   584A      5.132493  
     585A      5.149907   586A      5.158786   587A      5.194136  
     588A      5.211997   589A      5.229416   590A      5.233568  
     591A      5.255377   592A      5.266813   593A      5.271910  
     594A      5.314082   595A      5.325602   596A      5.337028  
     597A      5.367413   598A      5.380985   599A      5.409530  
     600A      5.447661   601A      5.463634   602A      5.488911  
     603A      5.509738   604A      5.536561   605A      5.545345  
     606A      5.571292   607A      5.595032   608A      5.602247  
     609A      5.622930   610A      5.635163   611A      5.650640  
     612A      5.695292   613A      5.714378   614A      5.720177  
     615A      5.737850   616A      5.756023   617A      5.789500  
     618A      5.808935   619A      5.837695   620A      5.864221  
     621A      5.944666   622A      5.986329   623A      6.014799  
     624A      6.040531   625A      6.071083   626A      6.092028  
     627A      6.114789   628A      6.125562   629A      6.153063  
     630A      6.156025   631A      6.173348   632A      6.224106  
     633A      6.282177   634A      6.305353   635A      6.404732  
     636A      6.444170   637A      6.536035   638A      6.627086  
     639A      6.647322   640A      6.718561   641A      6.739793  
     642A      6.745086   643A      6.763610   644A      6.772230  
     645A      6.841813   646A      6.847459   647A      6.866072  
     648A      6.986230   649A      7.000187   650A      7.028509  
     651A      7.145785   652A      7.212075   653A      7.281499  
     654A      7.419716   655A      7.437780   656A      7.633623  
     657A      7.696537   658A      7.704550   659A      7.774722  
     660A      7.919524   661A      8.069923   662A      9.063720  
     663A     15.380971   664A     16.223839   665A     17.160035  
     666A     17.360709   667A     17.954001   668A     18.142128  
     669A     19.807927   670A     19.956430   671A     20.395243  

    Final Occupation by Irrep:
              A 
    DOCC [    41 ]

  @DF-RHF Final Energy:  -797.31746551614810

   => Energetics <=

    Nuclear Repulsion Energy =            584.7568801588492988
    One-Electron Energy =               -2253.9905217807731788
    Two-Electron Energy =                 871.9161761057757758
    Total Energy =                       -797.3174655161481041

Computation Completed

*** tstop() called on node59.bme.utexas.edu at Sat Mar 27 20:30:34 2021
Module time:
	user time   =     338.08 seconds =       5.63 minutes
	system time =      42.96 seconds =       0.72 minutes
	total time  =         77 seconds =       1.28 minutes
Total time:
	user time   =     338.08 seconds =       5.63 minutes
	system time =      42.96 seconds =       0.72 minutes
	total time  =         77 seconds =       1.28 minutes
   => Loading Basis Set <=

    Name: (AUG-CC-PVTZ AUX)
    Role: RIFIT
    Keyword: DF_BASIS_MP2
    atoms 1     entry S          line   666 file /home/xy3866/psi4conda/share/psi4/basis/aug-cc-pvtz-ri.gbs 
    atoms 2     entry O          line   264 file /home/xy3866/psi4conda/share/psi4/basis/aug-cc-pvtz-ri.gbs 
    atoms 3     entry N          line   206 file /home/xy3866/psi4conda/share/psi4/basis/aug-cc-pvtz-ri.gbs 
    atoms 4-10  entry C          line   148 file /home/xy3866/psi4conda/share/psi4/basis/aug-cc-pvtz-ri.gbs 
    atoms 11-19 entry H          line    30 file /home/xy3866/psi4conda/share/psi4/basis/aug-cc-pvtz-ri.gbs 


*** tstart() called on node59.bme.utexas.edu
*** at Sat Mar 27 20:30:34 2021


  //>>>>>>>>>>>>>>>>>>>>>>>>>>>>>>>>>>>//
  //               DFMP2               //
  //<<<<<<<<<<<<<<<<<<<<<<<<<<<<<<<<<<<//

	 --------------------------------------------------------
	                          DF-MP2                         
	      2nd-Order Density-Fitted Moller-Plesset Theory     
	              RMP2 Wavefunction,   8 Threads             
	                                                         
	        Rob Parrish, Justin Turney, Andy Simmonett,      
	           Ed Hohenstein, and C. David Sherrill          
	 --------------------------------------------------------

   => Auxiliary Basis Set <=

  Basis Set: (AUG-CC-PVTZ AUX)
    Blend: AUG-CC-PVTZ-RI
    Number of shells: 415
    Number of basis function: 1515
    Number of Cartesian functions: 1910
    Spherical Harmonics?: true
    Max angular momentum: 4

	 --------------------------------------------------------
	                 NBF =   671, NAUX =  1515
	 --------------------------------------------------------
	   CLASS    FOCC     OCC    AOCC    AVIR     VIR    FVIR
	   PAIRS       0      41      41     630     630       0
	 --------------------------------------------------------

  DFHelper Memory: AOs need 4.696 GiB; user supplied 22.352 GiB. Using in-core AOs.


         ------------------------------------------------------------
                                     CPHF                           
                                  Rob Parrish                       
         ------------------------------------------------------------

  ==> Geometry <==

    Molecular point group: c1
    Full point group: C1

    Geometry (in Angstrom), charge = 0, multiplicity = 1:

       Center              X                  Y                   Z               Mass       
    ------------   -----------------  -----------------  -----------------  -----------------
         S           -1.000744713054    -1.709091104647    -0.014291830084    31.972071174400
         O            2.133673286946     1.644180895353    -0.059420830084    15.994914619570
         N            1.437135286946    -0.542771104647     0.000611169916    14.003074004430
         C           -2.066922713054     0.639993895353     0.011046169916    12.000000000000
         C            0.052540286946    -0.326091104647     0.003605169916    12.000000000000
         C           -0.655696713054     0.854020895353     0.013915169916    12.000000000000
         C           -2.395972713054    -0.693334104647    -0.001764830084    12.000000000000
         C           -3.070481713054     1.756608895353     0.022311169916    12.000000000000
         C            2.399810286946     0.444002895353    -0.024301830084    12.000000000000
         C            3.819963286946    -0.078667104647     0.046243169916    12.000000000000
         H           -0.174514713054     1.822636895353     0.021084169916     1.007825032230
         H           -3.382039613054    -1.141954304647     0.196467069916     1.007825032230
         H            1.754488286946    -1.504249104647     0.030854169916     1.007825032230
         H           -2.951607713054     2.400501895353    -0.854826830084     1.007825032230
         H           -4.091230713054     1.364631895353     0.019292169916     1.007825032230
         H           -2.950550713054     2.384103895353     0.911118169916     1.007825032230
         H            3.935733286946    -1.054219104647    -0.433521830084     1.007825032230
         H            4.125434286946    -0.166708104647     1.093242169916     1.007825032230
         H            4.473272286946     0.644792895353    -0.441787830084     1.007825032230

  Nuclear repulsion =  584.756880158849299
  Reference energy  = -797.317465516148104

  ==> Basis Set <==

  Basis Set: AUG-CC-PVTZ
    Blend: AUG-CC-PVTZ
    Number of shells: 223
    Number of basis function: 671
    Number of Cartesian functions: 779
    Spherical Harmonics?: true
    Max angular momentum: 3

  ==> CGRSolver (by Rob Parrish) <==

   Number of roots    =         1
   Preconditioning    =    JACOBI
   Convergence cutoff =     1E-06
   Maximum iterations =       100

  ==> CPHFRHamiltonian (by Rob Parrish) <== 

  ==> MemDFJK: Density-Fitted J/K Matrices <==

    J tasked:                   Yes
    K tasked:                   Yes
    wK tasked:                   No
    OpenMP threads:               8
    Memory [MiB]:             22888
    Algorithm:                 Disk
    Schwarz Cutoff:           1E-12
    Mask sparsity (%):       9.1000
    Fitting Condition:        1E-10

   => Auxiliary Basis Set <=

  Basis Set: (AUG-CC-PVTZ AUX)
    Blend: AUG-CC-PVTZ-JKFIT
    Number of shells: 438
    Number of basis function: 1496
    Number of Cartesian functions: 1854
    Spherical Harmonics?: true
    Max angular momentum: 4

  ==> CPHF Iterations <==

  => Iterations <=

             Iter  Converged  Remaining    Residual
  CGR           1          0          1   1.326E-01
  CGR           2          0          1   4.422E-02
  CGR           3          0          1   2.320E-02
  CGR           4          0          1   7.999E-03
  CGR           5          0          1   3.360E-03
  CGR           6          0          1   1.591E-03
  CGR           7          0          1   6.171E-04
  CGR           8          0          1   2.739E-04
  CGR           9          0          1   1.038E-04
  CGR          10          0          1   3.912E-05
  CGR          11          0          1   1.349E-05
  CGR          12          0          1   4.884E-06
  CGR          13          0          1   1.631E-06
  CGR          14          1          0   4.493E-07

    CGRSolver converged.

	-----------------------------------------------------------
	 ==================> DF-MP2 Energies <==================== 
	-----------------------------------------------------------
	 Reference Energy          =    -797.3174655161481041 [Eh]
	 Singles Energy            =      -0.0000000000000000 [Eh]
	 Same-Spin Energy          =      -0.4856754284488678 [Eh]
	 Opposite-Spin Energy      =      -1.5019670483724736 [Eh]
	 Correlation Energy        =      -1.9876424768213414 [Eh]
	 Total Energy              =    -799.3051079929693969 [Eh]
	-----------------------------------------------------------
	 ================> DF-SCS-MP2 Energies <================== 
	-----------------------------------------------------------
	 SCS Same-Spin Scale       =       0.3333333333333333 [-]
	 SCS Opposite-Spin Scale   =       1.2000000000000000 [-]
	 SCS Same-Spin Energy      =      -0.1618918094829559 [Eh]
	 SCS Opposite-Spin Energy  =      -1.8023604580469683 [Eh]
	 SCS Correlation Energy    =      -1.9642522675299243 [Eh]
	 SCS Total Energy          =    -799.2817177836780047 [Eh]
	-----------------------------------------------------------



Properties will be evaluated at  -0.000000,   0.000000,   0.000000 [a0]

Properties computed using the MP2 density matrix

  Nuclear Dipole Moment: [e a0]
     X:     0.6724      Y:     4.4169      Z:     0.5074

  Electronic Dipole Moment: [e a0]
     X:    -0.4886      Y:    -5.4033      Z:    -0.3751

  Dipole Moment: [e a0]
     X:     0.1838      Y:    -0.9863      Z:     0.1322     Total:     1.0120

  Dipole Moment: [D]
     X:     0.4672      Y:    -2.5070      Z:     0.3361     Total:     2.5722


*** tstop() called on node59.bme.utexas.edu at Sat Mar 27 20:33:42 2021
Module time:
	user time   =    1108.58 seconds =      18.48 minutes
	system time =      50.71 seconds =       0.85 minutes
	total time  =        188 seconds =       3.13 minutes
Total time:
	user time   =    1446.84 seconds =      24.11 minutes
	system time =      93.67 seconds =       1.56 minutes
	total time  =        265 seconds =       4.42 minutes

    Psi4 stopped on: Saturday, 27 March 2021 08:33PM
    Psi4 wall time for execution: 0:04:24.97

*** Psi4 exiting successfully. Buy a developer a beer!
