SP Density=Current                                                      
Freq      RMP2-FC                                                     6-31G(d)            
Number of atoms                            I                5
Info1-9                                    I   N=           9
          14          14        1002           0           0         100
           6           2           1
Charge                                     I                0
Multiplicity                               I                1
Number of electrons                        I               10
Number of alpha electrons                  I                5
Number of beta electrons                   I                5
Number of basis functions                  I               23
Number of independent functions            I               23
Number of point charges in /Mol/           I                0
Number of translation vectors              I                0
Atomic numbers                             I   N=           5
           6           1           1           1           1
Nuclear charges                            R   N=           5
  6.00000000E+00  1.00000000E+00  1.00000000E+00  1.00000000E+00  1.00000000E+00
Current cartesian coordinates              R   N=          15
  6.77754748E-06  5.68406335E-08  2.38228016E-22 -7.39739953E-01 -9.33118293E-01
 -1.68082781E+00 -7.35317342E-01 -9.32826636E-01  1.68292890E+00 -5.81923339E-01
  1.97597370E+00  5.93742080E-04  2.05693997E+00 -1.10029110E-01 -2.69486005E-03
Force Field                                I                0
Int Atom Types                             I   N=           5
           0           0           0           0           0
MM charges                                 R   N=           5
  0.00000000E+00  0.00000000E+00  0.00000000E+00  0.00000000E+00  0.00000000E+00
Integer atomic weights                     I   N=           5
          12           1           1           1           1
Real atomic weights                        R   N=           5
  1.20000000E+01  1.00782504E+00  1.00782504E+00  1.00782504E+00  1.00782504E+00
Atom fragment info                         I   N=           5
           0           0           0           0           0
Atom residue num                           I   N=           5
           0           0           0           0           0
Nuclear spins                              I   N=           5
           0           1           1           1           1
Nuclear ZEff                               R   N=           5
 -3.60000000E+00 -1.00000000E+00 -1.00000000E+00 -1.00000000E+00 -1.00000000E+00
Nuclear QMom                               R   N=           5
  0.00000000E+00  0.00000000E+00  0.00000000E+00  0.00000000E+00  0.00000000E+00
Nuclear GFac                               R   N=           5
  0.00000000E+00  2.79284600E+00  2.79284600E+00  2.79284600E+00  2.79284600E+00
MicOpt                                     I   N=           5
          -1          -1          -1          -1          -1
Number of contracted shells                I               12
Number of primitive shells                 I               27
Pure/Cartesian d shells                    I                1
Pure/Cartesian f shells                    I                0
Highest angular momentum                   I                2
Largest degree of contraction              I                6
Shell types                                I   N=          12
           0          -1          -1           2           0           0
           0           0           0           0           0           0
Number of primitives per shell             I   N=          12
           6           3           1           1           3           1
           3           1           3           1           3           1
Shell to atom map                          I   N=          12
           1           1           1           1           2           2
           3           3           4           4           5           5
Primitive exponents                        R   N=          27
  3.04752488E+03  4.57369518E+02  1.03948685E+02  2.92101553E+01  9.28666296E+00
  3.16392696E+00  7.86827235E+00  1.88128854E+00  5.44249258E-01  1.68714478E-01
  8.00000000E-01  1.87311370E+01  2.82539436E+00  6.40121692E-01  1.61277759E-01
  1.87311370E+01  2.82539436E+00  6.40121692E-01  1.61277759E-01  1.87311370E+01
  2.82539436E+00  6.40121692E-01  1.61277759E-01  1.87311370E+01  2.82539436E+00
  6.40121692E-01  1.61277759E-01
Contraction coefficients                   R   N=          27
  1.83473713E-03  1.40373228E-02  6.88426223E-02  2.32184443E-01  4.67941348E-01
  3.62311985E-01 -1.19332420E-01 -1.60854152E-01  1.14345644E+00  1.00000000E+00
  1.00000000E+00  3.34946043E-02  2.34726953E-01  8.13757326E-01  1.00000000E+00
  3.34946043E-02  2.34726953E-01  8.13757326E-01  1.00000000E+00  3.34946043E-02
  2.34726953E-01  8.13757326E-01  1.00000000E+00  3.34946043E-02  2.34726953E-01
  8.13757326E-01  1.00000000E+00
P(S=P) Contraction coefficients            R   N=          27
  0.00000000E+00  0.00000000E+00  0.00000000E+00  0.00000000E+00  0.00000000E+00
  0.00000000E+00  6.89990666E-02  3.16423961E-01  7.44308291E-01  1.00000000E+00
  0.00000000E+00  0.00000000E+00  0.00000000E+00  0.00000000E+00  0.00000000E+00
  0.00000000E+00  0.00000000E+00  0.00000000E+00  0.00000000E+00  0.00000000E+00
  0.00000000E+00  0.00000000E+00  0.00000000E+00  0.00000000E+00  0.00000000E+00
  0.00000000E+00  0.00000000E+00
Coordinates of each shell                  R   N=          36
  6.77754748E-06  5.68406335E-08  2.38228016E-22  6.77754748E-06  5.68406335E-08
  2.38228016E-22  6.77754748E-06  5.68406335E-08  2.38228016E-22  6.77754748E-06
  5.68406335E-08  2.38228016E-22 -7.39739953E-01 -9.33118293E-01 -1.68082781E+00
 -7.39739953E-01 -9.33118293E-01 -1.68082781E+00 -7.35317342E-01 -9.32826636E-01
  1.68292890E+00 -7.35317342E-01 -9.32826636E-01  1.68292890E+00 -5.81923339E-01
  1.97597370E+00  5.93742080E-04 -5.81923339E-01  1.97597370E+00  5.93742080E-04
  2.05693997E+00 -1.10029110E-01 -2.69486005E-03  2.05693997E+00 -1.10029110E-01
 -2.69486005E-03
Constraint Structure                       R   N=          15
  6.77754748E-06  5.68406335E-08  2.38228016E-22 -7.39739953E-01 -9.33118293E-01
 -1.68082781E+00 -7.35317342E-01 -9.32826636E-01  1.68292890E+00 -5.81923339E-01
  1.97597370E+00  5.93742080E-04  2.05693997E+00 -1.10029110E-01 -2.69486005E-03
Num ILSW                                   I              100
ILSW                                       I   N=         100
           0           1           0           0           2           0
           0           0           0           0           0          -1
           0           0           0           0           0           0
           0           0           0           0           1           0
           1           0           0           0           0           0
           0           0      100000           0          -1           0
           0           0           0           0           0           0
           0           0           0           1           1           0
           0           0           1           0           0           0
           0           0           4          40           0           0
           0           0           0           0           0           0
           0           0           0           0           0           0
           0           0           0           0           0           0
           0           0           0           0           0           0
           0           0           0           0           0           0
           0           0           0           0           0           0
           0           0           0           0
Num RLSW                                   I               40
RLSW                                       R   N=          40
  1.00000000E+00  1.00000000E+00  1.00000000E+00  1.00000000E+00  1.00000000E+00
  0.00000000E+00  0.00000000E+00  1.00000000E+00  0.00000000E+00  0.00000000E+00
  0.00000000E+00  0.00000000E+00  1.00000000E+00  0.00000000E+00  0.00000000E+00
  0.00000000E+00  0.00000000E+00  1.00000000E+00  0.00000000E+00  0.00000000E+00
  0.00000000E+00  0.00000000E+00  1.00000000E+00  0.00000000E+00  0.00000000E+00
  0.00000000E+00  0.00000000E+00  1.00000000E+00  0.00000000E+00  0.00000000E+00
  0.00000000E+00  0.00000000E+00  0.00000000E+00  0.00000000E+00  0.00000000E+00
  0.00000000E+00  0.00000000E+00  0.00000000E+00  1.00000000E+00  1.00000000E+00
MxBond                                     I                4
NBond                                      I   N=           5
           4           1           1           1           1
IBond                                      I   N=          20
           2           3           4           5           1           0
           0           0           1           0           0           0
           1           0           0           0           1           0
           0           0
RBond                                      R   N=          20
  1.00000000E+00  1.00000000E+00  1.00000000E+00  1.00000000E+00  1.00000000E+00
  0.00000000E+00  0.00000000E+00  0.00000000E+00  1.00000000E+00  0.00000000E+00
  0.00000000E+00  0.00000000E+00  1.00000000E+00  0.00000000E+00  0.00000000E+00
  0.00000000E+00  1.00000000E+00  0.00000000E+00  0.00000000E+00  0.00000000E+00
Virial Ratio                               R      2.001205199701397E+00
SCF Energy                                 R     -4.019505970694419E+01
MP2 Energy                                 R     -4.033255249889689E+01
Total Energy                               R     -4.033255249889689E+01
Post-SCF wavefunction norm                 R      1.446040324116255E+00
RMS Force                                  R      2.024226025238543E-06
RMS Density                                R      2.924804856220397E-10
External E-field                           R   N=          35
  0.00000000E+00  0.00000000E+00  0.00000000E+00  0.00000000E+00  0.00000000E+00
  0.00000000E+00  0.00000000E+00  0.00000000E+00  0.00000000E+00  0.00000000E+00
  0.00000000E+00  0.00000000E+00  0.00000000E+00  0.00000000E+00  0.00000000E+00
  0.00000000E+00  0.00000000E+00  0.00000000E+00  0.00000000E+00  0.00000000E+00
  0.00000000E+00  0.00000000E+00  0.00000000E+00  0.00000000E+00  0.00000000E+00
  0.00000000E+00  0.00000000E+00  0.00000000E+00  0.00000000E+00  0.00000000E+00
  0.00000000E+00  0.00000000E+00  0.00000000E+00  0.00000000E+00  0.00000000E+00
IOpCl                                      I                0
IROHF                                      I                0
Alpha Orbital Energies                     R   N=          23
 -1.12080733E+01 -9.41948865E-01 -5.44536589E-01 -5.44532414E-01 -5.44531896E-01
  2.55796744E-01  3.26040219E-01  3.26040406E-01  3.26041765E-01  7.30494693E-01
  7.30494844E-01  7.30495363E-01  1.17862120E+00  1.17862187E+00  1.17862744E+00
  1.24134050E+00  1.31254464E+00  1.94198801E+00  1.94198817E+00  2.58251128E+00
  2.58251291E+00  2.58251325E+00  4.60678544E+00
Alpha MO coefficients                      R   N=         529
  9.95638161E-01  2.83747360E-02 -1.43492247E-08 -7.27175112E-11  1.79630151E-11
 -1.32162832E-02  6.51600526E-08  4.00658268E-10 -6.85216945E-11 -2.05143066E-03
 -2.05144947E-03 -2.05145099E-03 -1.47966662E-09 -6.25394193E-11 -4.35723003E-11
  4.25210829E-05  2.44840396E-03  4.25210397E-05  2.44840408E-03  4.25199584E-05
  2.44840294E-03  4.25041578E-05  2.44838382E-03 -1.93885978E-01  3.58346333E-01
 -1.31768255E-06  1.87925450E-09  8.32602244E-09  3.65456820E-01 -9.18971143E-07
 -4.84044209E-09  1.54999848E-09  1.01503564E-02  1.01497255E-02  1.01496362E-02
 -1.53718237E-08 -1.44077304E-09 -1.47218976E-09  1.34044979E-01  3.79349462E-02
  1.34044990E-01  3.79349476E-02  1.34045019E-01  3.79349623E-02  1.34045323E-01
  3.79351635E-02 -9.40679413E-07  2.50978824E-06  4.34669801E-01 -1.41832754E-02
 -7.24393985E-04  6.38705963E-07  2.29514995E-01 -7.48905921E-03 -3.82493588E-04
  3.57874668E-02 -1.72678077E-02 -1.85198093E-02 -3.72158780E-03 -7.42152024E-05
  1.47736498E-05 -9.99639169E-02 -8.29611913E-02 -1.00132689E-01 -8.31012575E-02
 -9.14614679E-02 -7.59048468E-02  2.91557015E-01  2.41967405E-01 -3.53325438E-08
  9.89083512E-08  1.41717237E-02  4.34627730E-01 -6.07177914E-03  1.05155197E-08
  7.48304575E-03  2.29494503E-01 -3.20605144E-03 -2.59199041E-03  2.76572976E-02
 -2.50653146E-02 -1.90167388E-02  2.76232885E-04  4.10225768E-04 -1.32110312E-01
 -1.09642033E-01 -1.38697188E-01 -1.15108664E-01  2.76880149E-01  2.29790548E-01
 -6.07270056E-03 -5.03986368E-03 -2.36773778E-10  4.20498028E-09  9.21948636E-04
  6.04493000E-03  4.34858064E-01 -8.99596089E-09  4.86815055E-04  3.19188215E-03
  2.29616328E-01 -7.40007059E-05  3.72225308E-04 -2.98225974E-04 -3.03436999E-04
 -2.23165130E-02 -2.82291817E-02 -2.39992316E-01 -1.99176693E-01  2.36175286E-01
  1.96008824E-01  3.79769033E-03  3.15181343E-03  1.93312839E-05  1.60428754E-05
 -1.57369937E-01  1.07180092E-01 -2.12177689E-06 -3.74774530E-08 -1.40757755E-08
  2.78849833E+00 -1.77086317E-05 -1.89400614E-07 -3.40797399E-08 -1.25285470E-02
 -1.25285202E-02 -1.25285379E-02  1.62328168E-08 -4.17849097E-10 -9.54720619E-10
  3.87867057E-03 -1.04101207E+00  3.87867951E-03 -1.04101200E+00  3.87864081E-03
 -1.04101160E+00  3.87794308E-03 -1.04100626E+00 -7.59356226E-09  4.43832071E-09
  8.63202533E-04  6.26526158E-03  2.98693977E-01  2.16048595E-07  4.31491291E-03
  3.13183925E-02  1.49309241E+00  3.06626319E-05 -2.34491396E-04  2.03826025E-04
  1.84673280E-04  9.35845745E-03  1.18378263E-02  6.41328964E-02  1.65275713E+00
 -6.25771495E-02 -1.61266419E+00 -1.52028240E-03 -3.91790903E-02 -3.54635188E-05
 -9.14104766E-04  3.08868322E-08 -6.25541174E-08 -8.03701811E-03 -2.98586729E-01
  6.28623102E-03 -5.41992560E-07 -4.01744151E-02 -1.49255860E+00  3.14232551E-02
 -1.17195914E-03  1.16389542E-02 -1.04669877E-02 -7.96545134E-03  1.82386078E-04
  2.55952013E-04 -3.45539055E-02 -8.90490644E-01 -3.72051211E-02 -9.58814975E-01
  7.38153559E-02  1.90229728E+00 -2.05620179E-03 -5.29912249E-02  6.60341631E-07
 -1.83676563E-06 -2.98651520E-01  8.05320623E-03  6.94150580E-04 -7.75609836E-06
 -1.49290551E+00  4.02571176E-02  3.46993133E-03  1.50027226E-02 -7.17620088E-03
 -7.82640653E-03 -1.60590113E-03 -2.50520054E-05  1.40233925E-05 -2.67631843E-02
 -6.89786058E-01 -2.68913775E-02 -6.93089755E-01 -2.39211983E-02 -6.16540431E-01
  7.75799918E-02  1.99941838E+00 -5.87596595E-11  3.20547376E-08  2.91990380E-03
  1.34111594E-02 -7.33667469E-01  2.10440593E-09 -5.37873633E-03 -2.47038645E-02
  1.35143621E+00  4.91758958E-04  1.25500970E-03 -1.74675232E-03 -9.52863779E-04
  6.42796449E-02  8.13178322E-02  4.34558401E-01  6.99383456E-02 -4.45568749E-01
 -7.17106804E-02  8.68956106E-03  1.39855302E-03  2.32084485E-03  3.73676721E-04
  6.11076231E-08  1.42907574E-06  1.08179365E-01 -7.25664242E-01 -1.28343371E-02
 -2.39406533E-06 -1.99275838E-01  1.33669860E+00  2.36411695E-02  2.58678691E-02
 -8.73096252E-02  6.14421589E-02  5.19670041E-02  1.16708735E-03  1.36029715E-03
  2.20643441E-01  3.55102427E-02  2.05342073E-01  3.30476897E-02 -5.33829307E-01
 -8.59221480E-02  1.07845888E-01  1.73633423E-02 -4.53605455E-07 -1.02462987E-05
 -7.25770444E-01 -1.08109838E-01 -4.86470761E-03  1.77928340E-05  1.33692693E+00
  1.99141221E-01  8.96086625E-03 -1.00079510E-01  3.46318287E-02  6.54448770E-02
  2.03829700E-02  7.60200152E-04  6.22277491E-04  2.30356270E-01  3.70897832E-02
  2.23364440E-01  3.59645110E-02  7.44287410E-02  1.19915825E-02 -5.28164356E-01
 -8.50405773E-02 -8.58239412E-09  2.79563953E-07 -2.65175331E-03 -1.78907624E-02
 -9.13135232E-01 -5.61125182E-07  3.48025887E-03  2.34804878E-02  1.19843184E+00
 -4.08437566E-04  3.14999396E-03 -2.74151298E-03 -2.51014041E-03 -1.35201437E-01
 -1.71020586E-01 -7.07000908E-01  1.30928433E+00  6.90900849E-01 -1.27946890E+00
  1.56332134E-02 -2.89508987E-02  4.66501165E-04 -8.63884494E-04 -1.48741969E-07
 -9.27016203E-07  3.49801880E-02  9.12467494E-01 -1.79792672E-02  3.26780353E-06
 -4.59092810E-02 -1.19755540E+00  2.35966403E-02  1.44589084E-02 -1.66955148E-01
  1.52496038E-01  1.15335128E-01 -2.44389839E-03 -3.46358540E-03  3.85518986E-01
 -7.13937927E-01  4.12851425E-01 -7.64554466E-01 -8.11296086E-01  1.50242474E+00
  1.29231978E-02 -2.39341306E-02 -3.84573035E-06 -1.26642899E-05  9.12644613E-01
 -3.50257710E-02 -1.96408547E-03  5.90490136E-05 -1.19778705E+00  4.59690448E-02
  2.57773402E-03 -2.16925206E-01  1.05585008E-01  1.11336856E-01  2.18870855E-02
  3.82871771E-04 -1.71894207E-04  2.90850258E-01 -5.38657394E-01  2.92024739E-01
 -5.40832415E-01  2.73176635E-01 -5.05928381E-01 -8.56122470E-01  1.58539745E+00
  8.12966132E-02 -1.13574373E+00  1.80891414E-05 -1.83198870E-07 -2.19872633E-07
  1.94085732E+00 -1.40067239E-05  2.88654256E-07  2.69508435E-07 -5.96653751E-02
 -5.96612901E-02 -5.96616560E-02  7.39956141E-07 -2.14166383E-08 -4.65178230E-08
  5.92763302E-01 -6.68586325E-01  5.92763587E-01 -6.68586865E-01  5.92762277E-01
 -6.68585693E-01  5.92738739E-01 -6.68560980E-01 -1.21147229E-01 -1.85666683E+00
 -7.67647288E-06 -3.39380678E-08  1.80563719E-08  5.19118206E+00 -2.73259908E-05
 -1.58686694E-07  3.72606655E-08 -1.29727327E-01 -1.29736437E-01 -1.29736069E-01
 -1.61234920E-06 -2.76703689E-08  5.24578239E-09 -3.99808801E-01 -9.22912086E-01
 -3.99808749E-01 -9.22912203E-01 -3.99806551E-01 -9.22913529E-01 -3.99773818E-01
 -9.22932169E-01 -2.69158654E-07 -2.19295695E-06 -2.34900090E-08 -1.86000929E-07
  2.51045039E-09  7.42091891E-06 -5.50023887E-08 -4.90135388E-07  3.34793946E-09
  7.68449706E-02  4.23142722E-01 -4.99987939E-01  8.42610717E-01 -6.08930699E-03
  2.86342002E-03 -1.85111598E-06 -1.08914447E-06 -1.86557312E-06 -1.08638871E-06
 -3.17635626E-07 -1.25675224E-06 -1.25551274E-06 -1.15581754E-06 -5.29960331E-09
 -4.31716238E-08 -2.22180603E-09  2.21497405E-10 -1.67823255E-07  1.46101998E-07
 -1.33040809E-09 -2.95118906E-09 -4.51816119E-07  2.29006511E-03  2.67965166E-03
 -4.96972164E-03  4.77416837E-03  7.84457534E-01 -6.20144205E-01 -8.41751690E-07
  6.51803398E-08  7.82658314E-07 -1.09561582E-07 -2.27559517E-08 -2.19222853E-08
 -2.22934754E-08 -2.40252962E-08 -7.43969799E-07  7.34791627E-06  1.70555816E-01
  1.19685451E-02  1.04671114E-03 -3.29099152E-06  4.11172120E-01  2.88533612E-02
  2.52335451E-03  1.10825315E+00 -4.49845522E-01 -6.58411098E-01 -1.77272119E-01
 -7.87488087E-03 -6.37603007E-03  3.33014241E-01 -4.14226989E-02  3.22769821E-01
 -4.01481940E-02  1.80991711E-01 -2.25105277E-02 -8.36795134E-01  1.04092557E-01
  4.19726109E-08 -4.40168590E-07 -1.19968330E-02  1.70466643E-01  5.44571533E-03
  2.72748484E-07 -2.89212846E-02  4.10949347E-01  1.31281247E-02 -1.96172618E-01
  9.18179550E-01 -7.22006720E-01 -5.81156668E-01 -2.30410676E-02 -2.76006472E-02
  3.81515708E-01 -4.74642579E-02  3.37665022E-01 -4.20087584E-02 -8.23203273E-01
  1.02412580E-01  1.04023661E-01 -1.29403035E-02 -2.33784154E-10  1.84817454E-08
  6.62419897E-04  5.50573122E-03 -1.70884770E-01 -5.59370037E-08  1.59693657E-03
  1.32728235E-02 -4.11955697E-01  3.59402830E-03  2.60398501E-02 -2.96338894E-02
 -1.86109089E-02  6.99623482E-01  8.85093955E-01 -6.74230529E-01  8.38812923E-02
  7.02026802E-01 -8.73392837E-02 -2.48818843E-02  3.09552840E-03 -2.91441192E-03
  3.62537034E-04 -4.85123431E-01  2.96994568E+00  1.21002504E-06 -1.62433704E-09
 -7.50965063E-09  2.38744303E+00 -1.06809691E-05 -6.31251051E-08  1.39620966E-08
 -1.87882197E+00 -1.87881775E+00 -1.87881748E+00  3.95926985E-07  1.39499349E-08
  7.96591929E-09  1.28723200E-01 -4.82882724E-01  1.28723231E-01 -4.82882761E-01
  1.28723603E-01 -4.82882753E-01  1.28728871E-01 -4.82882177E-01
Total SCF Density                          R   N=         276
  2.05777424E+00 -8.24547190E-02  2.58434440E-01 -3.36384678E-07  1.23948174E-06
  3.78279048E-01 -4.90556166E-09  1.61761475E-08 -8.86052450E-08  3.78277939E-01
 -1.60684684E-09  4.78810745E-09 -5.93330039E-09 -5.49075214E-09  3.78277854E-01
 -1.68031178E-01  2.61170206E-01 -4.07199018E-07 -7.71047733E-09 -2.79184906E-09
  2.67466715E-01  5.37738258E-08  4.98630358E-07  1.99739468E-01  1.51204615E-08
  1.53890773E-09 -3.80077080E-07  1.05466732E-01  5.45656022E-10  4.38641163E-09
  1.50927145E-08  1.99740377E-01  1.58192903E-09 -8.34606931E-09  4.06571894E-08
  1.05468002E-01  9.99377698E-11  4.83881897E-10  1.54680072E-09  1.56254973E-09
  1.99740511E-01 -3.55254124E-09  3.28358693E-09  3.19124910E-09  1.05468166E-01
 -8.02105601E-03  7.15844751E-03  3.10378331E-02 -3.26916342E-03 -8.47319032E-05
  7.47330417E-03  1.63886376E-02 -1.72619652E-03 -4.47403530E-05  2.78940954E-03
 -8.02075114E-03  7.15773393E-03 -1.42270262E-02  2.45355852E-02  1.28899098E-05
  7.47277638E-03 -7.51217645E-03  1.29554109E-02  6.80626238E-06 -1.16490870E-03
  2.34093443E-03 -8.02071345E-03  7.15765312E-03 -1.68110177E-02 -2.12664240E-02
  7.18416157E-05  7.47270844E-03 -8.87658697E-03 -1.12292158E-02  3.79337187E-05
 -9.81110205E-04 -5.32657799E-04  2.15713168E-03  1.13599423E-08 -3.35460187E-08
 -3.77488310E-03 -1.64285039E-02 -2.75813844E-05 -1.63448472E-08 -1.99322210E-03
 -8.67466872E-03 -1.45639263E-05 -1.67745387E-04 -9.23602083E-04  1.09134796E-03
  7.51157290E-04  5.64831452E-10 -1.54170695E-09 -9.78381798E-05 -2.75813458E-05
 -1.94122782E-02 -7.38904553E-10 -5.16609061E-05 -1.45638984E-05 -1.02501860E-02
 -3.44108771E-06  1.22920700E-06  2.21187312E-06  3.58961104E-06  9.96217133E-04
  4.40694097E-10 -1.13967964E-09 -2.75811798E-05  1.48850565E-05 -2.45563776E-02
 -5.39495107E-10 -1.45637566E-05  7.85939315E-06 -1.29664038E-02  3.10874953E-06
  1.16599379E-06 -4.27476556E-06  1.41928092E-06  1.26017825E-03  1.59411040E-03
 -5.18940152E-02  9.60709367E-02 -9.10899279E-02 -1.14903452E-01 -2.06976070E-01
  9.79740536E-02 -4.80975209E-02 -6.06719651E-02 -1.09288732E-01 -3.71350002E-03
 -1.31311047E-03  1.31893834E-02  5.91430457E-03  1.06534342E-02  1.34382292E-02
  2.06020579E-01 -9.83449555E-03  2.73262036E-02 -7.55964436E-02 -9.53616308E-02
 -1.71775544E-01  2.76623473E-02 -3.99165814E-02 -5.03533824E-02 -9.07019412E-02
 -4.58002014E-03 -2.58795304E-03  9.44808055E-03  4.90843649E-03  8.84159890E-03
  1.11527827E-02  1.51327876E-01  1.20040689E-01 -5.18940190E-02  9.60709465E-02
 -9.05453390E-02 -1.14867542E-01  2.07234806E-01  9.79740527E-02 -4.78099612E-02
 -6.06529990E-02  1.09425345E-01 -3.76190691E-03 -1.31714868E-03  1.32418280E-02
  5.87710883E-03 -1.06029808E-02 -1.34508235E-02 -2.07584190E-02 -3.68826998E-02
  2.06020585E-01 -9.83449542E-03  2.73262062E-02 -7.51444704E-02 -9.53318192E-02
  1.71990261E-01  2.76623409E-02 -3.96779255E-02 -5.03376370E-02  9.08153128E-02
 -4.62019445E-03 -2.59130415E-03  9.49160508E-03  4.87756622E-03 -8.79972589E-03
 -1.11632340E-02 -3.68826989E-02 -3.61608142E-02  1.51327868E-01  1.20040675E-01
 -5.18940779E-02  9.60710909E-02 -7.16566889E-02  2.43319942E-01  7.31128033E-05
  9.79740978E-02 -3.78362919E-02  1.28479107E-01  3.86066754E-05 -5.26121696E-03
  2.11978845E-02 -7.77390149E-03 -9.85226004E-03 -2.96033011E-06  1.00525294E-05
 -2.07584586E-02 -3.68825335E-02 -2.07584594E-02 -3.68825308E-02  2.06020617E-01
 -9.83454120E-03  2.73263193E-02 -5.94683215E-02  2.01937952E-01  6.06787299E-05
  2.76623716E-02 -3.14005355E-02  1.06628367E-01  3.20413718E-05 -5.86451931E-03
  1.60945514E-02 -7.94993152E-03 -8.17667448E-03 -2.45708189E-06  8.34288454E-06
 -3.68825418E-02 -3.61605171E-02 -3.68825403E-02 -3.61605120E-02  1.51327753E-01
  1.20040463E-01 -5.18949277E-02  9.60731743E-02  2.53289621E-01 -1.35489608E-02
 -3.31845141E-04  9.79748036E-02  1.33742302E-01 -7.15415618E-03 -1.75220624E-04
  2.36206931E-02 -7.68412343E-03 -7.77389575E-03 -1.93915999E-03 -4.74940849E-05
  2.54055863E-06 -2.07588997E-02 -3.68816764E-02 -2.07589002E-02 -3.68816773E-02
 -2.07589195E-02 -3.68817410E-02  2.06021043E-01 -9.83523871E-03  2.73280115E-02
  2.10208930E-01 -1.12445156E-02 -2.75404207E-04  2.76629203E-02  1.10994815E-01
 -5.93735641E-03 -1.45418307E-04  1.81049906E-02 -7.87524176E-03 -7.94972768E-03
 -1.60933325E-03 -3.94158236E-05  2.10865309E-06 -3.68818388E-02 -3.61589112E-02
 -3.68818407E-02 -3.61589120E-02 -3.68818949E-02 -3.61589952E-02  1.51326071E-01
  1.20037393E-01
Total MP2 Density                          R   N=         276
  2.05789788E+00 -8.85605857E-02  3.04275346E-01 -3.29231631E-07  1.09419476E-06
  4.02794439E-01 -4.54018098E-09  1.38978585E-08 -5.77654787E-08  4.02793899E-01
 -1.39053618E-09  4.00246849E-09 -4.36576623E-09 -4.24551048E-09  4.02793870E-01
 -1.61926097E-01  2.53537013E-01 -3.13756655E-08 -4.75575134E-09 -2.81631497E-09
  2.50677699E-01  3.65337107E-08  4.41358103E-07  1.94122130E-01  1.03151329E-08
  1.66213934E-09 -1.45374978E-07  1.08834781E-01  4.22317457E-10  3.14058806E-09
  1.02883828E-08  1.94123126E-01  1.86539712E-09 -5.33238042E-09  1.00931834E-08
  1.08835642E-01  1.13043560E-10 -8.43142288E-11  1.66995061E-09  1.84455846E-09
  1.94123281E-01 -2.76717110E-09  2.18974163E-09  2.55224897E-09  1.08835778E-01
 -6.76713544E-03  1.31663041E-03  2.82119203E-02 -2.97152026E-03 -7.70174602E-05
  5.17919495E-03  1.13152827E-02 -1.19183550E-03 -3.08905335E-05  5.07672231E-03
 -6.76685774E-03  1.31595419E-03 -1.29317268E-02  2.23017266E-02  1.17162993E-05
  5.17871243E-03 -5.18667637E-03  8.94494127E-03  4.69933593E-06 -1.60270834E-03
  4.86477049E-03 -6.76682364E-03  1.31587532E-03 -1.52804570E-02 -1.93302088E-02
  6.53007998E-05  5.17866173E-03 -6.12871741E-03 -7.75310688E-03  2.61910091E-05
 -1.51583465E-03 -1.30387425E-03  4.77789453E-03  1.04956965E-08 -2.97537314E-08
 -3.43119600E-03 -1.49327813E-02 -2.50702442E-05 -2.44336422E-08 -1.37619572E-03
 -5.98937713E-03 -1.00555732E-05 -7.92810539E-05 -4.36540434E-04  5.15824786E-04
  3.56201818E-03  5.06412994E-10 -1.42457578E-09 -8.89303597E-05 -2.50702073E-05
 -1.76448963E-02 -7.04060077E-10 -3.56686088E-05 -1.00555459E-05 -7.07718302E-03
 -1.62632985E-06  5.81004466E-07  1.04539854E-06  1.69660351E-06  3.67784493E-03
  3.87113982E-10 -1.08494050E-09 -2.50700549E-05  1.35298926E-05 -2.23206267E-02
 -2.88636248E-10 -1.00554095E-05  5.42644900E-06 -8.95253803E-03  1.46937769E-06
  5.51101428E-07 -2.02046846E-06  6.70789322E-07  5.95621666E-04  3.96041879E-03
 -5.07886968E-02  9.43886598E-02 -8.80878962E-02 -1.11116591E-01 -2.00154782E-01
  9.03161475E-02 -4.49639310E-02 -5.67190936E-02 -1.02168413E-01 -3.61595680E-03
 -1.51035147E-03  1.12112526E-02  5.18804464E-03  9.34522091E-03  1.17880315E-02
  2.06364582E-01 -1.12410681E-02  2.82930483E-02 -7.42809065E-02 -9.37019942E-02
 -1.68786010E-01  2.89099662E-02 -3.84613666E-02 -4.85176573E-02 -8.73952473E-02
 -3.95324595E-03 -2.21492034E-03  8.28777194E-03  4.28314245E-03  7.71523606E-03
  9.73195860E-03  1.53008518E-01  1.31596654E-01 -5.07887006E-02  9.43886686E-02
 -8.75612548E-02 -1.11081864E-01  2.00404990E-01  9.03161477E-02 -4.46951066E-02
 -5.67013634E-02  1.02296126E-01 -3.65841944E-03 -1.51389380E-03  1.12572571E-02
  5.15541648E-03 -9.30096318E-03 -1.17990793E-02 -1.91634007E-02 -3.52181170E-02
  2.06364587E-01 -1.12410683E-02  2.82930507E-02 -7.38367993E-02 -9.36727019E-02
  1.68996991E-01  2.89099620E-02 -3.82314118E-02 -4.85024861E-02  8.75044858E-02
 -3.98830228E-03 -2.21784461E-03  8.32575202E-03  4.25620507E-03 -7.67869750E-03
 -9.74107873E-03 -3.52181160E-02 -3.77898611E-02  1.53008511E-01  1.31596641E-01
 -5.07887589E-02  9.43888014E-02 -6.92951131E-02  2.35300860E-01  7.07033750E-05
  9.03162140E-02 -3.53712475E-02  1.20108510E-01  3.60913545E-05 -4.97361808E-03
  1.82363220E-02 -7.17776780E-03 -8.64243236E-03 -2.59681585E-06  8.81811277E-06
 -1.91634432E-02 -3.52179773E-02 -1.91634440E-02 -3.52179751E-02  2.06364613E-01
 -1.12411186E-02  2.82931595E-02 -5.84334604E-02  1.98423497E-01  5.96225482E-05
  2.89100243E-02 -3.02557983E-02  1.02741037E-01  3.08730875E-05 -5.07410643E-03
  1.40875139E-02 -6.89380669E-03 -7.13502449E-03 -2.14392287E-06  7.28011891E-06
 -3.52179804E-02 -3.77895903E-02 -3.52179795E-02 -3.77895861E-02  1.53008401E-01
  1.31596427E-01 -5.07895998E-02  9.43907229E-02  2.44941796E-01 -1.31024199E-02
 -3.20908188E-04  9.03172278E-02  1.25028880E-01 -6.68806536E-03 -1.63805104E-04
  2.03615992E-02 -7.09901263E-03 -7.17776358E-03 -1.70103293E-03 -4.16618326E-05
  2.22856374E-06 -1.91638729E-02 -3.52172534E-02 -1.91638733E-02 -3.52172542E-02
 -1.91638881E-02 -3.52173040E-02  2.06364950E-01 -1.12418787E-02  2.82947882E-02
  2.06550516E-01 -1.10488162E-02 -2.70611171E-04  2.89110291E-02  1.06948225E-01
 -5.72090431E-03 -1.40117103E-04  1.58418962E-02 -6.82867704E-03 -6.89367806E-03
 -1.40431808E-03 -3.43945571E-05  1.84000108E-06 -3.52173341E-02 -3.77880905E-02
 -3.52173361E-02 -3.77880917E-02 -3.52173816E-02 -3.77881637E-02  1.53006786E-01
  1.31593327E-01
QEq coupling tensors                       R   N=          30
  6.47025369E-07 -2.30359218E-07 -3.64449155E-07 -1.51005335E-08 -1.39397538E-08
 -2.82576138E-07  9.33240198E-02 -7.42876481E-02  5.85098654E-02 -1.33814577E-01
 -1.68795082E-01 -1.51833885E-01  9.40261193E-02 -7.38204545E-02  5.85684429E-02
  1.33180870E-01  1.68953306E-01 -1.52594562E-01  1.15771975E-01  1.23751255E-01
 -2.67989340E-01  3.71856892E-05 -1.26264124E-04  1.52217365E-01 -3.03136685E-01
  2.43579082E-02  1.50917229E-01  5.96579702E-04 -3.19117896E-05  1.52219456E-01
Mulliken Charges                           R   N=           5
 -6.58709994E-01  1.64676906E-01  1.64676920E-01  1.64677063E-01  1.64679105E-01
Optimization MaxStp                        I                2
Optimization Job offset                    I                0
Optimization Num results per geometry      I                2
Optimization Num geometry variables        I               15
Opt point       1 Results for each geome   R   N=           2
 -4.03325525E+01  0.00000000E+00
Opt point       1 Geometries               R   N=          15