
    -----------------------------------------------------------------------
          Psi4: An Open-Source Ab Initio Electronic Structure Package
                               Psi4 1.4a3.dev225 

                         Git: Rev {master} 7105e37 


    D. G. A. Smith, L. A. Burns, A. C. Simmonett, R. M. Parrish,
    M. C. Schieber, R. Galvelis, P. Kraus, H. Kruse, R. Di Remigio,
    A. Alenaizan, A. M. James, S. Lehtola, J. P. Misiewicz, M. Scheurer,
    R. A. Shaw, J. B. Schriber, Y. Xie, Z. L. Glick, D. A. Sirianni,
    J. S. O'Brien, J. M. Waldrop, A. Kumar, E. G. Hohenstein,
    B. P. Pritchard, B. R. Brooks, H. F. Schaefer III, A. Yu. Sokolov,
    K. Patkowski, A. E. DePrince III, U. Bozkaya, R. A. King,
    F. A. Evangelista, J. M. Turney, T. D. Crawford, C. D. Sherrill,
    J. Chem. Phys. 152(18) 184108 (2020). https://doi.org/10.1063/5.0006002

                            Additional Code Authors
    E. T. Seidl, C. L. Janssen, E. F. Valeev, M. L. Leininger,
    J. F. Gonthier, R. M. Richard, H. R. McAlexander, M. Saitow, X. Wang,
    P. Verma, and M. H. Lechner

             Previous Authors, Complete List of Code Contributors,
                       and Citations for Specific Modules
    https://github.com/psi4/psi4/blob/master/codemeta.json
    https://github.com/psi4/psi4/graphs/contributors
    http://psicode.org/psi4manual/master/introduction.html#citing-psifour

    -----------------------------------------------------------------------


    Psi4 started on: Sunday, 07 March 2021 02:59AM

    Process ID: 172284
    Host:       c418-103.stampede2.tacc.utexas.edu
    PSIDATADIR: /home1/07844/xy3866/miniconda3/envs/p4env/share/psi4
    Memory:     500.0 MiB
    Threads:    32
    
  ==> Input File <==

--------------------------------------------------------------------------
#psi4
#
memory 32 gb

molecule  {
0 1
  C       -0.5824800     1.6044310    -0.2213210
  C        0.7517090     0.8972820    -0.1584330
  C       -1.8159033     0.5854237    -0.0249847
  C        1.7237550     1.2518080     0.7820810
  C        1.0412590    -0.1412430    -1.0548500
  C        3.2457950    -0.4451680    -0.0684180
  C        2.9517370     0.5872480     0.8282550
  C        2.2676820    -0.7996710    -1.0091590
  C       -1.8261890    -0.1288690     1.1267200
  C       -2.7336970     0.5134260    -1.0120210
  C        4.5537390    -1.1898250     0.0022800
  C       -2.8866350    -1.0143110     1.3128170
  C       -3.7965280    -0.3760470    -0.8307700
  C       -3.8763200    -1.1410390     0.3331560
  H       -0.6887990     2.1194610    -1.1851540
  H       -0.6152960     2.3835930     0.5515720
  H        1.5214970     2.0586850     1.4854080
  H        0.2921320    -0.4400260    -1.7869590
  H        3.6942270     0.8828880     1.5683180
  H        2.4736480    -1.5998700    -1.7190670
  H       -1.0482340    -0.0434160     1.8839740
  H       -2.6776530     1.1110490    -1.9207770
  H        4.8944640    -1.4825890    -0.9952280
  H        5.3329890    -0.5734720     0.4595320
  H        4.4581780    -2.1030590     0.5999660
  H       -2.9412840    -1.6093450     2.2217140
  H       -4.5604750    -0.4701320    -1.5992930
  H       -4.7020430    -1.8337400     0.4769600
units angstrom
no_reorient  #important for SAPT in psi4, default
symmetry c1  #important for SAPT in psi4, default
}

set PROPERTIES_ORIGIN ["COM"]
properties('MP2/aug-cc-pvtz', properties = ['dipole'])
--------------------------------------------------------------------------

  Memory set to  29.802 GiB by Python driver.
    SCF Algorithm Type (re)set to DF.

*** tstart() called on c418-103.stampede2.tacc.utexas.edu
*** at Sun Mar  7 02:59:14 2021

   => Loading Basis Set <=

    Name: AUG-CC-PVTZ
    Role: ORBITAL
    Keyword: BASIS
    atoms 1-14  entry C          line   239 file /home1/07844/xy3866/miniconda3/envs/p4env/share/psi4/basis/aug-cc-pvtz.gbs 
    atoms 15-28 entry H          line    40 file /home1/07844/xy3866/miniconda3/envs/p4env/share/psi4/basis/aug-cc-pvtz.gbs 


         ---------------------------------------------------------
                                   SCF
               by Justin Turney, Rob Parrish, Andy Simmonett
                          and Daniel G. A. Smith
                              RHF Reference
                       32 Threads,  30517 MiB Core
         ---------------------------------------------------------

  ==> Geometry <==

    Molecular point group: c1
    Full point group: C1

    Geometry (in Angstrom), charge = 0, multiplicity = 1:

       Center              X                  Y                   Z               Mass       
    ------------   -----------------  -----------------  -----------------  -----------------
         C           -0.547835751867     1.599879588184    -0.221900399378    12.000000000000
         C            0.786353248133     0.892730588184    -0.159012399378    12.000000000000
         C           -1.781259051867     0.580872288184    -0.025564099378    12.000000000000
         C            1.758399248133     1.247256588184     0.781501600622    12.000000000000
         C            1.075903248133    -0.145794411816    -1.055429399378    12.000000000000
         C            3.280439248133    -0.449719411816    -0.068997399378    12.000000000000
         C            2.986381248133     0.582696588184     0.827675600622    12.000000000000
         C            2.302326248133    -0.804222411816    -1.009738399378    12.000000000000
         C           -1.791544751867    -0.133420411816     1.126140600622    12.000000000000
         C           -2.699052751867     0.508874588184    -1.012600399378    12.000000000000
         C            4.588383248133    -1.194376411816     0.001700600622    12.000000000000
         C           -2.851990751867    -1.018862411816     1.312237600622    12.000000000000
         C           -3.761883751867    -0.380598411816    -0.831349399378    12.000000000000
         C           -3.841675751867    -1.145590411816     0.332576600622    12.000000000000
         H           -0.654154751867     2.114909588184    -1.185733399378     1.007825032230
         H           -0.580651751867     2.379041588184     0.550992600622     1.007825032230
         H            1.556141248133     2.054133588184     1.484828600622     1.007825032230
         H            0.326776248133    -0.444577411816    -1.787538399378     1.007825032230
         H            3.728871248133     0.878336588184     1.567738600622     1.007825032230
         H            2.508292248133    -1.604421411816    -1.719646399378     1.007825032230
         H           -1.013589751867    -0.047967411816     1.883394600622     1.007825032230
         H           -2.643008751867     1.106497588184    -1.921356399378     1.007825032230
         H            4.929108248133    -1.487140411816    -0.995807399378     1.007825032230
         H            5.367633248133    -0.578023411816     0.458952600622     1.007825032230
         H            4.492822248133    -2.107610411816     0.599386600622     1.007825032230
         H           -2.906639751867    -1.613896411816     2.221134600622     1.007825032230
         H           -4.525830751867    -0.474683411816    -1.599872399378     1.007825032230
         H           -4.667398751867    -1.838291411816     0.476380600622     1.007825032230

  Running in c1 symmetry.

  Rotational constants: A =      0.05822  B =      0.01117  C =      0.01095 [cm^-1]
  Rotational constants: A =   1745.26134  B =    334.92703  C =    328.12611 [MHz]
  Nuclear repulsion =  786.221542058740283

  Charge       = 0
  Multiplicity = 1
  Electrons    = 98
  Nalpha       = 49
  Nbeta        = 49

  ==> Algorithm <==

  SCF Algorithm Type is DF.
  DIIS enabled.
  MOM disabled.
  Fractional occupation disabled.
  Guess Type is SAD.
  Energy threshold   = 1.00e-10
  Density threshold  = 1.00e-10
  Integral threshold = 1.00e-12

  ==> Primary Basis <==

  Basis Set: AUG-CC-PVTZ
    Blend: AUG-CC-PVTZ
    Number of shells: 322
    Number of basis functions: 966
    Number of Cartesian functions: 1120
    Spherical Harmonics?: true
    Max angular momentum: 3

   => Loading Basis Set <=

    Name: (AUG-CC-PVTZ AUX)
    Role: JKFIT
    Keyword: DF_BASIS_SCF
    atoms 1-14  entry C          line   162 file /home1/07844/xy3866/miniconda3/envs/p4env/share/psi4/basis/aug-cc-pvtz-jkfit.gbs 
    atoms 15-28 entry H          line    70 file /home1/07844/xy3866/miniconda3/envs/p4env/share/psi4/basis/aug-cc-pvtz-jkfit.gbs 

  ==> Integral Setup <==

  DFHelper Memory: AOs need 12.263 GiB; user supplied 22.352 GiB. Using in-core AOs.

  ==> MemDFJK: Density-Fitted J/K Matrices <==

    J tasked:                   Yes
    K tasked:                   Yes
    wK tasked:                   No
    OpenMP threads:              32
    Memory [MiB]:             22888
    Algorithm:                 Core
    Schwarz Cutoff:           1E-12
    Mask sparsity (%):      19.0429
    Fitting Condition:        1E-10

   => Auxiliary Basis Set <=

  Basis Set: (AUG-CC-PVTZ AUX)
    Blend: AUG-CC-PVTZ-JKFIT
    Number of shells: 616
    Number of basis functions: 2100
    Number of Cartesian functions: 2604
    Spherical Harmonics?: true
    Max angular momentum: 4

  Minimum eigenvalue in the overlap matrix is 4.0858915427E-07.
  Reciprocal condition number of the overlap matrix is 1.8493933205E-08.
    Using symmetric orthogonalization.

  ==> Pre-Iterations <==

  SCF Guess: Superposition of Atomic Densities via on-the-fly atomic UHF (no occupation information).

   -------------------------
    Irrep   Nso     Nmo    
   -------------------------
     A        966     966 
   -------------------------
    Total     966     966
   -------------------------

  ==> Iterations <==

                           Total Energy        Delta E     RMS |[F,P]|

   @DF-RHF iter SAD:  -538.00416053897015   -5.38004e+02   0.00000e+00 
   @DF-RHF iter   1:  -538.05941489482802   -5.52544e-02   8.46912e-04 DIIS
   @DF-RHF iter   2:  -538.40652645377793   -3.47112e-01   3.88979e-04 DIIS
   @DF-RHF iter   3:  -538.47971849442661   -7.31920e-02   8.24115e-05 DIIS
   @DF-RHF iter   4:  -538.48429301604028   -4.57452e-03   2.86078e-05 DIIS
   @DF-RHF iter   5:  -538.48474837532183   -4.55359e-04   7.32203e-06 DIIS
   @DF-RHF iter   6:  -538.48477966210021   -3.12868e-05   2.41504e-06 DIIS
   @DF-RHF iter   7:  -538.48478377539243   -4.11329e-06   5.82814e-07 DIIS
   @DF-RHF iter   8:  -538.48478421903383   -4.43641e-07   2.90289e-07 DIIS
   @DF-RHF iter   9:  -538.48478434852495   -1.29491e-07   1.44455e-07 DIIS
   @DF-RHF iter  10:  -538.48478440547149   -5.69465e-08   5.65239e-08 DIIS
   @DF-RHF iter  11:  -538.48478441578493   -1.03134e-08   1.75537e-08 DIIS
   @DF-RHF iter  12:  -538.48478441630891   -5.23983e-10   6.82781e-09 DIIS
   @DF-RHF iter  13:  -538.48478441636553   -5.66160e-11   2.08629e-09 DIIS
   @DF-RHF iter  14:  -538.48478441636928   -3.75167e-12   9.62982e-10 DIIS
   @DF-RHF iter  15:  -538.48478441636939   -1.13687e-13   3.67090e-10 DIIS
   @DF-RHF iter  16:  -538.48478441637076   -1.36424e-12   1.57771e-10 DIIS
   @DF-RHF iter  17:  -538.48478441637087   -1.13687e-13   8.31891e-11 DIIS
  Energy and wave function converged.


  ==> Post-Iterations <==

    Orbital Energies [Eh]
    ---------------------

    Doubly Occupied:                                                      

       1A    -11.237335     2A    -11.236531     3A    -11.235686  
       4A    -11.235425     5A    -11.235246     6A    -11.235107  
       7A    -11.230660     8A    -11.229937     9A    -11.228833  
      10A    -11.228187    11A    -11.227554    12A    -11.226737  
      13A    -11.225137    14A    -11.222336    15A     -1.164364  
      16A     -1.148942    17A     -1.066948    18A     -1.022179  
      19A     -1.016701    20A     -1.007098    21A     -0.957558  
      22A     -0.890074    23A     -0.831571    24A     -0.824531  
      25A     -0.802939    26A     -0.774439    27A     -0.696340  
      28A     -0.665020    29A     -0.645546    30A     -0.633210  
      31A     -0.627102    32A     -0.620376    33A     -0.591395  
      34A     -0.577695    35A     -0.573809    36A     -0.562887  
      37A     -0.556293    38A     -0.547138    39A     -0.526476  
      40A     -0.505035    41A     -0.500736    42A     -0.488825  
      43A     -0.477773    44A     -0.475150    45A     -0.453285  
      46A     -0.339062    47A     -0.336773    48A     -0.330634  
      49A     -0.308132  

    Virtual:                                                              

      50A      0.027812    51A      0.029254    52A      0.033149  
      53A      0.033483    54A      0.040855    55A      0.045253  
      56A      0.045822    57A      0.050365    58A      0.053789  
      59A      0.062874    60A      0.064274    61A      0.066260  
      62A      0.067503    63A      0.083012    64A      0.091072  
      65A      0.095061    66A      0.099251    67A      0.101685  
      68A      0.104752    69A      0.105519    70A      0.109143  
      71A      0.112864    72A      0.114587    73A      0.118990  
      74A      0.120093    75A      0.122691    76A      0.123920  
      77A      0.127086    78A      0.129513    79A      0.130626  
      80A      0.133424    81A      0.134901    82A      0.137532  
      83A      0.140231    84A      0.144930    85A      0.146932  
      86A      0.151531    87A      0.152384    88A      0.157446  
      89A      0.158777    90A      0.159237    91A      0.160568  
      92A      0.163340    93A      0.164070    94A      0.168360  
      95A      0.172370    96A      0.175375    97A      0.182020  
      98A      0.187033    99A      0.195711   100A      0.198328  
     101A      0.199778   102A      0.207093   103A      0.212555  
     104A      0.217805   105A      0.220602   106A      0.225317  
     107A      0.228505   108A      0.233487   109A      0.236672  
     110A      0.240967   111A      0.249042   112A      0.253966  
     113A      0.256283   114A      0.258514   115A      0.261206  
     116A      0.262208   117A      0.263922   118A      0.268932  
     119A      0.271443   120A      0.276268   121A      0.279668  
     122A      0.284402   123A      0.286164   124A      0.292852  
     125A      0.295413   126A      0.300733   127A      0.305141  
     128A      0.308074   129A      0.313672   130A      0.314514  
     131A      0.316718   132A      0.319372   133A      0.323873  
     134A      0.327887   135A      0.328624   136A      0.334298  
     137A      0.338452   138A      0.341847   139A      0.343543  
     140A      0.345177   141A      0.351310   142A      0.355467  
     143A      0.359643   144A      0.363455   145A      0.364971  
     146A      0.365902   147A      0.369242   148A      0.378831  
     149A      0.381571   150A      0.382874   151A      0.387142  
     152A      0.391404   153A      0.397398   154A      0.398509  
     155A      0.403550   156A      0.409625   157A      0.415699  
     158A      0.420788   159A      0.421536   160A      0.425555  
     161A      0.430067   162A      0.433772   163A      0.435516  
     164A      0.439305   165A      0.441960   166A      0.443918  
     167A      0.446884   168A      0.452434   169A      0.454805  
     170A      0.459055   171A      0.461941   172A      0.463218  
     173A      0.466152   174A      0.471518   175A      0.475070  
     176A      0.478629   177A      0.479678   178A      0.482770  
     179A      0.483987   180A      0.485788   181A      0.489038  
     182A      0.493979   183A      0.496988   184A      0.498837  
     185A      0.500339   186A      0.503741   187A      0.509025  
     188A      0.510866   189A      0.516951   190A      0.518498  
     191A      0.519136   192A      0.521678   193A      0.523956  
     194A      0.526688   195A      0.529326   196A      0.531971  
     197A      0.535576   198A      0.537316   199A      0.540464  
     200A      0.542244   201A      0.547024   202A      0.548547  
     203A      0.551256   204A      0.553167   205A      0.554997  
     206A      0.557955   207A      0.562113   208A      0.565112  
     209A      0.569199   210A      0.570203   211A      0.572999  
     212A      0.577684   213A      0.584014   214A      0.589036  
     215A      0.590958   216A      0.596071   217A      0.602452  
     218A      0.606679   219A      0.607321   220A      0.614349  
     221A      0.616865   222A      0.628084   223A      0.630248  
     224A      0.639488   225A      0.640635   226A      0.645246  
     227A      0.652983   228A      0.656627   229A      0.657217  
     230A      0.664479   231A      0.666877   232A      0.676258  
     233A      0.680284   234A      0.686968   235A      0.693789  
     236A      0.697133   237A      0.698466   238A      0.705696  
     239A      0.708088   240A      0.714231   241A      0.716453  
     242A      0.721753   243A      0.724144   244A      0.729918  
     245A      0.734431   246A      0.746777   247A      0.748903  
     248A      0.753096   249A      0.758931   250A      0.760899  
     251A      0.763740   252A      0.769587   253A      0.771888  
     254A      0.778242   255A      0.785585   256A      0.790227  
     257A      0.793666   258A      0.797915   259A      0.805761  
     260A      0.809376   261A      0.814308   262A      0.822675  
     263A      0.827777   264A      0.834039   265A      0.840607  
     266A      0.845798   267A      0.849762   268A      0.854617  
     269A      0.860221   270A      0.862595   271A      0.863882  
     272A      0.871076   273A      0.874062   274A      0.878295  
     275A      0.879739   276A      0.880896   277A      0.886658  
     278A      0.894010   279A      0.895980   280A      0.899033  
     281A      0.903693   282A      0.906885   283A      0.911485  
     284A      0.912533   285A      0.919950   286A      0.922119  
     287A      0.924877   288A      0.930615   289A      0.934758  
     290A      0.935698   291A      0.940450   292A      0.944307  
     293A      0.949480   294A      0.951068   295A      0.954549  
     296A      0.962846   297A      0.964223   298A      0.966258  
     299A      0.968587   300A      0.974384   301A      0.978480  
     302A      0.983007   303A      0.989407   304A      0.990165  
     305A      0.997863   306A      1.001046   307A      1.003988  
     308A      1.007817   309A      1.010097   310A      1.015168  
     311A      1.017076   312A      1.022758   313A      1.025649  
     314A      1.032016   315A      1.033280   316A      1.037823  
     317A      1.042992   318A      1.046671   319A      1.051590  
     320A      1.061000   321A      1.064906   322A      1.069121  
     323A      1.073210   324A      1.078301   325A      1.083528  
     326A      1.084564   327A      1.087798   328A      1.088077  
     329A      1.091158   330A      1.093931   331A      1.097641  
     332A      1.105521   333A      1.107766   334A      1.111926  
     335A      1.114302   336A      1.117869   337A      1.125631  
     338A      1.127592   339A      1.134953   340A      1.137142  
     341A      1.142494   342A      1.145622   343A      1.149073  
     344A      1.154912   345A      1.159187   346A      1.164631  
     347A      1.168195   348A      1.170356   349A      1.173149  
     350A      1.175802   351A      1.180751   352A      1.182755  
     353A      1.188027   354A      1.192369   355A      1.195509  
     356A      1.197989   357A      1.201778   358A      1.203656  
     359A      1.210917   360A      1.213920   361A      1.218422  
     362A      1.222413   363A      1.226744   364A      1.232402  
     365A      1.235887   366A      1.239068   367A      1.241292  
     368A      1.251639   369A      1.252097   370A      1.255054  
     371A      1.257144   372A      1.263819   373A      1.268003  
     374A      1.271028   375A      1.274349   376A      1.279708  
     377A      1.285035   378A      1.291582   379A      1.296227  
     380A      1.297259   381A      1.301378   382A      1.306199  
     383A      1.315736   384A      1.319207   385A      1.322747  
     386A      1.328003   387A      1.334955   388A      1.340666  
     389A      1.342931   390A      1.346288   391A      1.356126  
     392A      1.361018   393A      1.363077   394A      1.370914  
     395A      1.375515   396A      1.381104   397A      1.389809  
     398A      1.394882   399A      1.400199   400A      1.403185  
     401A      1.416151   402A      1.421185   403A      1.421926  
     404A      1.425152   405A      1.431192   406A      1.439242  
     407A      1.442850   408A      1.447970   409A      1.450319  
     410A      1.454424   411A      1.461398   412A      1.465807  
     413A      1.476379   414A      1.479516   415A      1.485733  
     416A      1.493761   417A      1.498981   418A      1.506702  
     419A      1.507863   420A      1.510725   421A      1.521014  
     422A      1.526950   423A      1.535466   424A      1.540952  
     425A      1.550345   426A      1.555365   427A      1.565483  
     428A      1.567188   429A      1.574267   430A      1.577687  
     431A      1.581911   432A      1.585570   433A      1.599513  
     434A      1.607913   435A      1.610403   436A      1.619562  
     437A      1.626889   438A      1.633944   439A      1.642300  
     440A      1.647345   441A      1.654669   442A      1.664251  
     443A      1.666409   444A      1.672769   445A      1.679866  
     446A      1.688685   447A      1.698745   448A      1.704695  
     449A      1.707661   450A      1.717413   451A      1.720884  
     452A      1.724991   453A      1.731368   454A      1.734080  
     455A      1.736547   456A      1.743420   457A      1.744956  
     458A      1.753829   459A      1.764457   460A      1.770714  
     461A      1.773402   462A      1.779870   463A      1.782667  
     464A      1.785905   465A      1.798613   466A      1.801540  
     467A      1.805472   468A      1.808742   469A      1.811783  
     470A      1.824772   471A      1.831166   472A      1.838561  
     473A      1.841561   474A      1.847771   475A      1.852351  
     476A      1.865824   477A      1.868593   478A      1.869884  
     479A      1.876922   480A      1.881433   481A      1.886856  
     482A      1.895950   483A      1.900257   484A      1.912002  
     485A      1.915071   486A      1.921538   487A      1.928668  
     488A      1.941293   489A      1.944063   490A      1.948874  
     491A      1.957885   492A      1.960040   493A      1.962519  
     494A      1.980227   495A      1.982695   496A      1.991301  
     497A      1.995851   498A      2.000741   499A      2.007396  
     500A      2.013453   501A      2.024559   502A      2.029677  
     503A      2.032842   504A      2.040872   505A      2.044464  
     506A      2.056296   507A      2.058814   508A      2.060860  
     509A      2.066030   510A      2.073598   511A      2.074071  
     512A      2.083007   513A      2.086718   514A      2.096912  
     515A      2.107387   516A      2.113301   517A      2.115382  
     518A      2.118505   519A      2.125008   520A      2.129230  
     521A      2.137799   522A      2.144418   523A      2.150107  
     524A      2.153115   525A      2.157918   526A      2.164638  
     527A      2.169858   528A      2.176023   529A      2.179051  
     530A      2.187554   531A      2.193316   532A      2.199538  
     533A      2.202348   534A      2.208074   535A      2.210407  
     536A      2.221141   537A      2.228335   538A      2.232332  
     539A      2.241087   540A      2.248697   541A      2.254615  
     542A      2.262589   543A      2.267990   544A      2.271831  
     545A      2.279940   546A      2.295312   547A      2.301884  
     548A      2.308562   549A      2.316488   550A      2.339043  
     551A      2.346092   552A      2.359341   553A      2.362048  
     554A      2.368664   555A      2.375588   556A      2.381028  
     557A      2.386042   558A      2.394987   559A      2.401364  
     560A      2.408581   561A      2.419335   562A      2.420431  
     563A      2.423429   564A      2.442269   565A      2.444791  
     566A      2.447558   567A      2.455256   568A      2.474155  
     569A      2.480882   570A      2.489726   571A      2.495086  
     572A      2.504274   573A      2.516237   574A      2.523254  
     575A      2.537390   576A      2.548745   577A      2.564528  
     578A      2.573373   579A      2.588561   580A      2.595254  
     581A      2.626577   582A      2.634949   583A      2.642879  
     584A      2.656236   585A      2.659480   586A      2.667041  
     587A      2.672499   588A      2.695260   589A      2.700788  
     590A      2.724000   591A      2.741610   592A      2.747827  
     593A      2.777945   594A      2.797665   595A      2.807724  
     596A      2.817418   597A      2.820078   598A      2.840024  
     599A      2.853042   600A      2.860678   601A      2.887963  
     602A      2.897246   603A      2.905901   604A      2.941763  
     605A      2.988230   606A      3.009413   607A      3.052372  
     608A      3.064056   609A      3.076272   610A      3.102002  
     611A      3.126089   612A      3.145376   613A      3.170549  
     614A      3.202948   615A      3.215374   616A      3.217986  
     617A      3.241413   618A      3.249764   619A      3.272064  
     620A      3.279675   621A      3.282763   622A      3.285987  
     623A      3.309816   624A      3.318211   625A      3.329475  
     626A      3.340037   627A      3.357441   628A      3.369269  
     629A      3.371935   630A      3.378813   631A      3.393366  
     632A      3.402711   633A      3.409981   634A      3.415869  
     635A      3.424018   636A      3.437287   637A      3.445422  
     638A      3.455343   639A      3.463388   640A      3.466699  
     641A      3.473473   642A      3.476801   643A      3.489801  
     644A      3.499747   645A      3.509377   646A      3.516514  
     647A      3.528343   648A      3.535388   649A      3.542723  
     650A      3.552179   651A      3.556328   652A      3.564901  
     653A      3.569256   654A      3.576451   655A      3.578621  
     656A      3.585148   657A      3.586258   658A      3.592016  
     659A      3.596727   660A      3.608650   661A      3.615950  
     662A      3.625936   663A      3.632986   664A      3.638573  
     665A      3.642705   666A      3.647981   667A      3.655957  
     668A      3.667265   669A      3.675277   670A      3.677499  
     671A      3.686447   672A      3.695268   673A      3.698776  
     674A      3.707550   675A      3.712076   676A      3.722606  
     677A      3.728582   678A      3.732075   679A      3.741870  
     680A      3.742292   681A      3.746495   682A      3.768263  
     683A      3.782204   684A      3.785638   685A      3.787014  
     686A      3.798166   687A      3.806543   688A      3.813212  
     689A      3.817637   690A      3.825374   691A      3.840370  
     692A      3.850190   693A      3.857508   694A      3.864432  
     695A      3.871594   696A      3.876673   697A      3.886673  
     698A      3.895405   699A      3.897613   700A      3.901302  
     701A      3.902810   702A      3.916526   703A      3.927897  
     704A      3.932797   705A      3.937785   706A      3.943145  
     707A      3.946974   708A      3.955129   709A      3.964680  
     710A      3.968934   711A      3.981347   712A      3.982537  
     713A      3.989892   714A      3.991514   715A      3.995133  
     716A      4.005938   717A      4.012635   718A      4.021608  
     719A      4.027873   720A      4.031750   721A      4.037579  
     722A      4.040277   723A      4.049813   724A      4.055254  
     725A      4.061461   726A      4.064606   727A      4.067072  
     728A      4.076092   729A      4.088107   730A      4.092638  
     731A      4.104039   732A      4.107746   733A      4.120030  
     734A      4.126155   735A      4.133469   736A      4.137625  
     737A      4.143622   738A      4.156708   739A      4.163941  
     740A      4.173329   741A      4.179254   742A      4.186916  
     743A      4.196687   744A      4.204870   745A      4.211954  
     746A      4.222431   747A      4.226234   748A      4.227661  
     749A      4.237126   750A      4.241425   751A      4.255458  
     752A      4.263865   753A      4.271185   754A      4.283545  
     755A      4.290625   756A      4.301709   757A      4.305186  
     758A      4.313097   759A      4.319946   760A      4.321612  
     761A      4.326854   762A      4.329697   763A      4.339833  
     764A      4.351650   765A      4.358328   766A      4.360511  
     767A      4.374167   768A      4.377468   769A      4.395282  
     770A      4.404827   771A      4.408214   772A      4.411052  
     773A      4.422905   774A      4.429348   775A      4.432586  
     776A      4.442358   777A      4.449825   778A      4.456277  
     779A      4.460459   780A      4.471275   781A      4.477812  
     782A      4.479817   783A      4.487607   784A      4.488576  
     785A      4.493236   786A      4.496425   787A      4.505206  
     788A      4.509916   789A      4.515279   790A      4.524489  
     791A      4.533063   792A      4.536577   793A      4.547418  
     794A      4.554654   795A      4.575367   796A      4.580477  
     797A      4.584541   798A      4.597281   799A      4.602992  
     800A      4.620869   801A      4.646049   802A      4.650271  
     803A      4.661468   804A      4.686273   805A      4.688308  
     806A      4.695676   807A      4.715342   808A      4.721761  
     809A      4.732925   810A      4.738947   811A      4.741958  
     812A      4.750042   813A      4.758726   814A      4.769696  
     815A      4.775838   816A      4.784036   817A      4.793943  
     818A      4.803037   819A      4.807792   820A      4.826862  
     821A      4.828430   822A      4.838111   823A      4.851006  
     824A      4.866543   825A      4.884482   826A      4.890223  
     827A      4.906713   828A      4.920060   829A      4.932804  
     830A      4.934743   831A      4.946285   832A      4.951228  
     833A      4.970664   834A      4.973361   835A      4.975287  
     836A      4.992311   837A      5.015114   838A      5.020700  
     839A      5.032201   840A      5.035526   841A      5.045443  
     842A      5.066414   843A      5.070366   844A      5.085423  
     845A      5.096842   846A      5.104136   847A      5.107611  
     848A      5.116658   849A      5.129129   850A      5.135813  
     851A      5.144307   852A      5.147081   853A      5.157726  
     854A      5.159261   855A      5.165730   856A      5.174984  
     857A      5.180255   858A      5.187052   859A      5.189555  
     860A      5.192349   861A      5.195359   862A      5.203132  
     863A      5.211723   864A      5.227484   865A      5.236225  
     866A      5.252274   867A      5.277608   868A      5.285414  
     869A      5.295862   870A      5.305742   871A      5.319161  
     872A      5.333585   873A      5.340913   874A      5.352435  
     875A      5.362414   876A      5.370423   877A      5.379980  
     878A      5.396576   879A      5.404826   880A      5.431659  
     881A      5.437846   882A      5.447987   883A      5.450796  
     884A      5.458678   885A      5.462745   886A      5.470477  
     887A      5.491896   888A      5.502623   889A      5.519340  
     890A      5.534675   891A      5.545101   892A      5.547613  
     893A      5.566364   894A      5.595822   895A      5.609059  
     896A      5.642465   897A      5.657074   898A      5.680546  
     899A      5.696534   900A      5.711037   901A      5.727351  
     902A      5.744220   903A      5.760653   904A      5.770393  
     905A      5.777667   906A      5.804614   907A      5.817797  
     908A      5.836990   909A      5.839698   910A      5.851260  
     911A      5.880952   912A      5.956720   913A      5.984904  
     914A      6.050046   915A      6.065705   916A      6.080898  
     917A      6.106718   918A      6.118903   919A      6.123824  
     920A      6.162449   921A      6.178879   922A      6.206889  
     923A      6.217858   924A      6.242007   925A      6.253593  
     926A      6.271165   927A      6.304645   928A      6.316797  
     929A      6.385440   930A      6.399136   931A      6.438520  
     932A      6.445225   933A      6.482688   934A      6.510358  
     935A      6.545708   936A      6.558069   937A      6.585393  
     938A      6.619147   939A      6.683395   940A      6.717941  
     941A      6.786438   942A      6.824510   943A      6.853041  
     944A      6.919924   945A      6.955263   946A      6.980366  
     947A      7.010251   948A      7.087651   949A      7.097405  
     950A      7.179744   951A      7.268568   952A      7.404060  
     953A     16.164666   954A     16.424831   955A     16.585439  
     956A     16.725411   957A     18.239627   958A     18.728760  
     959A     19.112240   960A     19.590070   961A     19.951082  
     962A     20.205205   963A     20.298654   964A     20.579671  
     965A     20.701397   966A     21.345679  

    Final Occupation by Irrep:
              A 
    DOCC [    49 ]

  @DF-RHF Final Energy:  -538.48478441637087

   => Energetics <=

    Nuclear Repulsion Energy =            786.2215420587402832
    One-Electron Energy =               -2287.8511581947859668
    Two-Electron Energy =                 963.1448317196746984
    Total Energy =                       -538.4847844163708714

Computation Completed

*** tstop() called on c418-103.stampede2.tacc.utexas.edu at Sun Mar  7 03:00:41 2021
Module time:
	user time   =    1827.85 seconds =      30.46 minutes
	system time =      99.63 seconds =       1.66 minutes
	total time  =         87 seconds =       1.45 minutes
Total time:
	user time   =    1827.85 seconds =      30.46 minutes
	system time =      99.63 seconds =       1.66 minutes
	total time  =         87 seconds =       1.45 minutes
   => Loading Basis Set <=

    Name: (AUG-CC-PVTZ AUX)
    Role: RIFIT
    Keyword: DF_BASIS_MP2
    atoms 1-14  entry C          line   148 file /home1/07844/xy3866/miniconda3/envs/p4env/share/psi4/basis/aug-cc-pvtz-ri.gbs 
    atoms 15-28 entry H          line    30 file /home1/07844/xy3866/miniconda3/envs/p4env/share/psi4/basis/aug-cc-pvtz-ri.gbs 


*** tstart() called on c418-103.stampede2.tacc.utexas.edu
*** at Sun Mar  7 03:00:42 2021


  //>>>>>>>>>>>>>>>>>>>>>>>>>>>>>>>>>>>//
  //               DFMP2               //
  //<<<<<<<<<<<<<<<<<<<<<<<<<<<<<<<<<<<//

	 --------------------------------------------------------
	                          DF-MP2                         
	      2nd-Order Density-Fitted Moller-Plesset Theory     
	              RMP2 Wavefunction,  32 Threads             
	                                                         
	        Rob Parrish, Justin Turney, Andy Simmonett,      
	           Ed Hohenstein, and C. David Sherrill          
	 --------------------------------------------------------

   => Auxiliary Basis Set <=

  Basis Set: (AUG-CC-PVTZ AUX)
    Blend: AUG-CC-PVTZ-RI
    Number of shells: 588
    Number of basis functions: 2128
    Number of Cartesian functions: 2674
    Spherical Harmonics?: true
    Max angular momentum: 4

	 --------------------------------------------------------
	                 NBF =   966, NAUX =  2128
	 --------------------------------------------------------
	   CLASS    FOCC     OCC    AOCC    AVIR     VIR    FVIR
	   PAIRS       0      49      49     917     917       0
	 --------------------------------------------------------

  DFHelper Memory: AOs need 13.179 GiB; user supplied 22.352 GiB. Using in-core AOs.


         ------------------------------------------------------------
                                     CPHF                           
                                  Rob Parrish                       
         ------------------------------------------------------------

  ==> Geometry <==

    Molecular point group: c1
    Full point group: C1

    Geometry (in Angstrom), charge = 0, multiplicity = 1:

       Center              X                  Y                   Z               Mass       
    ------------   -----------------  -----------------  -----------------  -----------------
         C           -0.547835751867     1.599879588184    -0.221900399378    12.000000000000
         C            0.786353248133     0.892730588184    -0.159012399378    12.000000000000
         C           -1.781259051867     0.580872288184    -0.025564099378    12.000000000000
         C            1.758399248133     1.247256588184     0.781501600622    12.000000000000
         C            1.075903248133    -0.145794411816    -1.055429399378    12.000000000000
         C            3.280439248133    -0.449719411816    -0.068997399378    12.000000000000
         C            2.986381248133     0.582696588184     0.827675600622    12.000000000000
         C            2.302326248133    -0.804222411816    -1.009738399378    12.000000000000
         C           -1.791544751867    -0.133420411816     1.126140600622    12.000000000000
         C           -2.699052751867     0.508874588184    -1.012600399378    12.000000000000
         C            4.588383248133    -1.194376411816     0.001700600622    12.000000000000
         C           -2.851990751867    -1.018862411816     1.312237600622    12.000000000000
         C           -3.761883751867    -0.380598411816    -0.831349399378    12.000000000000
         C           -3.841675751867    -1.145590411816     0.332576600622    12.000000000000
         H           -0.654154751867     2.114909588184    -1.185733399378     1.007825032230
         H           -0.580651751867     2.379041588184     0.550992600622     1.007825032230
         H            1.556141248133     2.054133588184     1.484828600622     1.007825032230
         H            0.326776248133    -0.444577411816    -1.787538399378     1.007825032230
         H            3.728871248133     0.878336588184     1.567738600622     1.007825032230
         H            2.508292248133    -1.604421411816    -1.719646399378     1.007825032230
         H           -1.013589751867    -0.047967411816     1.883394600622     1.007825032230
         H           -2.643008751867     1.106497588184    -1.921356399378     1.007825032230
         H            4.929108248133    -1.487140411816    -0.995807399378     1.007825032230
         H            5.367633248133    -0.578023411816     0.458952600622     1.007825032230
         H            4.492822248133    -2.107610411816     0.599386600622     1.007825032230
         H           -2.906639751867    -1.613896411816     2.221134600622     1.007825032230
         H           -4.525830751867    -0.474683411816    -1.599872399378     1.007825032230
         H           -4.667398751867    -1.838291411816     0.476380600622     1.007825032230

  Nuclear repulsion =  786.221542058740283
  Reference energy  = -538.484784416370871

  ==> Basis Set <==

  Basis Set: AUG-CC-PVTZ
    Blend: AUG-CC-PVTZ
    Number of shells: 322
    Number of basis functions: 966
    Number of Cartesian functions: 1120
    Spherical Harmonics?: true
    Max angular momentum: 3

  ==> CGRSolver (by Rob Parrish) <==

   Number of roots    =         1
   Preconditioning    =    JACOBI
   Convergence cutoff =     1E-06
   Maximum iterations =       100

  ==> CPHFRHamiltonian (by Rob Parrish) <== 

  ==> MemDFJK: Density-Fitted J/K Matrices <==

    J tasked:                   Yes
    K tasked:                   Yes
    wK tasked:                   No
    OpenMP threads:              32
    Memory [MiB]:             22888
    Algorithm:                 Core
    Schwarz Cutoff:           1E-12
    Mask sparsity (%):      12.7700
    Fitting Condition:        1E-10

   => Auxiliary Basis Set <=

  Basis Set: (AUG-CC-PVTZ AUX)
    Blend: AUG-CC-PVTZ-JKFIT
    Number of shells: 616
    Number of basis functions: 2100
    Number of Cartesian functions: 2604
    Spherical Harmonics?: true
    Max angular momentum: 4

  ==> CPHF Iterations <==

  => Iterations <=

             Iter  Converged  Remaining    Residual
  CGR           1          0          1   7.454E-02
  CGR           2          0          1   1.590E-02
  CGR           3          0          1   7.404E-03
  CGR           4          0          1   4.494E-03
  CGR           5          0          1   1.912E-03
  CGR           6          0          1   6.440E-04
  CGR           7          0          1   2.049E-04
  CGR           8          0          1   7.516E-05
  CGR           9          0          1   2.481E-05
  CGR          10          0          1   1.091E-05
  CGR          11          0          1   5.800E-06
  CGR          12          0          1   1.680E-06
  CGR          13          1          0   6.836E-07

    CGRSolver converged.

	-----------------------------------------------------------
	 ==================> DF-MP2 Energies <==================== 
	-----------------------------------------------------------
	 Reference Energy          =    -538.4847844163708714 [Eh]
	 Singles Energy            =      -0.0000000000000000 [Eh]
	 Same-Spin Energy          =      -0.6077657718928173 [Eh]
	 Opposite-Spin Energy      =      -1.9340489320660648 [Eh]
	 Correlation Energy        =      -2.5418147039588819 [Eh]
	 Total Energy              =    -541.0265991203297062 [Eh]
	-----------------------------------------------------------
	 ================> DF-SCS-MP2 Energies <================== 
	-----------------------------------------------------------
	 SCS Same-Spin Scale       =       0.3333333333333333 [-]
	 SCS Opposite-Spin Scale   =       1.2000000000000000 [-]
	 SCS Same-Spin Energy      =      -0.2025885906309391 [Eh]
	 SCS Opposite-Spin Energy  =      -2.3208587184792777 [Eh]
	 SCS Correlation Energy    =      -2.5234473091102170 [Eh]
	 SCS Total Energy          =    -541.0082317254810960 [Eh]
	-----------------------------------------------------------



Properties will be evaluated at  -0.000000,   0.000000,   0.000000 [a0]

Properties computed using the MP2 density matrix

  Nuclear Dipole Moment: [e a0]
     X:     5.5483      Y:    -1.5597      Z:     0.0308

  Electronic Dipole Moment: [e a0]
     X:    -5.4659      Y:     1.4880      Z:    -0.0258

  Dipole Moment: [e a0]
     X:     0.0824      Y:    -0.0717      Z:     0.0050     Total:     0.1093

  Dipole Moment: [D]
     X:     0.2095      Y:    -0.1822      Z:     0.0127     Total:     0.2779


*** tstop() called on c418-103.stampede2.tacc.utexas.edu at Sun Mar  7 03:09:50 2021
Module time:
	user time   =    6326.47 seconds =     105.44 minutes
	system time =     169.50 seconds =       2.83 minutes
	total time  =        548 seconds =       9.13 minutes
Total time:
	user time   =    8155.72 seconds =     135.93 minutes
	system time =     269.15 seconds =       4.49 minutes
	total time  =        636 seconds =      10.60 minutes

    Psi4 stopped on: Sunday, 07 March 2021 03:09AM
    Psi4 wall time for execution: 0:10:38.41

*** Psi4 exiting successfully. Buy a developer a beer!
