13601408                                                                
Freq      RMP2-FC                                                     6-31G(d)            
Number of atoms                            I               32
Info1-9                                    I   N=           9
          44          42        1002           0           0         100
           6           2           1
Charge                                     I                0
Multiplicity                               I                1
Number of electrons                        I              110
Number of alpha electrons                  I               55
Number of beta electrons                   I               55
Number of basis functions                  I              259
Number of independent functions            I              259
Number of point charges in /Mol/           I                0
Number of translation vectors              I                0
Atomic numbers                             I   N=          32
           8           7           6           6           6           6
           6           6           6           6           6           6
           6           6           6           1           1           1
           1           1           1           1           1           1
           1           1           1           1           1           1
           1           1
Nuclear charges                            R   N=          32
  8.00000000E+00  7.00000000E+00  6.00000000E+00  6.00000000E+00  6.00000000E+00
  6.00000000E+00  6.00000000E+00  6.00000000E+00  6.00000000E+00  6.00000000E+00
  6.00000000E+00  6.00000000E+00  6.00000000E+00  6.00000000E+00  6.00000000E+00
  1.00000000E+00  1.00000000E+00  1.00000000E+00  1.00000000E+00  1.00000000E+00
  1.00000000E+00  1.00000000E+00  1.00000000E+00  1.00000000E+00  1.00000000E+00
  1.00000000E+00  1.00000000E+00  1.00000000E+00  1.00000000E+00  1.00000000E+00
  1.00000000E+00  1.00000000E+00
Current cartesian coordinates              R   N=          96
  2.59111904E-01  4.05198788E+00 -1.41708718E+00 -1.71572002E+00  4.04073722E-01
 -1.57396261E-01 -4.17664269E+00  1.55332994E+00 -7.65110150E-01 -5.99329581E+00
 -5.39776555E-01 -1.59640442E+00 -6.14988824E+00 -2.71051206E+00  3.01872977E-01
 -3.51161391E+00 -3.75143038E+00  8.36708455E-01 -1.76376966E+00 -1.63815395E+00
  1.71100068E+00 -5.16466775E+00  3.18054385E+00  1.40641293E+00  3.94632727E-01
  1.85601435E+00 -6.14677403E-01  2.92281284E+00  6.36122753E-01 -2.51182124E-01
  3.47472765E+00 -1.74983418E+00 -1.26049868E+00  4.83313078E+00  2.04242638E+00
  9.19571911E-01  5.91075437E+00 -2.73789937E+00 -1.04963866E+00  7.25626118E+00
  1.03408734E+00  1.15523076E+00  7.79996917E+00 -1.35654991E+00  1.72303610E-01
 -3.81528023E+00  2.80641153E+00 -2.36690577E+00 -5.33009940E+00 -1.28579894E+00
 -3.41397786E+00 -7.86586252E+00  2.86142369E-01 -1.92563202E+00 -7.38558387E+00
 -4.20405988E+00 -4.27999252E-01 -7.00162257E+00 -2.05400690E+00  2.07500994E+00
 -3.57919719E+00 -5.23108490E+00  2.28659951E+00 -2.72965459E+00 -4.60259310E+00
 -8.85025939E-01 -2.43142009E+00 -9.01179004E-01  3.53810830E+00  1.56544306E-01
 -2.32342129E+00  2.00009465E+00 -6.94130543E+00  4.08886494E+00  8.59408712E-01
 -5.51649999E+00  2.08071268E+00  3.11934709E+00 -3.78383572E+00  4.65560906E+00
  1.83181635E+00  2.00491156E+00 -2.80238372E+00 -2.24109614E+00  4.39672381E+00
  3.92440816E+00  1.61831297E+00  6.33972057E+00 -4.58037927E+00 -1.85279004E+00
  8.73039904E+00  2.12134618E+00  2.08674783E+00  9.69474327E+00 -2.13321631E+00
  3.42913558E-01
Force Field                                I                0
Int Atom Types                             I   N=          32
           0           0           0           0           0           0
           0           0           0           0           0           0
           0           0           0           0           0           0
           0           0           0           0           0           0
           0           0           0           0           0           0
           0           0
MM charges                                 R   N=          32
  0.00000000E+00  0.00000000E+00  0.00000000E+00  0.00000000E+00  0.00000000E+00
  0.00000000E+00  0.00000000E+00  0.00000000E+00  0.00000000E+00  0.00000000E+00
  0.00000000E+00  0.00000000E+00  0.00000000E+00  0.00000000E+00  0.00000000E+00
  0.00000000E+00  0.00000000E+00  0.00000000E+00  0.00000000E+00  0.00000000E+00
  0.00000000E+00  0.00000000E+00  0.00000000E+00  0.00000000E+00  0.00000000E+00
  0.00000000E+00  0.00000000E+00  0.00000000E+00  0.00000000E+00  0.00000000E+00
  0.00000000E+00  0.00000000E+00
Integer atomic weights                     I   N=          32
          16          14          12          12          12          12
          12          12          12          12          12          12
          12          12          12           1           1           1
           1           1           1           1           1           1
           1           1           1           1           1           1
           1           1
Real atomic weights                        R   N=          32
  1.59949146E+01  1.40030740E+01  1.20000000E+01  1.20000000E+01  1.20000000E+01
  1.20000000E+01  1.20000000E+01  1.20000000E+01  1.20000000E+01  1.20000000E+01
  1.20000000E+01  1.20000000E+01  1.20000000E+01  1.20000000E+01  1.20000000E+01
  1.00782504E+00  1.00782504E+00  1.00782504E+00  1.00782504E+00  1.00782504E+00
  1.00782504E+00  1.00782504E+00  1.00782504E+00  1.00782504E+00  1.00782504E+00
  1.00782504E+00  1.00782504E+00  1.00782504E+00  1.00782504E+00  1.00782504E+00
  1.00782504E+00  1.00782504E+00
Atom fragment info                         I   N=          32
           0           0           0           0           0           0
           0           0           0           0           0           0
           0           0           0           0           0           0
           0           0           0           0           0           0
           0           0           0           0           0           0
           0           0
Atom residue num                           I   N=          32
           0           0           0           0           0           0
           0           0           0           0           0           0
           0           0           0           0           0           0
           0           0           0           0           0           0
           0           0           0           0           0           0
           0           0
Nuclear spins                              I   N=          32
           0           2           0           0           0           0
           0           0           0           0           0           0
           0           0           0           1           1           1
           1           1           1           1           1           1
           1           1           1           1           1           1
           1           1
Nuclear ZEff                               R   N=          32
 -5.60000000E+00 -4.55000000E+00 -3.60000000E+00 -3.60000000E+00 -3.60000000E+00
 -3.60000000E+00 -3.60000000E+00 -3.60000000E+00 -3.60000000E+00 -3.60000000E+00
 -3.60000000E+00 -3.60000000E+00 -3.60000000E+00 -3.60000000E+00 -3.60000000E+00
 -1.00000000E+00 -1.00000000E+00 -1.00000000E+00 -1.00000000E+00 -1.00000000E+00
 -1.00000000E+00 -1.00000000E+00 -1.00000000E+00 -1.00000000E+00 -1.00000000E+00
 -1.00000000E+00 -1.00000000E+00 -1.00000000E+00 -1.00000000E+00 -1.00000000E+00
 -1.00000000E+00 -1.00000000E+00
Nuclear QMom                               R   N=          32
  0.00000000E+00  2.04400000E+00  0.00000000E+00  0.00000000E+00  0.00000000E+00
  0.00000000E+00  0.00000000E+00  0.00000000E+00  0.00000000E+00  0.00000000E+00
  0.00000000E+00  0.00000000E+00  0.00000000E+00  0.00000000E+00  0.00000000E+00
  0.00000000E+00  0.00000000E+00  0.00000000E+00  0.00000000E+00  0.00000000E+00
  0.00000000E+00  0.00000000E+00  0.00000000E+00  0.00000000E+00  0.00000000E+00
  0.00000000E+00  0.00000000E+00  0.00000000E+00  0.00000000E+00  0.00000000E+00
  0.00000000E+00  0.00000000E+00
Nuclear GFac                               R   N=          32
  0.00000000E+00  4.03761000E-01  0.00000000E+00  0.00000000E+00  0.00000000E+00
  0.00000000E+00  0.00000000E+00  0.00000000E+00  0.00000000E+00  0.00000000E+00
  0.00000000E+00  0.00000000E+00  0.00000000E+00  0.00000000E+00  0.00000000E+00
  2.79284600E+00  2.79284600E+00  2.79284600E+00  2.79284600E+00  2.79284600E+00
  2.79284600E+00  2.79284600E+00  2.79284600E+00  2.79284600E+00  2.79284600E+00
  2.79284600E+00  2.79284600E+00  2.79284600E+00  2.79284600E+00  2.79284600E+00
  2.79284600E+00  2.79284600E+00
MicOpt                                     I   N=          32
          -1          -1          -1          -1          -1          -1
          -1          -1          -1          -1          -1          -1
          -1          -1          -1          -1          -1          -1
          -1          -1          -1          -1          -1          -1
          -1          -1          -1          -1          -1          -1
          -1          -1
Number of contracted shells                I               94
Number of primitive shells                 I              233
Pure/Cartesian d shells                    I                1
Pure/Cartesian f shells                    I                0
Highest angular momentum                   I                2
Largest degree of contraction              I                6
Shell types                                I   N=          94
           0          -1          -1           2           0          -1
          -1           2           0          -1          -1           2
           0          -1          -1           2           0          -1
          -1           2           0          -1          -1           2
           0          -1          -1           2           0          -1
          -1           2           0          -1          -1           2
           0          -1          -1           2           0          -1
          -1           2           0          -1          -1           2
           0          -1          -1           2           0          -1
          -1           2           0          -1          -1           2
           0           0           0           0           0           0
           0           0           0           0           0           0
           0           0           0           0           0           0
           0           0           0           0           0           0
           0           0           0           0           0           0
           0           0           0           0
Number of primitives per shell             I   N=          94
           6           3           1           1           6           3
           1           1           6           3           1           1
           6           3           1           1           6           3
           1           1           6           3           1           1
           6           3           1           1           6           3
           1           1           6           3           1           1
           6           3           1           1           6           3
           1           1           6           3           1           1
           6           3           1           1           6           3
           1           1           6           3           1           1
           3           1           3           1           3           1
           3           1           3           1           3           1
           3           1           3           1           3           1
           3           1           3           1           3           1
           3           1           3           1           3           1
           3           1           3           1
Shell to atom map                          I   N=          94
           1           1           1           1           2           2
           2           2           3           3           3           3
           4           4           4           4           5           5
           5           5           6           6           6           6
           7           7           7           7           8           8
           8           8           9           9           9           9
          10          10          10          10          11          11
          11          11          12          12          12          12
          13          13          13          13          14          14
          14          14          15          15          15          15
          16          16          17          17          18          18
          19          19          20          20          21          21
          22          22          23          23          24          24
          25          25          26          26          27          27
          28          28          29          29          30          30
          31          31          32          32
Primitive exponents                        R   N=         233
  5.48467166E+03  8.25234946E+02  1.88046958E+02  5.29645000E+01  1.68975704E+01
  5.79963534E+00  1.55396162E+01  3.59993359E+00  1.01376175E+00  2.70005823E-01
  8.00000000E-01  4.17351146E+03  6.27457911E+02  1.42902093E+02  4.02343293E+01
  1.28202129E+01  4.39043701E+00  1.16263619E+01  2.71627981E+00  7.72218397E-01
  2.12031498E-01  8.00000000E-01  3.04752488E+03  4.57369518E+02  1.03948685E+02
  2.92101553E+01  9.28666296E+00  3.16392696E+00  7.86827235E+00  1.88128854E+00
  5.44249258E-01  1.68714478E-01  8.00000000E-01  3.04752488E+03  4.57369518E+02
  1.03948685E+02  2.92101553E+01  9.28666296E+00  3.16392696E+00  7.86827235E+00
  1.88128854E+00  5.44249258E-01  1.68714478E-01  8.00000000E-01  3.04752488E+03
  4.57369518E+02  1.03948685E+02  2.92101553E+01  9.28666296E+00  3.16392696E+00
  7.86827235E+00  1.88128854E+00  5.44249258E-01  1.68714478E-01  8.00000000E-01
  3.04752488E+03  4.57369518E+02  1.03948685E+02  2.92101553E+01  9.28666296E+00
  3.16392696E+00  7.86827235E+00  1.88128854E+00  5.44249258E-01  1.68714478E-01
  8.00000000E-01  3.04752488E+03  4.57369518E+02  1.03948685E+02  2.92101553E+01
  9.28666296E+00  3.16392696E+00  7.86827235E+00  1.88128854E+00  5.44249258E-01
  1.68714478E-01  8.00000000E-01  3.04752488E+03  4.57369518E+02  1.03948685E+02
  2.92101553E+01  9.28666296E+00  3.16392696E+00  7.86827235E+00  1.88128854E+00
  5.44249258E-01  1.68714478E-01  8.00000000E-01  3.04752488E+03  4.57369518E+02
  1.03948685E+02  2.92101553E+01  9.28666296E+00  3.16392696E+00  7.86827235E+00
  1.88128854E+00  5.44249258E-01  1.68714478E-01  8.00000000E-01  3.04752488E+03
  4.57369518E+02  1.03948685E+02  2.92101553E+01  9.28666296E+00  3.16392696E+00
  7.86827235E+00  1.88128854E+00  5.44249258E-01  1.68714478E-01  8.00000000E-01
  3.04752488E+03  4.57369518E+02  1.03948685E+02  2.92101553E+01  9.28666296E+00
  3.16392696E+00  7.86827235E+00  1.88128854E+00  5.44249258E-01  1.68714478E-01
  8.00000000E-01  3.04752488E+03  4.57369518E+02  1.03948685E+02  2.92101553E+01
  9.28666296E+00  3.16392696E+00  7.86827235E+00  1.88128854E+00  5.44249258E-01
  1.68714478E-01  8.00000000E-01  3.04752488E+03  4.57369518E+02  1.03948685E+02
  2.92101553E+01  9.28666296E+00  3.16392696E+00  7.86827235E+00  1.88128854E+00
  5.44249258E-01  1.68714478E-01  8.00000000E-01  3.04752488E+03  4.57369518E+02
  1.03948685E+02  2.92101553E+01  9.28666296E+00  3.16392696E+00  7.86827235E+00
  1.88128854E+00  5.44249258E-01  1.68714478E-01  8.00000000E-01  3.04752488E+03
  4.57369518E+02  1.03948685E+02  2.92101553E+01  9.28666296E+00  3.16392696E+00
  7.86827235E+00  1.88128854E+00  5.44249258E-01  1.68714478E-01  8.00000000E-01
  1.87311370E+01  2.82539436E+00  6.40121692E-01  1.61277759E-01  1.87311370E+01
  2.82539436E+00  6.40121692E-01  1.61277759E-01  1.87311370E+01  2.82539436E+00
  6.40121692E-01  1.61277759E-01  1.87311370E+01  2.82539436E+00  6.40121692E-01
  1.61277759E-01  1.87311370E+01  2.82539436E+00  6.40121692E-01  1.61277759E-01
  1.87311370E+01  2.82539436E+00  6.40121692E-01  1.61277759E-01  1.87311370E+01
  2.82539436E+00  6.40121692E-01  1.61277759E-01  1.87311370E+01  2.82539436E+00
  6.40121692E-01  1.61277759E-01  1.87311370E+01  2.82539436E+00  6.40121692E-01
  1.61277759E-01  1.87311370E+01  2.82539436E+00  6.40121692E-01  1.61277759E-01
  1.87311370E+01  2.82539436E+00  6.40121692E-01  1.61277759E-01  1.87311370E+01
  2.82539436E+00  6.40121692E-01  1.61277759E-01  1.87311370E+01  2.82539436E+00
  6.40121692E-01  1.61277759E-01  1.87311370E+01  2.82539436E+00  6.40121692E-01
  1.61277759E-01  1.87311370E+01  2.82539436E+00  6.40121692E-01  1.61277759E-01
  1.87311370E+01  2.82539436E+00  6.40121692E-01  1.61277759E-01  1.87311370E+01
  2.82539436E+00  6.40121692E-01  1.61277759E-01
Contraction coefficients                   R   N=         233
  1.83107443E-03  1.39501722E-02  6.84450781E-02  2.32714336E-01  4.70192898E-01
  3.58520853E-01 -1.10777550E-01 -1.48026263E-01  1.13076702E+00  1.00000000E+00
  1.00000000E+00  1.83477216E-03  1.39946270E-02  6.85865518E-02  2.32240873E-01
  4.69069948E-01  3.60455199E-01 -1.14961182E-01 -1.69117479E-01  1.14585195E+00
  1.00000000E+00  1.00000000E+00  1.83473713E-03  1.40373228E-02  6.88426223E-02
  2.32184443E-01  4.67941348E-01  3.62311985E-01 -1.19332420E-01 -1.60854152E-01
  1.14345644E+00  1.00000000E+00  1.00000000E+00  1.83473713E-03  1.40373228E-02
  6.88426223E-02  2.32184443E-01  4.67941348E-01  3.62311985E-01 -1.19332420E-01
 -1.60854152E-01  1.14345644E+00  1.00000000E+00  1.00000000E+00  1.83473713E-03
  1.40373228E-02  6.88426223E-02  2.32184443E-01  4.67941348E-01  3.62311985E-01
 -1.19332420E-01 -1.60854152E-01  1.14345644E+00  1.00000000E+00  1.00000000E+00
  1.83473713E-03  1.40373228E-02  6.88426223E-02  2.32184443E-01  4.67941348E-01
  3.62311985E-01 -1.19332420E-01 -1.60854152E-01  1.14345644E+00  1.00000000E+00
  1.00000000E+00  1.83473713E-03  1.40373228E-02  6.88426223E-02  2.32184443E-01
  4.67941348E-01  3.62311985E-01 -1.19332420E-01 -1.60854152E-01  1.14345644E+00
  1.00000000E+00  1.00000000E+00  1.83473713E-03  1.40373228E-02  6.88426223E-02
  2.32184443E-01  4.67941348E-01  3.62311985E-01 -1.19332420E-01 -1.60854152E-01
  1.14345644E+00  1.00000000E+00  1.00000000E+00  1.83473713E-03  1.40373228E-02
  6.88426223E-02  2.32184443E-01  4.67941348E-01  3.62311985E-01 -1.19332420E-01
 -1.60854152E-01  1.14345644E+00  1.00000000E+00  1.00000000E+00  1.83473713E-03
  1.40373228E-02  6.88426223E-02  2.32184443E-01  4.67941348E-01  3.62311985E-01
 -1.19332420E-01 -1.60854152E-01  1.14345644E+00  1.00000000E+00  1.00000000E+00
  1.83473713E-03  1.40373228E-02  6.88426223E-02  2.32184443E-01  4.67941348E-01
  3.62311985E-01 -1.19332420E-01 -1.60854152E-01  1.14345644E+00  1.00000000E+00
  1.00000000E+00  1.83473713E-03  1.40373228E-02  6.88426223E-02  2.32184443E-01
  4.67941348E-01  3.62311985E-01 -1.19332420E-01 -1.60854152E-01  1.14345644E+00
  1.00000000E+00  1.00000000E+00  1.83473713E-03  1.40373228E-02  6.88426223E-02
  2.32184443E-01  4.67941348E-01  3.62311985E-01 -1.19332420E-01 -1.60854152E-01
  1.14345644E+00  1.00000000E+00  1.00000000E+00  1.83473713E-03  1.40373228E-02
  6.88426223E-02  2.32184443E-01  4.67941348E-01  3.62311985E-01 -1.19332420E-01
 -1.60854152E-01  1.14345644E+00  1.00000000E+00  1.00000000E+00  1.83473713E-03
  1.40373228E-02  6.88426223E-02  2.32184443E-01  4.67941348E-01  3.62311985E-01
 -1.19332420E-01 -1.60854152E-01  1.14345644E+00  1.00000000E+00  1.00000000E+00
  3.34946043E-02  2.34726953E-01  8.13757326E-01  1.00000000E+00  3.34946043E-02
  2.34726953E-01  8.13757326E-01  1.00000000E+00  3.34946043E-02  2.34726953E-01
  8.13757326E-01  1.00000000E+00  3.34946043E-02  2.34726953E-01  8.13757326E-01
  1.00000000E+00  3.34946043E-02  2.34726953E-01  8.13757326E-01  1.00000000E+00
  3.34946043E-02  2.34726953E-01  8.13757326E-01  1.00000000E+00  3.34946043E-02
  2.34726953E-01  8.13757326E-01  1.00000000E+00  3.34946043E-02  2.34726953E-01
  8.13757326E-01  1.00000000E+00  3.34946043E-02  2.34726953E-01  8.13757326E-01
  1.00000000E+00  3.34946043E-02  2.34726953E-01  8.13757326E-01  1.00000000E+00
  3.34946043E-02  2.34726953E-01  8.13757326E-01  1.00000000E+00  3.34946043E-02
  2.34726953E-01  8.13757326E-01  1.00000000E+00  3.34946043E-02  2.34726953E-01
  8.13757326E-01  1.00000000E+00  3.34946043E-02  2.34726953E-01  8.13757326E-01
  1.00000000E+00  3.34946043E-02  2.34726953E-01  8.13757326E-01  1.00000000E+00
  3.34946043E-02  2.34726953E-01  8.13757326E-01  1.00000000E+00  3.34946043E-02
  2.34726953E-01  8.13757326E-01  1.00000000E+00
P(S=P) Contraction coefficients            R   N=         233
  0.00000000E+00  0.00000000E+00  0.00000000E+00  0.00000000E+00  0.00000000E+00
  0.00000000E+00  7.08742682E-02  3.39752839E-01  7.27158577E-01  1.00000000E+00
  0.00000000E+00  0.00000000E+00  0.00000000E+00  0.00000000E+00  0.00000000E+00
  0.00000000E+00  0.00000000E+00  6.75797439E-02  3.23907296E-01  7.40895140E-01
  1.00000000E+00  0.00000000E+00  0.00000000E+00  0.00000000E+00  0.00000000E+00
  0.00000000E+00  0.00000000E+00  0.00000000E+00  6.89990666E-02  3.16423961E-01
  7.44308291E-01  1.00000000E+00  0.00000000E+00  0.00000000E+00  0.00000000E+00
  0.00000000E+00  0.00000000E+00  0.00000000E+00  0.00000000E+00  6.89990666E-02
  3.16423961E-01  7.44308291E-01  1.00000000E+00  0.00000000E+00  0.00000000E+00
  0.00000000E+00  0.00000000E+00  0.00000000E+00  0.00000000E+00  0.00000000E+00
  6.89990666E-02  3.16423961E-01  7.44308291E-01  1.00000000E+00  0.00000000E+00
  0.00000000E+00  0.00000000E+00  0.00000000E+00  0.00000000E+00  0.00000000E+00
  0.00000000E+00  6.89990666E-02  3.16423961E-01  7.44308291E-01  1.00000000E+00
  0.00000000E+00  0.00000000E+00  0.00000000E+00  0.00000000E+00  0.00000000E+00
  0.00000000E+00  0.00000000E+00  6.89990666E-02  3.16423961E-01  7.44308291E-01
  1.00000000E+00  0.00000000E+00  0.00000000E+00  0.00000000E+00  0.00000000E+00
  0.00000000E+00  0.00000000E+00  0.00000000E+00  6.89990666E-02  3.16423961E-01
  7.44308291E-01  1.00000000E+00  0.00000000E+00  0.00000000E+00  0.00000000E+00
  0.00000000E+00  0.00000000E+00  0.00000000E+00  0.00000000E+00  6.89990666E-02
  3.16423961E-01  7.44308291E-01  1.00000000E+00  0.00000000E+00  0.00000000E+00
  0.00000000E+00  0.00000000E+00  0.00000000E+00  0.00000000E+00  0.00000000E+00
  6.89990666E-02  3.16423961E-01  7.44308291E-01  1.00000000E+00  0.00000000E+00
  0.00000000E+00  0.00000000E+00  0.00000000E+00  0.00000000E+00  0.00000000E+00
  0.00000000E+00  6.89990666E-02  3.16423961E-01  7.44308291E-01  1.00000000E+00
  0.00000000E+00  0.00000000E+00  0.00000000E+00  0.00000000E+00  0.00000000E+00
  0.00000000E+00  0.00000000E+00  6.89990666E-02  3.16423961E-01  7.44308291E-01
  1.00000000E+00  0.00000000E+00  0.00000000E+00  0.00000000E+00  0.00000000E+00
  0.00000000E+00  0.00000000E+00  0.00000000E+00  6.89990666E-02  3.16423961E-01
  7.44308291E-01  1.00000000E+00  0.00000000E+00  0.00000000E+00  0.00000000E+00
  0.00000000E+00  0.00000000E+00  0.00000000E+00  0.00000000E+00  6.89990666E-02
  3.16423961E-01  7.44308291E-01  1.00000000E+00  0.00000000E+00  0.00000000E+00
  0.00000000E+00  0.00000000E+00  0.00000000E+00  0.00000000E+00  0.00000000E+00
  6.89990666E-02  3.16423961E-01  7.44308291E-01  1.00000000E+00  0.00000000E+00
  0.00000000E+00  0.00000000E+00  0.00000000E+00  0.00000000E+00  0.00000000E+00
  0.00000000E+00  0.00000000E+00  0.00000000E+00  0.00000000E+00  0.00000000E+00
  0.00000000E+00  0.00000000E+00  0.00000000E+00  0.00000000E+00  0.00000000E+00
  0.00000000E+00  0.00000000E+00  0.00000000E+00  0.00000000E+00  0.00000000E+00
  0.00000000E+00  0.00000000E+00  0.00000000E+00  0.00000000E+00  0.00000000E+00
  0.00000000E+00  0.00000000E+00  0.00000000E+00  0.00000000E+00  0.00000000E+00
  0.00000000E+00  0.00000000E+00  0.00000000E+00  0.00000000E+00  0.00000000E+00
  0.00000000E+00  0.00000000E+00  0.00000000E+00  0.00000000E+00  0.00000000E+00
  0.00000000E+00  0.00000000E+00  0.00000000E+00  0.00000000E+00  0.00000000E+00
  0.00000000E+00  0.00000000E+00  0.00000000E+00  0.00000000E+00  0.00000000E+00
  0.00000000E+00  0.00000000E+00  0.00000000E+00  0.00000000E+00  0.00000000E+00
  0.00000000E+00  0.00000000E+00  0.00000000E+00  0.00000000E+00  0.00000000E+00
  0.00000000E+00  0.00000000E+00  0.00000000E+00  0.00000000E+00  0.00000000E+00
  0.00000000E+00  0.00000000E+00  0.00000000E+00
Coordinates of each shell                  R   N=         282
  2.59111904E-01  4.05198788E+00 -1.41708718E+00  2.59111904E-01  4.05198788E+00
 -1.41708718E+00  2.59111904E-01  4.05198788E+00 -1.41708718E+00  2.59111904E-01
  4.05198788E+00 -1.41708718E+00 -1.71572002E+00  4.04073722E-01 -1.57396261E-01
 -1.71572002E+00  4.04073722E-01 -1.57396261E-01 -1.71572002E+00  4.04073722E-01
 -1.57396261E-01 -1.71572002E+00  4.04073722E-01 -1.57396261E-01 -4.17664269E+00
  1.55332994E+00 -7.65110150E-01 -4.17664269E+00  1.55332994E+00 -7.65110150E-01
 -4.17664269E+00  1.55332994E+00 -7.65110150E-01 -4.17664269E+00  1.55332994E+00
 -7.65110150E-01 -5.99329581E+00 -5.39776555E-01 -1.59640442E+00 -5.99329581E+00
 -5.39776555E-01 -1.59640442E+00 -5.99329581E+00 -5.39776555E-01 -1.59640442E+00
 -5.99329581E+00 -5.39776555E-01 -1.59640442E+00 -6.14988824E+00 -2.71051206E+00
  3.01872977E-01 -6.14988824E+00 -2.71051206E+00  3.01872977E-01 -6.14988824E+00
 -2.71051206E+00  3.01872977E-01 -6.14988824E+00 -2.71051206E+00  3.01872977E-01
 -3.51161391E+00 -3.75143038E+00  8.36708455E-01 -3.51161391E+00 -3.75143038E+00
  8.36708455E-01 -3.51161391E+00 -3.75143038E+00  8.36708455E-01 -3.51161391E+00
 -3.75143038E+00  8.36708455E-01 -1.76376966E+00 -1.63815395E+00  1.71100068E+00
 -1.76376966E+00 -1.63815395E+00  1.71100068E+00 -1.76376966E+00 -1.63815395E+00
  1.71100068E+00 -1.76376966E+00 -1.63815395E+00  1.71100068E+00 -5.16466775E+00
  3.18054385E+00  1.40641293E+00 -5.16466775E+00  3.18054385E+00  1.40641293E+00
 -5.16466775E+00  3.18054385E+00  1.40641293E+00 -5.16466775E+00  3.18054385E+00
  1.40641293E+00  3.94632727E-01  1.85601435E+00 -6.14677403E-01  3.94632727E-01
  1.85601435E+00 -6.14677403E-01  3.94632727E-01  1.85601435E+00 -6.14677403E-01
  3.94632727E-01  1.85601435E+00 -6.14677403E-01  2.92281284E+00  6.36122753E-01
 -2.51182124E-01  2.92281284E+00  6.36122753E-01 -2.51182124E-01  2.92281284E+00
  6.36122753E-01 -2.51182124E-01  2.92281284E+00  6.36122753E-01 -2.51182124E-01
  3.47472765E+00 -1.74983418E+00 -1.26049868E+00  3.47472765E+00 -1.74983418E+00
 -1.26049868E+00  3.47472765E+00 -1.74983418E+00 -1.26049868E+00  3.47472765E+00
 -1.74983418E+00 -1.26049868E+00  4.83313078E+00  2.04242638E+00  9.19571911E-01
  4.83313078E+00  2.04242638E+00  9.19571911E-01  4.83313078E+00  2.04242638E+00
  9.19571911E-01  4.83313078E+00  2.04242638E+00  9.19571911E-01  5.91075437E+00
 -2.73789937E+00 -1.04963866E+00  5.91075437E+00 -2.73789937E+00 -1.04963866E+00
  5.91075437E+00 -2.73789937E+00 -1.04963866E+00  5.91075437E+00 -2.73789937E+00
 -1.04963866E+00  7.25626118E+00  1.03408734E+00  1.15523076E+00  7.25626118E+00
  1.03408734E+00  1.15523076E+00  7.25626118E+00  1.03408734E+00  1.15523076E+00
  7.25626118E+00  1.03408734E+00  1.15523076E+00  7.79996917E+00 -1.35654991E+00
  1.72303610E-01  7.79996917E+00 -1.35654991E+00  1.72303610E-01  7.79996917E+00
 -1.35654991E+00  1.72303610E-01  7.79996917E+00 -1.35654991E+00  1.72303610E-01
 -3.81528023E+00  2.80641153E+00 -2.36690577E+00 -3.81528023E+00  2.80641153E+00
 -2.36690577E+00 -5.33009940E+00 -1.28579894E+00 -3.41397786E+00 -5.33009940E+00
 -1.28579894E+00 -3.41397786E+00 -7.86586252E+00  2.86142369E-01 -1.92563202E+00
 -7.86586252E+00  2.86142369E-01 -1.92563202E+00 -7.38558387E+00 -4.20405988E+00
 -4.27999252E-01 -7.38558387E+00 -4.20405988E+00 -4.27999252E-01 -7.00162257E+00
 -2.05400690E+00  2.07500994E+00 -7.00162257E+00 -2.05400690E+00  2.07500994E+00
 -3.57919719E+00 -5.23108490E+00  2.28659951E+00 -3.57919719E+00 -5.23108490E+00
  2.28659951E+00 -2.72965459E+00 -4.60259310E+00 -8.85025939E-01 -2.72965459E+00
 -4.60259310E+00 -8.85025939E-01 -2.43142009E+00 -9.01179004E-01  3.53810830E+00
 -2.43142009E+00 -9.01179004E-01  3.53810830E+00  1.56544306E-01 -2.32342129E+00
  2.00009465E+00  1.56544306E-01 -2.32342129E+00  2.00009465E+00 -6.94130543E+00
  4.08886494E+00  8.59408712E-01 -6.94130543E+00  4.08886494E+00  8.59408712E-01
 -5.51649999E+00  2.08071268E+00  3.11934709E+00 -5.51649999E+00  2.08071268E+00
  3.11934709E+00 -3.78383572E+00  4.65560906E+00  1.83181635E+00 -3.78383572E+00
  4.65560906E+00  1.83181635E+00  2.00491156E+00 -2.80238372E+00 -2.24109614E+00
  2.00491156E+00 -2.80238372E+00 -2.24109614E+00  4.39672381E+00  3.92440816E+00
  1.61831297E+00  4.39672381E+00  3.92440816E+00  1.61831297E+00  6.33972057E+00
 -4.58037927E+00 -1.85279004E+00  6.33972057E+00 -4.58037927E+00 -1.85279004E+00
  8.73039904E+00  2.12134618E+00  2.08674783E+00  8.73039904E+00  2.12134618E+00
  2.08674783E+00  9.69474327E+00 -2.13321631E+00  3.42913558E-01  9.69474327E+00
 -2.13321631E+00  3.42913558E-01
Constraint Structure                       R   N=          96
  2.59111904E-01  4.05198788E+00 -1.41708718E+00 -1.71572002E+00  4.04073722E-01
 -1.57396261E-01 -4.17664269E+00  1.55332994E+00 -7.65110150E-01 -5.99329581E+00
 -5.39776555E-01 -1.59640442E+00 -6.14988824E+00 -2.71051206E+00  3.01872977E-01
 -3.51161391E+00 -3.75143038E+00  8.36708455E-01 -1.76376966E+00 -1.63815395E+00
  1.71100068E+00 -5.16466775E+00  3.18054385E+00  1.40641293E+00  3.94632727E-01
  1.85601435E+00 -6.14677403E-01  2.92281284E+00  6.36122753E-01 -2.51182124E-01