123510828                                                               
Freq      RMP2-FC                                                     6-31G(d)            
Number of atoms                            I               22
Info1-9                                    I   N=           9
          34          32        1002           0           0         100
           6           2           1
Charge                                     I                0
Multiplicity                               I                1
Number of electrons                        I               72
Number of alpha electrons                  I               36
Number of beta electrons                   I               36
Number of basis functions                  I              152
Number of independent functions            I              152
Number of point charges in /Mol/           I                0
Number of translation vectors              I                0
Atomic numbers                             I   N=          22
          16           6           6           6           6           6
           6           6           1           1           1           1
           1           1           1           1           1           1
           1           1           1           1
Nuclear charges                            R   N=          22
  1.60000000E+01  6.00000000E+00  6.00000000E+00  6.00000000E+00  6.00000000E+00
  6.00000000E+00  6.00000000E+00  6.00000000E+00  1.00000000E+00  1.00000000E+00
  1.00000000E+00  1.00000000E+00  1.00000000E+00  1.00000000E+00  1.00000000E+00
  1.00000000E+00  1.00000000E+00  1.00000000E+00  1.00000000E+00  1.00000000E+00
  1.00000000E+00  1.00000000E+00
Current cartesian coordinates              R   N=          66
  1.89726908E+00 -3.47148884E+00  7.86785049E-02 -1.10441643E+00 -2.73871435E-02
 -4.42649874E-01  1.57695390E+00 -5.10773204E-02  7.10054808E-01 -1.51047027E+00
 -2.90422279E+00 -2.65180947E-01 -3.09725644E+00  1.59598206E+00  8.46299872E-01
  3.58387554E+00  1.61832786E+00 -4.74571447E-01 -5.69549443E+00  1.31852536E+00
 -3.79549027E-01  3.06086667E+00  4.43154245E+00 -8.62614247E-02 -9.42813111E-01
  5.05111469E-01 -2.44413353E+00  1.49225174E+00  2.66235661E-01  2.75916670E+00
 -2.53697960E+00 -3.44789198E+00  1.44667660E+00 -2.36655096E+00 -3.82496000E+00
 -1.90196788E+00 -2.51120792E+00  3.58277857E+00  8.06978176E-01 -3.20152018E+00
  1.05213662E+00  2.84594169E+00  5.42914690E+00  1.13072786E+00  3.36241026E-01
  3.69225251E+00  1.18284694E+00 -2.49673507E+00 -5.63203153E+00  1.87619219E+00
 -2.37022185E+00 -7.10109186E+00  2.50105335E+00  5.68122577E-01 -6.35540110E+00
 -6.39099485E-01 -2.89288074E-01  1.31476449E+00  5.00527201E+00 -1.03081557E+00
  4.59736522E+00  5.57713768E+00 -8.61132877E-01  2.88115896E+00  4.88613768E+00
  1.92346024E+00
Force Field                                I                0
Int Atom Types                             I   N=          22
           0           0           0           0           0           0
           0           0           0           0           0           0
           0           0           0           0           0           0
           0           0           0           0
MM charges                                 R   N=          22
  0.00000000E+00  0.00000000E+00  0.00000000E+00  0.00000000E+00  0.00000000E+00
  0.00000000E+00  0.00000000E+00  0.00000000E+00  0.00000000E+00  0.00000000E+00
  0.00000000E+00  0.00000000E+00  0.00000000E+00  0.00000000E+00  0.00000000E+00
  0.00000000E+00  0.00000000E+00  0.00000000E+00  0.00000000E+00  0.00000000E+00
  0.00000000E+00  0.00000000E+00
Integer atomic weights                     I   N=          22
          32          12          12          12          12          12
          12          12           1           1           1           1
           1           1           1           1           1           1
           1           1           1           1
Real atomic weights                        R   N=          22
  3.19720718E+01  1.20000000E+01  1.20000000E+01  1.20000000E+01  1.20000000E+01
  1.20000000E+01  1.20000000E+01  1.20000000E+01  1.00782504E+00  1.00782504E+00
  1.00782504E+00  1.00782504E+00  1.00782504E+00  1.00782504E+00  1.00782504E+00
  1.00782504E+00  1.00782504E+00  1.00782504E+00  1.00782504E+00  1.00782504E+00
  1.00782504E+00  1.00782504E+00
Atom fragment info                         I   N=          22
           0           0           0           0           0           0
           0           0           0           0           0           0
           0           0           0           0           0           0
           0           0           0           0
Atom residue num                           I   N=          22
           0           0           0           0           0           0
           0           0           0           0           0           0
           0           0           0           0           0           0
           0           0           0           0
Nuclear spins                              I   N=          22
           0           0           0           0           0           0
           0           0           1           1           1           1
           1           1           1           1           1           1
           1           1           1           1
Nuclear ZEff                               R   N=          22
 -1.36000000E+01 -3.60000000E+00 -3.60000000E+00 -3.60000000E+00 -3.60000000E+00
 -3.60000000E+00 -3.60000000E+00 -3.60000000E+00 -1.00000000E+00 -1.00000000E+00
 -1.00000000E+00 -1.00000000E+00 -1.00000000E+00 -1.00000000E+00 -1.00000000E+00
 -1.00000000E+00 -1.00000000E+00 -1.00000000E+00 -1.00000000E+00 -1.00000000E+00
 -1.00000000E+00 -1.00000000E+00
Nuclear QMom                               R   N=          22
  0.00000000E+00  0.00000000E+00  0.00000000E+00  0.00000000E+00  0.00000000E+00
  0.00000000E+00  0.00000000E+00  0.00000000E+00  0.00000000E+00  0.00000000E+00
  0.00000000E+00  0.00000000E+00  0.00000000E+00  0.00000000E+00  0.00000000E+00
  0.00000000E+00  0.00000000E+00  0.00000000E+00  0.00000000E+00  0.00000000E+00
  0.00000000E+00  0.00000000E+00
Nuclear GFac                               R   N=          22
  0.00000000E+00  0.00000000E+00  0.00000000E+00  0.00000000E+00  0.00000000E+00
  0.00000000E+00  0.00000000E+00  0.00000000E+00  2.79284600E+00  2.79284600E+00
  2.79284600E+00  2.79284600E+00  2.79284600E+00  2.79284600E+00  2.79284600E+00
  2.79284600E+00  2.79284600E+00  2.79284600E+00  2.79284600E+00  2.79284600E+00
  2.79284600E+00  2.79284600E+00
MicOpt                                     I   N=          22
          -1          -1          -1          -1          -1          -1
          -1          -1          -1          -1          -1          -1
          -1          -1          -1          -1          -1          -1
          -1          -1          -1          -1
Number of contracted shells                I               61
Number of primitive shells                 I              150
Pure/Cartesian d shells                    I                1
Pure/Cartesian f shells                    I                0
Highest angular momentum                   I                2
Largest degree of contraction              I                6
Shell types                                I   N=          61
           0          -1          -1          -1           2           0
          -1          -1           2           0          -1          -1
           2           0          -1          -1           2           0
          -1          -1           2           0          -1          -1
           2           0          -1          -1           2           0
          -1          -1           2           0           0           0
           0           0           0           0           0           0
           0           0           0           0           0           0
           0           0           0           0           0           0
           0           0           0           0           0           0
           0
Number of primitives per shell             I   N=          61
           6           6           3           1           1           6
           3           1           1           6           3           1
           1           6           3           1           1           6
           3           1           1           6           3           1
           1           6           3           1           1           6
           3           1           1           3           1           3
           1           3           1           3           1           3
           1           3           1           3           1           3
           1           3           1           3           1           3
           1           3           1           3           1           3
           1
Shell to atom map                          I   N=          61
           1           1           1           1           1           2
           2           2           2           3           3           3
           3           4           4           4           4           5
           5           5           5           6           6           6
           6           7           7           7           7           8
           8           8           8           9           9          10
          10          11          11          12          12          13
          13          14          14          15          15          16
          16          17          17          18          18          19
          19          20          20          21          21          22
          22
Primitive exponents                        R   N=         150
  2.19171000E+04  3.30149000E+03  7.54146000E+02  2.12711000E+02  6.79896000E+01
  2.30515000E+01  4.23735000E+02  1.00710000E+02  3.21599000E+01  1.18079000E+01
  4.63110000E+00  1.87025000E+00  2.61584000E+00  9.22167000E-01  3.41287000E-01
  1.17167000E-01  6.50000000E-01  3.04752488E+03  4.57369518E+02  1.03948685E+02
  2.92101553E+01  9.28666296E+00  3.16392696E+00  7.86827235E+00  1.88128854E+00
  5.44249258E-01  1.68714478E-01  8.00000000E-01  3.04752488E+03  4.57369518E+02
  1.03948685E+02  2.92101553E+01  9.28666296E+00  3.16392696E+00  7.86827235E+00
  1.88128854E+00  5.44249258E-01  1.68714478E-01  8.00000000E-01  3.04752488E+03
  4.57369518E+02  1.03948685E+02  2.92101553E+01  9.28666296E+00  3.16392696E+00
  7.86827235E+00  1.88128854E+00  5.44249258E-01  1.68714478E-01  8.00000000E-01
  3.04752488E+03  4.57369518E+02  1.03948685E+02  2.92101553E+01  9.28666296E+00
  3.16392696E+00  7.86827235E+00  1.88128854E+00  5.44249258E-01  1.68714478E-01
  8.00000000E-01  3.04752488E+03  4.57369518E+02  1.03948685E+02  2.92101553E+01
  9.28666296E+00  3.16392696E+00  7.86827235E+00  1.88128854E+00  5.44249258E-01
  1.68714478E-01  8.00000000E-01  3.04752488E+03  4.57369518E+02  1.03948685E+02
  2.92101553E+01  9.28666296E+00  3.16392696E+00  7.86827235E+00  1.88128854E+00
  5.44249258E-01  1.68714478E-01  8.00000000E-01  3.04752488E+03  4.57369518E+02
  1.03948685E+02  2.92101553E+01  9.28666296E+00  3.16392696E+00  7.86827235E+00
  1.88128854E+00  5.44249258E-01  1.68714478E-01  8.00000000E-01  1.87311370E+01
  2.82539436E+00  6.40121692E-01  1.61277759E-01  1.87311370E+01  2.82539436E+00
  6.40121692E-01  1.61277759E-01  1.87311370E+01  2.82539436E+00  6.40121692E-01
  1.61277759E-01  1.87311370E+01  2.82539436E+00  6.40121692E-01  1.61277759E-01
  1.87311370E+01  2.82539436E+00  6.40121692E-01  1.61277759E-01  1.87311370E+01
  2.82539436E+00  6.40121692E-01  1.61277759E-01  1.87311370E+01  2.82539436E+00
  6.40121692E-01  1.61277759E-01  1.87311370E+01  2.82539436E+00  6.40121692E-01
  1.61277759E-01  1.87311370E+01  2.82539436E+00  6.40121692E-01  1.61277759E-01
  1.87311370E+01  2.82539436E+00  6.40121692E-01  1.61277759E-01  1.87311370E+01
  2.82539436E+00  6.40121692E-01  1.61277759E-01  1.87311370E+01  2.82539436E+00
  6.40121692E-01  1.61277759E-01  1.87311370E+01  2.82539436E+00  6.40121692E-01
  1.61277759E-01  1.87311370E+01  2.82539436E+00  6.40121692E-01  1.61277759E-01
Contraction coefficients                   R   N=         150
  1.86924085E-03  1.42303065E-02  6.96962317E-02  2.38487108E-01  4.83307220E-01
  3.38074154E-01 -2.37677050E-03 -3.16930067E-02 -1.13317024E-01  5.60900118E-02
  5.92255124E-01  4.55006095E-01 -2.50373114E-01  6.69567631E-02  1.05450627E+00
  1.00000000E+00  1.00000000E+00  1.83473713E-03  1.40373228E-02  6.88426223E-02
  2.32184443E-01  4.67941348E-01  3.62311985E-01 -1.19332420E-01 -1.60854152E-01
  1.14345644E+00  1.00000000E+00  1.00000000E+00  1.83473713E-03  1.40373228E-02
  6.88426223E-02  2.32184443E-01  4.67941348E-01  3.62311985E-01 -1.19332420E-01
 -1.60854152E-01  1.14345644E+00  1.00000000E+00  1.00000000E+00  1.83473713E-03
  1.40373228E-02  6.88426223E-02  2.32184443E-01  4.67941348E-01  3.62311985E-01
 -1.19332420E-01 -1.60854152E-01  1.14345644E+00  1.00000000E+00  1.00000000E+00
  1.83473713E-03  1.40373228E-02  6.88426223E-02  2.32184443E-01  4.67941348E-01
  3.62311985E-01 -1.19332420E-01 -1.60854152E-01  1.14345644E+00  1.00000000E+00
  1.00000000E+00  1.83473713E-03  1.40373228E-02  6.88426223E-02  2.32184443E-01
  4.67941348E-01  3.62311985E-01 -1.19332420E-01 -1.60854152E-01  1.14345644E+00
  1.00000000E+00  1.00000000E+00  1.83473713E-03  1.40373228E-02  6.88426223E-02
  2.32184443E-01  4.67941348E-01  3.62311985E-01 -1.19332420E-01 -1.60854152E-01
  1.14345644E+00  1.00000000E+00  1.00000000E+00  1.83473713E-03  1.40373228E-02
  6.88426223E-02  2.32184443E-01  4.67941348E-01  3.62311985E-01 -1.19332420E-01
 -1.60854152E-01  1.14345644E+00  1.00000000E+00  1.00000000E+00  3.34946043E-02
  2.34726953E-01  8.13757326E-01  1.00000000E+00  3.34946043E-02  2.34726953E-01
  8.13757326E-01  1.00000000E+00  3.34946043E-02  2.34726953E-01  8.13757326E-01
  1.00000000E+00  3.34946043E-02  2.34726953E-01  8.13757326E-01  1.00000000E+00
  3.34946043E-02  2.34726953E-01  8.13757326E-01  1.00000000E+00  3.34946043E-02
  2.34726953E-01  8.13757326E-01  1.00000000E+00  3.34946043E-02  2.34726953E-01
  8.13757326E-01  1.00000000E+00  3.34946043E-02  2.34726953E-01  8.13757326E-01
  1.00000000E+00  3.34946043E-02  2.34726953E-01  8.13757326E-01  1.00000000E+00
  3.34946043E-02  2.34726953E-01  8.13757326E-01  1.00000000E+00  3.34946043E-02
  2.34726953E-01  8.13757326E-01  1.00000000E+00  3.34946043E-02  2.34726953E-01
  8.13757326E-01  1.00000000E+00  3.34946043E-02  2.34726953E-01  8.13757326E-01
  1.00000000E+00  3.34946043E-02  2.34726953E-01  8.13757326E-01  1.00000000E+00
P(S=P) Contraction coefficients            R   N=         150
  0.00000000E+00  0.00000000E+00  0.00000000E+00  0.00000000E+00  0.00000000E+00
  0.00000000E+00  4.06100998E-03  3.06812999E-02  1.30451999E-01  3.27204999E-01
  4.52850998E-01  2.56041999E-01 -1.45104895E-02  3.10262776E-01  7.54482456E-01
  1.00000000E+00  0.00000000E+00  0.00000000E+00  0.00000000E+00  0.00000000E+00
  0.00000000E+00  0.00000000E+00  0.00000000E+00  6.89990666E-02  3.16423961E-01
  7.44308291E-01  1.00000000E+00  0.00000000E+00  0.00000000E+00  0.00000000E+00
  0.00000000E+00  0.00000000E+00  0.00000000E+00  0.00000000E+00  6.89990666E-02
  3.16423961E-01  7.44308291E-01  1.00000000E+00  0.00000000E+00  0.00000000E+00
  0.00000000E+00  0.00000000E+00  0.00000000E+00  0.00000000E+00  0.00000000E+00
  6.89990666E-02  3.16423961E-01  7.44308291E-01  1.00000000E+00  0.00000000E+00
  0.00000000E+00  0.00000000E+00  0.00000000E+00  0.00000000E+00  0.00000000E+00
  0.00000000E+00  6.89990666E-02  3.16423961E-01  7.44308291E-01  1.00000000E+00
  0.00000000E+00  0.00000000E+00  0.00000000E+00  0.00000000E+00  0.00000000E+00
  0.00000000E+00  0.00000000E+00  6.89990666E-02  3.16423961E-01  7.44308291E-01
  1.00000000E+00  0.00000000E+00  0.00000000E+00  0.00000000E+00  0.00000000E+00
  0.00000000E+00  0.00000000E+00  0.00000000E+00  6.89990666E-02  3.16423961E-01
  7.44308291E-01  1.00000000E+00  0.00000000E+00  0.00000000E+00  0.00000000E+00
  0.00000000E+00  0.00000000E+00  0.00000000E+00  0.00000000E+00  6.89990666E-02
  3.16423961E-01  7.44308291E-01  1.00000000E+00  0.00000000E+00  0.00000000E+00
  0.00000000E+00  0.00000000E+00  0.00000000E+00  0.00000000E+00  0.00000000E+00
  0.00000000E+00  0.00000000E+00  0.00000000E+00  0.00000000E+00  0.00000000E+00
  0.00000000E+00  0.00000000E+00  0.00000000E+00  0.00000000E+00  0.00000000E+00
  0.00000000E+00  0.00000000E+00  0.00000000E+00  0.00000000E+00  0.00000000E+00
  0.00000000E+00  0.00000000E+00  0.00000000E+00  0.00000000E+00  0.00000000E+00
  0.00000000E+00  0.00000000E+00  0.00000000E+00  0.00000000E+00  0.00000000E+00
  0.00000000E+00  0.00000000E+00  0.00000000E+00  0.00000000E+00  0.00000000E+00
  0.00000000E+00  0.00000000E+00  0.00000000E+00  0.00000000E+00  0.00000000E+00
  0.00000000E+00  0.00000000E+00  0.00000000E+00  0.00000000E+00  0.00000000E+00
  0.00000000E+00  0.00000000E+00  0.00000000E+00  0.00000000E+00  0.00000000E+00
  0.00000000E+00  0.00000000E+00  0.00000000E+00  0.00000000E+00  0.00000000E+00
Coordinates of each shell                  R   N=         183
  1.89726908E+00 -3.47148884E+00  7.86785049E-02  1.89726908E+00 -3.47148884E+00
  7.86785049E-02  1.89726908E+00 -3.47148884E+00  7.86785049E-02  1.89726908E+00
 -3.47148884E+00  7.86785049E-02  1.89726908E+00 -3.47148884E+00  7.86785049E-02
 -1.10441643E+00 -2.73871435E-02 -4.42649874E-01 -1.10441643E+00 -2.73871435E-02
 -4.42649874E-01 -1.10441643E+00 -2.73871435E-02 -4.42649874E-01 -1.10441643E+00
 -2.73871435E-02 -4.42649874E-01  1.57695390E+00 -5.10773204E-02  7.10054808E-01
  1.57695390E+00 -5.10773204E-02  7.10054808E-01  1.57695390E+00 -5.10773204E-02
  7.10054808E-01  1.57695390E+00 -5.10773204E-02  7.10054808E-01 -1.51047027E+00
 -2.90422279E+00 -2.65180947E-01 -1.51047027E+00 -2.90422279E+00 -2.65180947E-01
 -1.51047027E+00 -2.90422279E+00 -2.65180947E-01 -1.51047027E+00 -2.90422279E+00
 -2.65180947E-01 -3.09725644E+00  1.59598206E+00  8.46299872E-01 -3.09725644E+00
  1.59598206E+00  8.46299872E-01 -3.09725644E+00  1.59598206E+00  8.46299872E-01
 -3.09725644E+00  1.59598206E+00  8.46299872E-01  3.58387554E+00  1.61832786E+00
 -4.74571447E-01  3.58387554E+00  1.61832786E+00 -4.74571447E-01  3.58387554E+00
  1.61832786E+00 -4.74571447E-01  3.58387554E+00  1.61832786E+00 -4.74571447E-01
 -5.69549443E+00  1.31852536E+00 -3.79549027E-01 -5.69549443E+00  1.31852536E+00
 -3.79549027E-01 -5.69549443E+00  1.31852536E+00 -3.79549027E-01 -5.69549443E+00
  1.31852536E+00 -3.79549027E-01  3.06086667E+00  4.43154245E+00 -8.62614247E-02
  3.06086667E+00  4.43154245E+00 -8.62614247E-02  3.06086667E+00  4.43154245E+00
 -8.62614247E-02  3.06086667E+00  4.43154245E+00 -8.62614247E-02 -9.42813111E-01
  5.05111469E-01 -2.44413353E+00 -9.42813111E-01  5.05111469E-01 -2.44413353E+00
  1.49225174E+00  2.66235661E-01  2.75916670E+00  1.49225174E+00  2.66235661E-01
  2.75916670E+00 -2.53697960E+00 -3.44789198E+00  1.44667660E+00 -2.53697960E+00
 -3.44789198E+00  1.44667660E+00 -2.36655096E+00 -3.82496000E+00 -1.90196788E+00
 -2.36655096E+00 -3.82496000E+00 -1.90196788E+00 -2.51120792E+00  3.58277857E+00
  8.06978176E-01 -2.51120792E+00  3.58277857E+00  8.06978176E-01 -3.20152018E+00
  1.05213662E+00  2.84594169E+00 -3.20152018E+00  1.05213662E+00  2.84594169E+00
  5.42914690E+00  1.13072786E+00  3.36241026E-01  5.42914690E+00  1.13072786E+00
  3.36241026E-01  3.69225251E+00  1.18284694E+00 -2.49673507E+00  3.69225251E+00
  1.18284694E+00 -2.49673507E+00 -5.63203153E+00  1.87619219E+00 -2.37022185E+00
 -5.63203153E+00  1.87619219E+00 -2.37022185E+00 -7.10109186E+00  2.50105335E+00
  5.68122577E-01 -7.10109186E+00  2.50105335E+00  5.68122577E-01 -6.35540110E+00
 -6.39099485E-01 -2.89288074E-01 -6.35540110E+00 -6.39099485E-01 -2.89288074E-01
  1.31476449E+00  5.00527201E+00 -1.03081557E+00  1.31476449E+00  5.00527201E+00
 -1.03081557E+00  4.59736522E+00  5.57713768E+00 -8.61132877E-01  4.59736522E+00
  5.57713768E+00 -8.61132877E-01  2.88115896E+00  4.88613768E+00  1.92346024E+00
  2.88115896E+00  4.88613768E+00  1.92346024E+00
Constraint Structure                       R   N=          66
  1.89726908E+00 -3.47148884E+00  7.86785049E-02 -1.10441643E+00 -2.73871435E-02
 -4.42649874E-01  1.57695390E+00 -5.10773204E-02  7.10054808E-01 -1.51047027E+00
 -2.90422279E+00 -2.65180947E-01 -3.09725644E+00  1.59598206E+00  8.46299872E-01
  3.58387554E+00  1.61832786E+00 -4.74571447E-01 -5.69549443E+00  1.31852536E+00
 -3.79549027E-01  3.06086667E+00  4.43154245E+00 -8.62614247E-02 -9.42813111E-01
  5.05111469E-01 -2.44413353E+00  1.49225174E+00  2.66235661E-01  2.75916670E+00
 -2.53697960E+00 -3.44789198E+00  1.44667660E+00 -2.36655096E+00 -3.82496000E+00
 -1.90196788E+00 -2.51120792E+00  3.58277857E+00  8.06978176E-01 -3.20152018E+00
  1.05213662E+00  2.84594169E+00  5.42914690E+00  1.13072786E+00  3.36241026E-01
  3.69225251E+00  1.18284694E+00 -2.49673507E+00 -5.63203153E+00  1.87619219E+00
 -2.37022185E+00 -7.10109186E+00  2.50105335E+00  5.68122577E-01 -6.35540110E+00
 -6.39099485E-01 -2.89288074E-01  1.31476449E+00  5.00527201E+00 -1.03081557E+00
  4.59736522E+00  5.57713768E+00 -8.61132877E-01  2.88115896E+00  4.88613768E+00
  1.92346024E+00
Num ILSW                                   I              100
ILSW                                       I   N=         100
           0           1           0           0           2           0
           0           0           0           0           0          -1
           0           0           0           0           0           0
           0           0           0           0           1           0
           1           0           0           0           0           0
           0           0      100000           0          -1           0
           0           0           0           0           0           0
           0           0           0           1           1           0
           0           0           1           0           0           0
           0           0           4          40           0           0
           0           0           0           0           0           0
           0           0           0           0           0           0
           0           0           0           0           0           0
           0           0           0           0           0           0
           0           0           0           0           0           0
           0           0           0           0           0           0
           0           0           0           0
Num RLSW                                   I               40
RLSW                                       R   N=          40
  1.00000000E+00  1.00000000E+00  1.00000000E+00  1.00000000E+00  1.00000000E+00
  0.00000000E+00  0.00000000E+00  1.00000000E+00  0.00000000E+00  0.00000000E+00
  0.00000000E+00  0.00000000E+00  1.00000000E+00  0.00000000E+00  0.00000000E+00
  0.00000000E+00  0.00000000E+00  1.00000000E+00  0.00000000E+00  0.00000000E+00
  0.00000000E+00  0.00000000E+00  1.00000000E+00  0.00000000E+00  0.00000000E+00
  0.00000000E+00  0.00000000E+00  1.00000000E+00  0.00000000E+00  0.00000000E+00
  0.00000000E+00  0.00000000E+00  0.00000000E+00  0.00000000E+00  0.00000000E+00
  0.00000000E+00  0.00000000E+00  0.00000000E+00  1.00000000E+00  1.00000000E+00
MxBond                                     I                4
NBond                                      I   N=          22
           2           4           4           4           4           4
           4           4           1           1           1           1
           1           1           1           1           1           1
           1           1           1           1
IBond                                      I   N=          88
           3           4           0           0           3           4
           5           9           1           2           6          10
           1           2          11          12           2           7
          13          14           3           8          15          16
           5          17          18          19           6          20
          21          22           2           0           0           0
           3           0           0           0           4           0
           0           0           4           0           0           0
           5           0           0           0           5           0
           0           0           6           0           0           0
           6           0           0           0           7           0
           0           0           7           0           0           0
           7           0           0           0           8           0
           0           0           8           0           0           0
           8           0           0           0
RBond                                      R   N=          88
  1.00000000E+00  1.00000000E+00  0.00000000E+00  0.00000000E+00  1.00000000E+00
  1.00000000E+00  1.00000000E+00  1.00000000E+00  1.00000000E+00  1.00000000E+00
  1.00000000E+00  1.00000000E+00  1.00000000E+00  1.00000000E+00  1.00000000E+00
  1.00000000E+00  1.00000000E+00  1.00000000E+00  1.00000000E+00  1.00000000E+00
  1.00000000E+00  1.00000000E+00  1.00000000E+00  1.00000000E+00  1.00000000E+00
  1.00000000E+00  1.00000000E+00  1.00000000E+00  1.00000000E+00  1.00000000E+00
  1.00000000E+00  1.00000000E+00  1.00000000E+00  0.00000000E+00  0.00000000E+00
  0.00000000E+00  1.00000000E+00  0.00000000E+00  0.00000000E+00  0.00000000E+00
  1.00000000E+00  0.00000000E+00  0.00000000E+00  0.00000000E+00  1.00000000E+00
  0.00000000E+00  0.00000000E+00  0.00000000E+00  1.00000000E+00  0.00000000E+00
  0.00000000E+00  0.00000000E+00  1.00000000E+00  0.00000000E+00  0.00000000E+00
  0.00000000E+00  1.00000000E+00  0.00000000E+00  0.00000000E+00  0.00000000E+00
  1.00000000E+00  0.00000000E+00  0.00000000E+00  0.00000000E+00  1.00000000E+00
  0.00000000E+00  0.00000000E+00  0.00000000E+00  1.00000000E+00  0.00000000E+00
  0.00000000E+00  0.00000000E+00  1.00000000E+00  0.00000000E+00  0.00000000E+00
  0.00000000E+00  1.00000000E+00  0.00000000E+00  0.00000000E+00  0.00000000E+00
  1.00000000E+00  0.00000000E+00  0.00000000E+00  0.00000000E+00  1.00000000E+00
  0.00000000E+00  0.00000000E+00  0.00000000E+00
Virial Ratio                               R      2.000617054214395E+00
SCF Energy                                 R     -6.707236676351153E+02
MP2 Energy                                 R     -6.717681054455685E+02
Total Energy                               R     -6.717681054455685E+02
Post-SCF wavefunction norm                 R      1.653925393801055E+00
RMS Force                                  R      2.269975057601114E-07
RMS Density                                R      1.946362386386149E-09
External E-field                           R   N=          35
  0.00000000E+00  0.00000000E+00  0.00000000E+00  0.00000000E+00  0.00000000E+00
  0.00000000E+00  0.00000000E+00  0.00000000E+00  0.00000000E+00  0.00000000E+00
  0.00000000E+00  0.00000000E+00  0.00000000E+00  0.00000000E+00  0.00000000E+00
  0.00000000E+00  0.00000000E+00  0.00000000E+00  0.00000000E+00  0.00000000E+00
  0.00000000E+00  0.00000000E+00  0.00000000E+00  0.00000000E+00  0.00000000E+00
  0.00000000E+00  0.00000000E+00  0.00000000E+00  0.00000000E+00  0.00000000E+00
  0.00000000E+00  0.00000000E+00  0.00000000E+00  0.00000000E+00  0.00000000E+00
IOpCl                                      I                0
IROHF                                      I                0
Alpha Orbital Energies                     R   N=         152
 -9.19210293E+01 -1.12576843E+01 -1.12531246E+01 -1.12401633E+01 -1.12280929E+01
 -1.12265681E+01 -1.12212629E+01 -1.12207103E+01 -8.93158830E+00 -6.61387175E+00
 -6.61345610E+00 -6.61089525E+00 -1.14930449E+00 -1.05129818E+00 -1.02727555E+00
 -9.18514772E-01 -9.09726504E-01 -8.32722398E-01 -8.06159079E-01 -7.47119130E-01
 -6.50488182E-01 -6.32670489E-01 -6.01643959E-01 -5.97637857E-01 -5.71290843E-01
 -5.56179033E-01 -5.40132454E-01 -5.30320675E-01 -5.18886004E-01 -5.02093958E-01
 -4.85184032E-01 -4.71833251E-01 -4.59128751E-01 -4.35828570E-01 -3.93794745E-01
 -3.28966707E-01  1.62318627E-01  2.08104225E-01  2.38183991E-01  2.50583159E-01
  2.57673682E-01  2.66475647E-01  2.88659583E-01  2.96027620E-01  3.08626540E-01
  3.09086319E-01  3.17875593E-01  3.20763099E-01  3.33176081E-01  3.41514615E-01
  3.57759160E-01  3.60976138E-01  3.95543788E-01  4.11499664E-01  4.13728653E-01
  4.28295356E-01  4.51135464E-01  4.81371106E-01  5.55311341E-01  5.79946732E-01
  5.99852308E-01  6.26935356E-01  6.84779192E-01  7.00969287E-01  7.19628508E-01
  7.31416547E-01  7.46489181E-01  7.66525045E-01  7.82557550E-01  8.14509963E-01
  8.49707071E-01  8.68088185E-01  8.81916153E-01  9.11055040E-01  9.18690304E-01
  9.56952162E-01  9.66178478E-01  1.02847775E+00  1.04499602E+00  1.05884277E+00
  1.06105653E+00  1.11875176E+00  1.12922051E+00  1.13717918E+00  1.14607783E+00
  1.14966056E+00  1.16358544E+00  1.16478499E+00  1.17441612E+00  1.17955290E+00
  1.18889360E+00  1.19848572E+00  1.22005683E+00  1.23325699E+00  1.24187166E+00
  1.24967407E+00  1.26991758E+00  1.28130726E+00  1.29500350E+00  1.31961706E+00
  1.33182608E+00  1.38246451E+00  1.40200534E+00  1.50028587E+00  1.53782644E+00
  1.66234224E+00  1.72323359E+00  1.75812965E+00  1.79713143E+00  1.85020376E+00
  1.88858564E+00  1.95229341E+00  1.99645953E+00  2.03696859E+00  2.07747146E+00
  2.11604484E+00  2.17993421E+00  2.20616173E+00  2.22835467E+00  2.24833370E+00
  2.27028020E+00  2.29934475E+00  2.31917279E+00  2.33376101E+00  2.35822080E+00
  2.41318360E+00  2.43936538E+00  2.49711393E+00  2.55369556E+00  2.57296485E+00