
    -----------------------------------------------------------------------
          Psi4: An Open-Source Ab Initio Electronic Structure Package
                               Psi4 1.3.2 release

                         Git: Rev {HEAD} ecbda83 


    R. M. Parrish, L. A. Burns, D. G. A. Smith, A. C. Simmonett,
    A. E. DePrince III, E. G. Hohenstein, U. Bozkaya, A. Yu. Sokolov,
    R. Di Remigio, R. M. Richard, J. F. Gonthier, A. M. James,
    H. R. McAlexander, A. Kumar, M. Saitow, X. Wang, B. P. Pritchard,
    P. Verma, H. F. Schaefer III, K. Patkowski, R. A. King, E. F. Valeev,
    F. A. Evangelista, J. M. Turney, T. D. Crawford, and C. D. Sherrill,
    J. Chem. Theory Comput. 13(7) pp 3185--3197 (2017).
    (doi: 10.1021/acs.jctc.7b00174)


                         Additional Contributions by
    P. Kraus, H. Kruse, M. H. Lechner, M. C. Schieber, R. A. Shaw,
    A. Alenaizan, R. Galvelis, Z. L. Glick, S. Lehtola, and J. P. Misiewicz

    -----------------------------------------------------------------------


    Psi4 started on: Friday, 06 November 2020 11:36AM

    Process ID: 92614
    Host:       node91.bme.utexas.edu
    PSIDATADIR: /home/xy3866/psi4conda/share/psi4
    Memory:     500.0 MiB
    Threads:    8
    
  ==> Input File <==

--------------------------------------------------------------------------
#psi4
#
memory 32 gb

molecule  {
0 1
  O        1.0716460     0.4753830     0.0137820
  O        2.5311320    -1.1057930    -0.7123110
  C       -2.3693550    -0.0883010     0.2982860
  C       -3.5980660     0.7810210     0.4066790
  C       -1.2626340     0.3942960    -0.2965320
  C        0.0082920    -0.3313460    -0.5624280
  C       -2.5132090    -1.4745150     0.8629900
  C       -4.7090750     0.3554230    -0.5595870
  C        3.3545870     0.8742710     0.4380940
  C        2.2756076    -0.0449903    -0.0781767
  C        4.7580620     0.3036620     0.3135630
  H       -3.3290990     1.8240090     0.2046860
  H       -3.9789780     0.7461160     1.4360390
  H       -1.2730680     1.4248330    -0.6509560
  H        0.2030610    -0.4353830    -1.6357720
  H        0.0474490    -1.3311670    -0.1253770
  H       -2.7951440    -1.4155820     1.9226690
  H       -3.3106690    -2.0257820     0.3507100
  H       -1.6004590    -2.0681310     0.7873000
  H       -5.0436390    -0.6667330    -0.3605950
  H       -4.3535760     0.4008270    -1.5926810
  H       -5.5777020     1.0147490    -0.4669260
  H        3.2685340     1.8407540    -0.0713220
  H        3.0417203     1.0290483     1.4754688
  H        4.8339620    -0.6514900     0.8358700
  H        5.0104170     0.1293290    -0.7342450
  H        5.4905370     0.9935700     0.7404870
units angstrom
no_reorient  #important for SAPT in psi4, default
symmetry c1  #important for SAPT in psi4, default
}

set PROPERTIES_ORIGIN ["COM"]
properties('MP2/aug-cc-pvtz', properties = ['dipole'])
--------------------------------------------------------------------------

  Memory set to  29.802 GiB by Python driver.
    SCF Algorithm Type (re)set to DF.

*** tstart() called on node91.bme.utexas.edu
*** at Fri Nov  6 11:36:11 2020

   => Loading Basis Set <=

    Name: AUG-CC-PVTZ
    Role: ORBITAL
    Keyword: BASIS
    atoms 1-2   entry O          line   327 file /home/xy3866/psi4conda/share/psi4/basis/aug-cc-pvtz.gbs 
    atoms 3-11  entry C          line   235 file /home/xy3866/psi4conda/share/psi4/basis/aug-cc-pvtz.gbs 
    atoms 12-27 entry H          line    36 file /home/xy3866/psi4conda/share/psi4/basis/aug-cc-pvtz.gbs 


         ---------------------------------------------------------
                                   SCF
               by Justin Turney, Rob Parrish, Andy Simmonett
                          and Daniel G. A. Smith
                              RHF Reference
                        8 Threads,  30517 MiB Core
         ---------------------------------------------------------

  ==> Geometry <==

    Molecular point group: c1
    Full point group: C1

    Geometry (in Angstrom), charge = 0, multiplicity = 1:

       Center              X                  Y                   Z               Mass       
    ------------   -----------------  -----------------  -----------------  -----------------
         O            1.074741834940     0.475599559739     0.008441986202    15.994914619570
         O            2.534227834940    -1.105576440261    -0.717651013798    15.994914619570
         C           -2.366259165060    -0.088084440261     0.292945986202    12.000000000000
         C           -3.594970165060     0.781237559739     0.401338986202    12.000000000000
         C           -1.259538165060     0.394512559739    -0.301872013798    12.000000000000
         C            0.011387834940    -0.331129440261    -0.567768013798    12.000000000000
         C           -2.510113165060    -1.474298440261     0.857649986202    12.000000000000
         C           -4.705979165060     0.355639559739    -0.564927013798    12.000000000000
         C            3.357682834940     0.874487559739     0.432753986202    12.000000000000
         C            2.278703434940    -0.044773740261    -0.083516713798    12.000000000000
         C            4.761157834940     0.303878559739     0.308222986202    12.000000000000
         H           -3.326003165060     1.824225559739     0.199345986202     1.007825032230
         H           -3.975882165060     0.746332559739     1.430698986202     1.007825032230
         H           -1.269972165060     1.425049559739    -0.656296013798     1.007825032230
         H            0.206156834940    -0.435166440261    -1.641112013798     1.007825032230
         H            0.050544834940    -1.330950440261    -0.130717013798     1.007825032230
         H           -2.792048165060    -1.415365440261     1.917328986202     1.007825032230
         H           -3.307573165060    -2.025565440261     0.345369986202     1.007825032230
         H           -1.597363165060    -2.067914440261     0.781959986202     1.007825032230
         H           -5.040543165060    -0.666516440261    -0.365935013798     1.007825032230
         H           -4.350480165060     0.401043559739    -1.598021013798     1.007825032230
         H           -5.574606165060     1.014965559739    -0.472266013798     1.007825032230
         H            3.271629834940     1.840970559739    -0.076662013798     1.007825032230
         H            3.044816134940     1.029264859739     1.470128786202     1.007825032230
         H            4.837057834940    -0.651273440261     0.830529986202     1.007825032230
         H            5.013512834940     0.129545559739    -0.739585013798     1.007825032230
         H            5.493632834940     0.993786559739     0.735146986202     1.007825032230

  Running in c1 symmetry.

  Rotational constants: A =      0.11514  B =      0.01164  C =      0.01126 [cm^-1]
  Rotational constants: A =   3451.69631  B =    348.99249  C =    337.61165 [MHz]
  Nuclear repulsion =  603.268088616337877

  Charge       = 0
  Multiplicity = 1
  Electrons    = 86
  Nalpha       = 43
  Nbeta        = 43

  ==> Algorithm <==

  SCF Algorithm Type is DF.
  DIIS enabled.
  MOM disabled.
  Fractional occupation disabled.
  Guess Type is SAD.
  Energy threshold   = 1.00e-10
  Density threshold  = 1.00e-10
  Integral threshold = 0.00e+00

  ==> Primary Basis <==

  Basis Set: AUG-CC-PVTZ
    Blend: AUG-CC-PVTZ
    Number of shells: 298
    Number of basis function: 874
    Number of Cartesian functions: 1005
    Spherical Harmonics?: true
    Max angular momentum: 3

   => Loading Basis Set <=

    Name: (AUG-CC-PVTZ AUX)
    Role: JKFIT
    Keyword: DF_BASIS_SCF
    atoms 1-2   entry O          line   286 file /home/xy3866/psi4conda/share/psi4/basis/aug-cc-pvtz-jkfit.gbs 
    atoms 3-11  entry C          line   162 file /home/xy3866/psi4conda/share/psi4/basis/aug-cc-pvtz-jkfit.gbs 
    atoms 12-27 entry H          line    70 file /home/xy3866/psi4conda/share/psi4/basis/aug-cc-pvtz-jkfit.gbs 

  ==> Pre-Iterations <==

   -------------------------------------------------------
    Irrep   Nso     Nmo     Nalpha   Nbeta   Ndocc  Nsocc
   -------------------------------------------------------
     A        874     874       0       0       0       0
   -------------------------------------------------------
    Total     874     874      43      43      43       0
   -------------------------------------------------------

  ==> Integral Setup <==

  DFHelper Memory: AOs need 9.135 GiB; user supplied 22.352 GiB. Using in-core AOs.

  ==> MemDFJK: Density-Fitted J/K Matrices <==

    J tasked:                   Yes
    K tasked:                   Yes
    wK tasked:                   No
    OpenMP threads:               8
    Memory [MiB]:             22888
    Algorithm:                 Disk
    Schwarz Cutoff:           1E-12
    Mask sparsity (%):      16.7292
    Fitting Condition:        1E-10

   => Auxiliary Basis Set <=

  Basis Set: (AUG-CC-PVTZ AUX)
    Blend: AUG-CC-PVTZ-JKFIT
    Number of shells: 554
    Number of basis function: 1880
    Number of Cartesian functions: 2321
    Spherical Harmonics?: true
    Max angular momentum: 4

  Minimum eigenvalue in the overlap matrix is 1.1780621376E-06.
  Using Symmetric Orthogonalization.

  SCF Guess: Superposition of Atomic Densities via on-the-fly atomic UHF.

  ==> Iterations <==

                           Total Energy        Delta E     RMS |[F,P]|

   @DF-RHF iter SAD:  -498.87129772961833   -4.98871e+02   0.00000e+00 
   @DF-RHF iter   1:  -499.59342627318767   -7.22129e-01   9.99305e-04 DIIS
   @DF-RHF iter   2:  -499.93000684745914   -3.36581e-01   5.44317e-04 DIIS
   @DF-RHF iter   3:  -500.02175068005829   -9.17438e-02   1.29686e-04 DIIS
   @DF-RHF iter   4:  -500.02883503872278   -7.08436e-03   5.69059e-05 DIIS
   @DF-RHF iter   5:  -500.03023173124063   -1.39669e-03   9.47308e-06 DIIS
   @DF-RHF iter   6:  -500.03029404180495   -6.23106e-05   4.25321e-06 DIIS
   @DF-RHF iter   7:  -500.03030493386092   -1.08921e-05   1.39058e-06 DIIS
   @DF-RHF iter   8:  -500.03030694332818   -2.00947e-06   6.47003e-07 DIIS
   @DF-RHF iter   9:  -500.03030741360720   -4.70279e-07   2.17043e-07 DIIS
   @DF-RHF iter  10:  -500.03030747480449   -6.11973e-08   6.00989e-08 DIIS
   @DF-RHF iter  11:  -500.03030747872435   -3.91987e-09   1.61302e-08 DIIS
   @DF-RHF iter  12:  -500.03030747892512   -2.00771e-10   6.99964e-09 DIIS
   @DF-RHF iter  13:  -500.03030747894996   -2.48406e-11   1.93651e-09 DIIS
   @DF-RHF iter  14:  -500.03030747895593   -5.96856e-12   7.22951e-10 DIIS
   @DF-RHF iter  15:  -500.03030747895338    2.55795e-12   2.43642e-10 DIIS
   @DF-RHF iter  16:  -500.03030747895480   -1.42109e-12   9.62599e-11 DIIS
  Energy and wave function converged.


  ==> Post-Iterations <==

    Orbital Energies [Eh]
    ---------------------

    Doubly Occupied:                                                      

       1A    -20.607325     2A    -20.530327     3A    -11.376315  
       4A    -11.291276     5A    -11.247054     6A    -11.242083  
       7A    -11.230223     8A    -11.228344     9A    -11.225733  
      10A    -11.220643    11A    -11.217191    12A     -1.459749  
      13A     -1.325475    14A     -1.115467    15A     -1.064181  
      16A     -1.025185    17A     -0.981760    18A     -0.923536  
      19A     -0.881092    20A     -0.836628    21A     -0.774447  
      22A     -0.723643    23A     -0.687178    24A     -0.681165  
      25A     -0.659683    26A     -0.639829    27A     -0.624191  
      28A     -0.607336    29A     -0.585951    30A     -0.575636  
      31A     -0.554293    32A     -0.546091    33A     -0.533269  
      34A     -0.524795    35A     -0.517052    36A     -0.514149  
      37A     -0.509738    38A     -0.490349    39A     -0.485416  
      40A     -0.467763    41A     -0.449619    42A     -0.437022  
      43A     -0.348981  

    Virtual:                                                              

      44A      0.026279    45A      0.030368    46A      0.033168  
      47A      0.036022    48A      0.040798    49A      0.046390  
      50A      0.048431    51A      0.053958    52A      0.056838  
      53A      0.058837    54A      0.061494    55A      0.067149  
      56A      0.072104    57A      0.079709    58A      0.082656  
      59A      0.091190    60A      0.097609    61A      0.101043  
      62A      0.111911    63A      0.114332    64A      0.115542  
      65A      0.117617    66A      0.122042    67A      0.124583  
      68A      0.126432    69A      0.130571    70A      0.131744  
      71A      0.134100    72A      0.139171    73A      0.143925  
      74A      0.146342    75A      0.146980    76A      0.153721  
      77A      0.155049    78A      0.159055    79A      0.162588  
      80A      0.166379    81A      0.172878    82A      0.175577  
      83A      0.178855    84A      0.182610    85A      0.186014  
      86A      0.189070    87A      0.192571    88A      0.196857  
      89A      0.205887    90A      0.209672    91A      0.216033  
      92A      0.223994    93A      0.230800    94A      0.232996  
      95A      0.239644    96A      0.242470    97A      0.253093  
      98A      0.254227    99A      0.259727   100A      0.261949  
     101A      0.268150   102A      0.269870   103A      0.273878  
     104A      0.277777   105A      0.285301   106A      0.287693  
     107A      0.288232   108A      0.291960   109A      0.296099  
     110A      0.304145   111A      0.306320   112A      0.314822  
     113A      0.316869   114A      0.322748   115A      0.327284  
     116A      0.330441   117A      0.331891   118A      0.336781  
     119A      0.340754   120A      0.341178   121A      0.348660  
     122A      0.351670   123A      0.355599   124A      0.359415  
     125A      0.362968   126A      0.366167   127A      0.367819  
     128A      0.370426   129A      0.373780   130A      0.379848  
     131A      0.381115   132A      0.383636   133A      0.386855  
     134A      0.392010   135A      0.396079   136A      0.400470  
     137A      0.401157   138A      0.404631   139A      0.408994  
     140A      0.410371   141A      0.414281   142A      0.420078  
     143A      0.426348   144A      0.428963   145A      0.432030  
     146A      0.434554   147A      0.435898   148A      0.442314  
     149A      0.444848   150A      0.448695   151A      0.451889  
     152A      0.456725   153A      0.458180   154A      0.461887  
     155A      0.462773   156A      0.466579   157A      0.472356  
     158A      0.473018   159A      0.477106   160A      0.478599  
     161A      0.485160   162A      0.488297   163A      0.493888  
     164A      0.499254   165A      0.501705   166A      0.505681  
     167A      0.505847   168A      0.512299   169A      0.514483  
     170A      0.516999   171A      0.519896   172A      0.521820  
     173A      0.527646   174A      0.532033   175A      0.533004  
     176A      0.536754   177A      0.540857   178A      0.543967  
     179A      0.547084   180A      0.549547   181A      0.556639  
     182A      0.562582   183A      0.564687   184A      0.570983  
     185A      0.572214   186A      0.574105   187A      0.582830  
     188A      0.588360   189A      0.592389   190A      0.595378  
     191A      0.599217   192A      0.600679   193A      0.610313  
     194A      0.614560   195A      0.616738   196A      0.620137  
     197A      0.624451   198A      0.631944   199A      0.634772  
     200A      0.636001   201A      0.640119   202A      0.644189  
     203A      0.653357   204A      0.663320   205A      0.668541  
     206A      0.675502   207A      0.681082   208A      0.684041  
     209A      0.691530   210A      0.692422   211A      0.702376  
     212A      0.707650   213A      0.711049   214A      0.720511  
     215A      0.732228   216A      0.737881   217A      0.741622  
     218A      0.752712   219A      0.759391   220A      0.760555  
     221A      0.768257   222A      0.775366   223A      0.784758  
     224A      0.792514   225A      0.800798   226A      0.803551  
     227A      0.807347   228A      0.814623   229A      0.816655  
     230A      0.828590   231A      0.832953   232A      0.838453  
     233A      0.841397   234A      0.842471   235A      0.849838  
     236A      0.855300   237A      0.859847   238A      0.861636  
     239A      0.866842   240A      0.872276   241A      0.874376  
     242A      0.877611   243A      0.879984   244A      0.885007  
     245A      0.887311   246A      0.892770   247A      0.896225  
     248A      0.904607   249A      0.906447   250A      0.912877  
     251A      0.914943   252A      0.919066   253A      0.922833  
     254A      0.926965   255A      0.934001   256A      0.937243  
     257A      0.944126   258A      0.949885   259A      0.950236  
     260A      0.955391   261A      0.960051   262A      0.965351  
     263A      0.968278   264A      0.969265   265A      0.972289  
     266A      0.976035   267A      0.980094   268A      0.984958  
     269A      0.992584   270A      0.997113   271A      0.999344  
     272A      1.003777   273A      1.008232   274A      1.019572  
     275A      1.023236   276A      1.026544   277A      1.030332  
     278A      1.038045   279A      1.044568   280A      1.049874  
     281A      1.050650   282A      1.053203   283A      1.058877  
     284A      1.061798   285A      1.064126   286A      1.067781  
     287A      1.078619   288A      1.084898   289A      1.084981  
     290A      1.088681   291A      1.096699   292A      1.097611  
     293A      1.104698   294A      1.107055   295A      1.110883  
     296A      1.115926   297A      1.118824   298A      1.124906  
     299A      1.128335   300A      1.131056   301A      1.139393  
     302A      1.143532   303A      1.148242   304A      1.159975  
     305A      1.165902   306A      1.169086   307A      1.175115  
     308A      1.177506   309A      1.187000   310A      1.190544  
     311A      1.195439   312A      1.199746   313A      1.204962  
     314A      1.207715   315A      1.211669   316A      1.218569  
     317A      1.220481   318A      1.223031   319A      1.228038  
     320A      1.236843   321A      1.241331   322A      1.242558  
     323A      1.248284   324A      1.255842   325A      1.257932  
     326A      1.263309   327A      1.268428   328A      1.275993  
     329A      1.281093   330A      1.283665   331A      1.293484  
     332A      1.297646   333A      1.303890   334A      1.309455  
     335A      1.316395   336A      1.320768   337A      1.324752  
     338A      1.329775   339A      1.347813   340A      1.351169  
     341A      1.356770   342A      1.362393   343A      1.363719  
     344A      1.371932   345A      1.377680   346A      1.387459  
     347A      1.392819   348A      1.398360   349A      1.406244  
     350A      1.413240   351A      1.421071   352A      1.427910  
     353A      1.434300   354A      1.440540   355A      1.443312  
     356A      1.449058   357A      1.457629   358A      1.462698  
     359A      1.465475   360A      1.475126   361A      1.481259  
     362A      1.488311   363A      1.495617   364A      1.504199  
     365A      1.504825   366A      1.512212   367A      1.523505  
     368A      1.530464   369A      1.533383   370A      1.545979  
     371A      1.553151   372A      1.560334   373A      1.561831  
     374A      1.564576   375A      1.575513   376A      1.583632  
     377A      1.587040   378A      1.593379   379A      1.601863  
     380A      1.608999   381A      1.612772   382A      1.619360  
     383A      1.625724   384A      1.635015   385A      1.639240  
     386A      1.643869   387A      1.652321   388A      1.656196  
     389A      1.659820   390A      1.669950   391A      1.677683  
     392A      1.681780   393A      1.682669   394A      1.690837  
     395A      1.691917   396A      1.696142   397A      1.705270  
     398A      1.706410   399A      1.712170   400A      1.713454  
     401A      1.716378   402A      1.717867   403A      1.728781  
     404A      1.732745   405A      1.738099   406A      1.741202  
     407A      1.752537   408A      1.756272   409A      1.759713  
     410A      1.769497   411A      1.775666   412A      1.777769  
     413A      1.785372   414A      1.794327   415A      1.798815  
     416A      1.804620   417A      1.811651   418A      1.818618  
     419A      1.819117   420A      1.827070   421A      1.836551  
     422A      1.838648   423A      1.851900   424A      1.855134  
     425A      1.857842   426A      1.870881   427A      1.872249  
     428A      1.884702   429A      1.886997   430A      1.889750  
     431A      1.903404   432A      1.906446   433A      1.906996  
     434A      1.919167   435A      1.919507   436A      1.925880  
     437A      1.933243   438A      1.938318   439A      1.953445  
     440A      1.957686   441A      1.964600   442A      1.971456  
     443A      1.979221   444A      1.986289   445A      1.988866  
     446A      1.991224   447A      2.002603   448A      2.008564  
     449A      2.027198   450A      2.028917   451A      2.033740  
     452A      2.041775   453A      2.046980   454A      2.050874  
     455A      2.053000   456A      2.061672   457A      2.081710  
     458A      2.096085   459A      2.098180   460A      2.102683  
     461A      2.109979   462A      2.118920   463A      2.128323  
     464A      2.134715   465A      2.149354   466A      2.157309  
     467A      2.164965   468A      2.177300   469A      2.185389  
     470A      2.190626   471A      2.195666   472A      2.209340  
     473A      2.218300   474A      2.224474   475A      2.226061  
     476A      2.237244   477A      2.246815   478A      2.252579  
     479A      2.258956   480A      2.265556   481A      2.274380  
     482A      2.280027   483A      2.281794   484A      2.289933  
     485A      2.292180   486A      2.298244   487A      2.309209  
     488A      2.322179   489A      2.331022   490A      2.339557  
     491A      2.356100   492A      2.363252   493A      2.368653  
     494A      2.385315   495A      2.394177   496A      2.409547  
     497A      2.412632   498A      2.417697   499A      2.425065  
     500A      2.431871   501A      2.438360   502A      2.448902  
     503A      2.451196   504A      2.467818   505A      2.470234  
     506A      2.485093   507A      2.498155   508A      2.513654  
     509A      2.519237   510A      2.540465   511A      2.563908  
     512A      2.572475   513A      2.577250   514A      2.584337  
     515A      2.603759   516A      2.614282   517A      2.642329  
     518A      2.644071   519A      2.665273   520A      2.677266  
     521A      2.682549   522A      2.698858   523A      2.709992  
     524A      2.723790   525A      2.733240   526A      2.741591  
     527A      2.750533   528A      2.773467   529A      2.803760  
     530A      2.808549   531A      2.840347   532A      2.859033  
     533A      2.868228   534A      2.889008   535A      2.921576  
     536A      2.939468   537A      2.952568   538A      2.977137  
     539A      2.990836   540A      3.009233   541A      3.026097  
     542A      3.046613   543A      3.096432   544A      3.113480  
     545A      3.130896   546A      3.154382   547A      3.165482  
     548A      3.196446   549A      3.227628   550A      3.231592  
     551A      3.263834   552A      3.297619   553A      3.312698  
     554A      3.330793   555A      3.342508   556A      3.358291  
     557A      3.377453   558A      3.394435   559A      3.410094  
     560A      3.421344   561A      3.433239   562A      3.441197  
     563A      3.448244   564A      3.461488   565A      3.465648  
     566A      3.489773   567A      3.501350   568A      3.509281  
     569A      3.512097   570A      3.526626   571A      3.536519  
     572A      3.544981   573A      3.558058   574A      3.562857  
     575A      3.563502   576A      3.573920   577A      3.580875  
     578A      3.590257   579A      3.612432   580A      3.612865  
     581A      3.621566   582A      3.631761   583A      3.643753  
     584A      3.660286   585A      3.664139   586A      3.672751  
     587A      3.675079   588A      3.676530   589A      3.691629  
     590A      3.698870   591A      3.704965   592A      3.720758  
     593A      3.723719   594A      3.728194   595A      3.735161  
     596A      3.740410   597A      3.753852   598A      3.761477  
     599A      3.770677   600A      3.783397   601A      3.783933  
     602A      3.796993   603A      3.808406   604A      3.810229  
     605A      3.818221   606A      3.829661   607A      3.831569  
     608A      3.842715   609A      3.848167   610A      3.857152  
     611A      3.860005   612A      3.865513   613A      3.879566  
     614A      3.880752   615A      3.895793   616A      3.898130  
     617A      3.915207   618A      3.920299   619A      3.928080  
     620A      3.936641   621A      3.946344   622A      3.954003  
     623A      3.960691   624A      3.968238   625A      3.972127  
     626A      3.973729   627A      3.983142   628A      3.988509  
     629A      3.994750   630A      4.003072   631A      4.009445  
     632A      4.015191   633A      4.022917   634A      4.024405  
     635A      4.039526   636A      4.052939   637A      4.059159  
     638A      4.063001   639A      4.070378   640A      4.089592  
     641A      4.101839   642A      4.109243   643A      4.111439  
     644A      4.121918   645A      4.132384   646A      4.138922  
     647A      4.157919   648A      4.163551   649A      4.173890  
     650A      4.180331   651A      4.184911   652A      4.195847  
     653A      4.201610   654A      4.208244   655A      4.222267  
     656A      4.226121   657A      4.232949   658A      4.245885  
     659A      4.248177   660A      4.254318   661A      4.260841  
     662A      4.273232   663A      4.276896   664A      4.280784  
     665A      4.292733   666A      4.304279   667A      4.316896  
     668A      4.332665   669A      4.342136   670A      4.347597  
     671A      4.349032   672A      4.364529   673A      4.365890  
     674A      4.371713   675A      4.406951   676A      4.412331  
     677A      4.417517   678A      4.441443   679A      4.444931  
     680A      4.458643   681A      4.465913   682A      4.479823  
     683A      4.495788   684A      4.506723   685A      4.511850  
     686A      4.523164   687A      4.527873   688A      4.539847  
     689A      4.551773   690A      4.560429   691A      4.565636  
     692A      4.582613   693A      4.591113   694A      4.605918  
     695A      4.619055   696A      4.630519   697A      4.645474  
     698A      4.650457   699A      4.656132   700A      4.671890  
     701A      4.691004   702A      4.701456   703A      4.715186  
     704A      4.724622   705A      4.736591   706A      4.738839  
     707A      4.755524   708A      4.768543   709A      4.778815  
     710A      4.781142   711A      4.803577   712A      4.820951  
     713A      4.833053   714A      4.848090   715A      4.850729  
     716A      4.853459   717A      4.859906   718A      4.869932  
     719A      4.877486   720A      4.880927   721A      4.894072  
     722A      4.906273   723A      4.914722   724A      4.924457  
     725A      4.933280   726A      4.940271   727A      4.947148  
     728A      4.956816   729A      4.980037   730A      4.986298  
     731A      5.003694   732A      5.009327   733A      5.022774  
     734A      5.042891   735A      5.048590   736A      5.058671  
     737A      5.075773   738A      5.083757   739A      5.097413  
     740A      5.113061   741A      5.117621   742A      5.136731  
     743A      5.150224   744A      5.157625   745A      5.165555  
     746A      5.179482   747A      5.198156   748A      5.200227  
     749A      5.211974   750A      5.225086   751A      5.227241  
     752A      5.232355   753A      5.244331   754A      5.252322  
     755A      5.270224   756A      5.275681   757A      5.284904  
     758A      5.302087   759A      5.320873   760A      5.329231  
     761A      5.343844   762A      5.352786   763A      5.366508  
     764A      5.369093   765A      5.390377   766A      5.403418  
     767A      5.412849   768A      5.419967   769A      5.439760  
     770A      5.447088   771A      5.452137   772A      5.474139  
     773A      5.506068   774A      5.510204   775A      5.526706  
     776A      5.533278   777A      5.553803   778A      5.554980  
     779A      5.577543   780A      5.583799   781A      5.595608  
     782A      5.604246   783A      5.620329   784A      5.630534  
     785A      5.636963   786A      5.642599   787A      5.661872  
     788A      5.678624   789A      5.690302   790A      5.711090  
     791A      5.723334   792A      5.746642   793A      5.758302  
     794A      5.773057   795A      5.783901   796A      5.803239  
     797A      5.840496   798A      5.854294   799A      5.882406  
     800A      5.890130   801A      5.919496   802A      5.951827  
     803A      5.995398   804A      6.016713   805A      6.038574  
     806A      6.049411   807A      6.058769   808A      6.091870  
     809A      6.108696   810A      6.157279   811A      6.181211  
     812A      6.195440   813A      6.206669   814A      6.209541  
     815A      6.232762   816A      6.237759   817A      6.249972  
     818A      6.255254   819A      6.273181   820A      6.290051  
     821A      6.345503   822A      6.380283   823A      6.401045  
     824A      6.458922   825A      6.496484   826A      6.532109  
     827A      6.564708   828A      6.630646   829A      6.705411  
     830A      6.738786   831A      6.785470   832A      6.796332  
     833A      6.800563   834A      6.813457   835A      6.845458  
     836A      6.867718   837A      6.877071   838A      6.891461  
     839A      6.925938   840A      6.946762   841A      6.957516  
     842A      6.988200   843A      6.998615   844A      7.074952  
     845A      7.115629   846A      7.173973   847A      7.259043  
     848A      7.279779   849A      7.319961   850A      7.426809  
     851A      7.461247   852A      7.489892   853A      7.566682  
     854A      7.669746   855A      7.703132   856A      7.744770  
     857A      7.860435   858A      7.877428   859A      7.953005  
     860A      8.006745   861A      8.122182   862A      8.325670  
     863A      8.591885   864A     14.866834   865A     15.776377  
     866A     17.268345   867A     17.519202   868A     17.562181  
     869A     18.040365   870A     18.386610   871A     18.700880  
     872A     20.044409   873A     20.558399   874A     20.776942  

    Final Occupation by Irrep:
              A 
    DOCC [    43 ]

  @DF-RHF Final Energy:  -500.03030747895480

   => Energetics <=

    Nuclear Repulsion Energy =            603.2680886163378773
    One-Electron Energy =               -1876.6624258241899952
    Two-Electron Energy =                 773.3640297288972079
    Total Energy =                       -500.0303074789547964

Computation Completed

*** tstop() called on node91.bme.utexas.edu at Fri Nov  6 11:39:56 2020
Module time:
	user time   =     624.66 seconds =      10.41 minutes
	system time =      70.03 seconds =       1.17 minutes
	total time  =        225 seconds =       3.75 minutes
Total time:
	user time   =     624.66 seconds =      10.41 minutes
	system time =      70.03 seconds =       1.17 minutes
	total time  =        225 seconds =       3.75 minutes
   => Loading Basis Set <=

    Name: (AUG-CC-PVTZ AUX)
    Role: RIFIT
    Keyword: DF_BASIS_MP2
    atoms 1-2   entry O          line   264 file /home/xy3866/psi4conda/share/psi4/basis/aug-cc-pvtz-ri.gbs 
    atoms 3-11  entry C          line   148 file /home/xy3866/psi4conda/share/psi4/basis/aug-cc-pvtz-ri.gbs 
    atoms 12-27 entry H          line    30 file /home/xy3866/psi4conda/share/psi4/basis/aug-cc-pvtz-ri.gbs 


*** tstart() called on node91.bme.utexas.edu
*** at Fri Nov  6 11:39:56 2020


  //>>>>>>>>>>>>>>>>>>>>>>>>>>>>>>>>>>>//
  //               DFMP2               //
  //<<<<<<<<<<<<<<<<<<<<<<<<<<<<<<<<<<<//

	 --------------------------------------------------------
	                          DF-MP2                         
	      2nd-Order Density-Fitted Moller-Plesset Theory     
	              RMP2 Wavefunction,   8 Threads             
	                                                         
	        Rob Parrish, Justin Turney, Andy Simmonett,      
	           Ed Hohenstein, and C. David Sherrill          
	 --------------------------------------------------------

   => Auxiliary Basis Set <=

  Basis Set: (AUG-CC-PVTZ AUX)
    Blend: AUG-CC-PVTZ-RI
    Number of shells: 532
    Number of basis function: 1902
    Number of Cartesian functions: 2376
    Spherical Harmonics?: true
    Max angular momentum: 4

	 --------------------------------------------------------
	                 NBF =   874, NAUX =  1902
	 --------------------------------------------------------
	   CLASS    FOCC     OCC    AOCC    AVIR     VIR    FVIR
	   PAIRS       0      43      43     831     831       0
	 --------------------------------------------------------

  DFHelper Memory: AOs need 9.135 GiB; user supplied 22.352 GiB. Using in-core AOs.


         ------------------------------------------------------------
                                     CPHF                           
                                  Rob Parrish                       
         ------------------------------------------------------------

  ==> Geometry <==

    Molecular point group: c1
    Full point group: C1

    Geometry (in Angstrom), charge = 0, multiplicity = 1:

       Center              X                  Y                   Z               Mass       
    ------------   -----------------  -----------------  -----------------  -----------------
         O            1.074741834940     0.475599559739     0.008441986202    15.994914619570
         O            2.534227834940    -1.105576440261    -0.717651013798    15.994914619570
         C           -2.366259165060    -0.088084440261     0.292945986202    12.000000000000
         C           -3.594970165060     0.781237559739     0.401338986202    12.000000000000
         C           -1.259538165060     0.394512559739    -0.301872013798    12.000000000000
         C            0.011387834940    -0.331129440261    -0.567768013798    12.000000000000
         C           -2.510113165060    -1.474298440261     0.857649986202    12.000000000000
         C           -4.705979165060     0.355639559739    -0.564927013798    12.000000000000
         C            3.357682834940     0.874487559739     0.432753986202    12.000000000000
         C            2.278703434940    -0.044773740261    -0.083516713798    12.000000000000
         C            4.761157834940     0.303878559739     0.308222986202    12.000000000000
         H           -3.326003165060     1.824225559739     0.199345986202     1.007825032230
         H           -3.975882165060     0.746332559739     1.430698986202     1.007825032230
         H           -1.269972165060     1.425049559739    -0.656296013798     1.007825032230
         H            0.206156834940    -0.435166440261    -1.641112013798     1.007825032230
         H            0.050544834940    -1.330950440261    -0.130717013798     1.007825032230
         H           -2.792048165060    -1.415365440261     1.917328986202     1.007825032230
         H           -3.307573165060    -2.025565440261     0.345369986202     1.007825032230
         H           -1.597363165060    -2.067914440261     0.781959986202     1.007825032230
         H           -5.040543165060    -0.666516440261    -0.365935013798     1.007825032230
         H           -4.350480165060     0.401043559739    -1.598021013798     1.007825032230
         H           -5.574606165060     1.014965559739    -0.472266013798     1.007825032230
         H            3.271629834940     1.840970559739    -0.076662013798     1.007825032230
         H            3.044816134940     1.029264859739     1.470128786202     1.007825032230
         H            4.837057834940    -0.651273440261     0.830529986202     1.007825032230
         H            5.013512834940     0.129545559739    -0.739585013798     1.007825032230
         H            5.493632834940     0.993786559739     0.735146986202     1.007825032230

  Nuclear repulsion =  603.268088616337877
  Reference energy  = -500.030307478954796

  ==> Basis Set <==

  Basis Set: AUG-CC-PVTZ
    Blend: AUG-CC-PVTZ
    Number of shells: 298
    Number of basis function: 874
    Number of Cartesian functions: 1005
    Spherical Harmonics?: true
    Max angular momentum: 3

  ==> CGRSolver (by Rob Parrish) <==

   Number of roots    =         1
   Preconditioning    =    JACOBI
   Convergence cutoff =     1E-06
   Maximum iterations =       100

  ==> CPHFRHamiltonian (by Rob Parrish) <== 

  ==> MemDFJK: Density-Fitted J/K Matrices <==

    J tasked:                   Yes
    K tasked:                   Yes
    wK tasked:                   No
    OpenMP threads:               8
    Memory [MiB]:             22888
    Algorithm:                 Disk
    Schwarz Cutoff:           1E-12
    Mask sparsity (%):      16.7292
    Fitting Condition:        1E-10

   => Auxiliary Basis Set <=

  Basis Set: (AUG-CC-PVTZ AUX)
    Blend: AUG-CC-PVTZ-JKFIT
    Number of shells: 554
    Number of basis function: 1880
    Number of Cartesian functions: 2321
    Spherical Harmonics?: true
    Max angular momentum: 4

  ==> CPHF Iterations <==

  => Iterations <=

             Iter  Converged  Remaining    Residual
  CGR           1          0          1   1.099E-01
  CGR           2          0          1   3.217E-02
  CGR           3          0          1   1.197E-02
  CGR           4          0          1   4.599E-03
  CGR           5          0          1   1.839E-03
  CGR           6          0          1   6.137E-04
  CGR           7          0          1   2.250E-04
  CGR           8          0          1   8.984E-05
  CGR           9          0          1   3.202E-05
  CGR          10          0          1   1.093E-05
  CGR          11          0          1   4.175E-06
  CGR          12          0          1   1.643E-06
  CGR          13          1          0   5.568E-07

    CGRSolver converged.

	-----------------------------------------------------------
	 ==================> DF-MP2 Energies <==================== 
	-----------------------------------------------------------
	 Reference Energy          =    -500.0303074789547964 [Eh]
	 Singles Energy            =      -0.0000000000000000 [Eh]
	 Same-Spin Energy          =      -0.5103773127798830 [Eh]
	 Opposite-Spin Energy      =      -1.7179613323982643 [Eh]
	 Correlation Energy        =      -2.2283386451781473 [Eh]
	 Total Energy              =    -502.2586461241329516 [Eh]
	-----------------------------------------------------------
	 ================> DF-SCS-MP2 Energies <================== 
	-----------------------------------------------------------
	 SCS Same-Spin Scale       =       0.3333333333333333 [-]
	 SCS Opposite-Spin Scale   =       1.2000000000000000 [-]
	 SCS Same-Spin Energy      =      -0.1701257709266276 [Eh]
	 SCS Opposite-Spin Energy  =      -2.0615535988779170 [Eh]
	 SCS Correlation Energy    =      -2.2316793698045445 [Eh]
	 SCS Total Energy          =    -502.2619868487593635 [Eh]
	-----------------------------------------------------------



Properties will be evaluated at   0.000000,  -0.000000,  -0.000000 [a0]

Properties computed using the MP2 density matrix

  Nuclear Dipole Moment: [e a0]
     X:    -8.7172      Y:     0.7586      Z:     1.8996

  Electronic Dipole Moment: [e a0]
     X:     7.9895      Y:    -0.2399      Z:    -1.5288

  Dipole Moment: [e a0]
     X:    -0.7277      Y:     0.5187      Z:     0.3707     Total:     0.9675

  Dipole Moment: [D]
     X:    -1.8497      Y:     1.3184      Z:     0.9423     Total:     2.4591


*** tstop() called on node91.bme.utexas.edu at Fri Nov  6 11:49:15 2020
Module time:
	user time   =    2372.42 seconds =      39.54 minutes
	system time =     100.95 seconds =       1.68 minutes
	total time  =        559 seconds =       9.32 minutes
Total time:
	user time   =    2998.26 seconds =      49.97 minutes
	system time =     171.01 seconds =       2.85 minutes
	total time  =        784 seconds =      13.07 minutes

    Psi4 stopped on: Friday, 06 November 2020 11:49AM
    Psi4 wall time for execution: 0:13:03.87

*** Psi4 exiting successfully. Buy a developer a beer!
