
    -----------------------------------------------------------------------
          Psi4: An Open-Source Ab Initio Electronic Structure Package
                               Psi4 1.3.2 release

                         Git: Rev {HEAD} ecbda83 


    R. M. Parrish, L. A. Burns, D. G. A. Smith, A. C. Simmonett,
    A. E. DePrince III, E. G. Hohenstein, U. Bozkaya, A. Yu. Sokolov,
    R. Di Remigio, R. M. Richard, J. F. Gonthier, A. M. James,
    H. R. McAlexander, A. Kumar, M. Saitow, X. Wang, B. P. Pritchard,
    P. Verma, H. F. Schaefer III, K. Patkowski, R. A. King, E. F. Valeev,
    F. A. Evangelista, J. M. Turney, T. D. Crawford, and C. D. Sherrill,
    J. Chem. Theory Comput. 13(7) pp 3185--3197 (2017).
    (doi: 10.1021/acs.jctc.7b00174)


                         Additional Contributions by
    P. Kraus, H. Kruse, M. H. Lechner, M. C. Schieber, R. A. Shaw,
    A. Alenaizan, R. Galvelis, Z. L. Glick, S. Lehtola, and J. P. Misiewicz

    -----------------------------------------------------------------------


    Psi4 started on: Thursday, 05 November 2020 08:29PM

    Process ID: 61248
    Host:       node91.bme.utexas.edu
    PSIDATADIR: /home/xy3866/psi4conda/share/psi4
    Memory:     500.0 MiB
    Threads:    8
    
  ==> Input File <==

--------------------------------------------------------------------------
#psi4
#
memory 32 gb

molecule  {
0 1
  O        1.0716460     0.4753830     0.0137820
  O        2.5311320    -1.1057930    -0.7123110
  C       -2.3693550    -0.0883010     0.2982860
  C       -3.5980660     0.7810210     0.4066790
  C       -1.2316636     0.3320124    -0.2852674
  C        0.0082920    -0.3313460    -0.5624280
  C       -2.4391995    -1.4891299     0.8404797
  C       -4.7090750     0.3554230    -0.5595870
  C        3.3545870     0.8742710     0.4380940
  C        2.3120420    -0.0450080    -0.1482500
  C        4.7580620     0.3036620     0.3135630
  H       -3.3290990     1.8240090     0.2046860
  H       -3.9789780     0.7461160     1.4360390
  H       -1.2730680     1.4248330    -0.6509560
  H        0.2030610    -0.4353830    -1.6357720
  H        0.0474490    -1.3311670    -0.1253770
  H       -2.7951440    -1.4155820     1.9226690
  H       -3.3106690    -2.0257820     0.3507100
  H       -1.6004590    -2.0681310     0.7873000
  H       -5.0436390    -0.6667330    -0.3605950
  H       -4.3535760     0.4008270    -1.5926810
  H       -5.5777020     1.0147490    -0.4669260
  H        3.2685340     1.8407540    -0.0713220
  H        3.0874670     1.0628020     1.4826470
  H        4.8339620    -0.6514900     0.8358700
  H        5.0104170     0.1293290    -0.7342450
  H        5.4905370     0.9935700     0.7404870
units angstrom
no_reorient  #important for SAPT in psi4, default
symmetry c1  #important for SAPT in psi4, default
}

set PROPERTIES_ORIGIN ["COM"]
properties('MP2/aug-cc-pvtz', properties = ['dipole'])
--------------------------------------------------------------------------

  Memory set to  29.802 GiB by Python driver.
    SCF Algorithm Type (re)set to DF.

*** tstart() called on node91.bme.utexas.edu
*** at Thu Nov  5 20:29:21 2020

   => Loading Basis Set <=

    Name: AUG-CC-PVTZ
    Role: ORBITAL
    Keyword: BASIS
    atoms 1-2   entry O          line   327 file /home/xy3866/psi4conda/share/psi4/basis/aug-cc-pvtz.gbs 
    atoms 3-11  entry C          line   235 file /home/xy3866/psi4conda/share/psi4/basis/aug-cc-pvtz.gbs 
    atoms 12-27 entry H          line    36 file /home/xy3866/psi4conda/share/psi4/basis/aug-cc-pvtz.gbs 


         ---------------------------------------------------------
                                   SCF
               by Justin Turney, Rob Parrish, Andy Simmonett
                          and Daniel G. A. Smith
                              RHF Reference
                        8 Threads,  30517 MiB Core
         ---------------------------------------------------------

  ==> Geometry <==

    Molecular point group: c1
    Full point group: C1

    Geometry (in Angstrom), charge = 0, multiplicity = 1:

       Center              X                  Y                   Z               Mass       
    ------------   -----------------  -----------------  -----------------  -----------------
         O            1.063576502095     0.481293928677     0.014646344820    15.994914619570
         O            2.523062502095    -1.099882071323    -0.711446655180    15.994914619570
         C           -2.377424497905    -0.082390071323     0.299150344820    12.000000000000
         C           -3.606135497905     0.786931928677     0.407543344820    12.000000000000
         C           -1.239733097905     0.337923328677    -0.284403055180    12.000000000000
         C            0.000222502095    -0.325435071323    -0.561563655180    12.000000000000
         C           -2.447268997905    -1.483218971323     0.841344044820    12.000000000000
         C           -4.717144497905     0.361333928677    -0.558722655180    12.000000000000
         C            3.346517502095     0.880181928677     0.438958344820    12.000000000000
         C            2.303972502095    -0.039097071323    -0.147385655180    12.000000000000
         C            4.749992502095     0.309572928677     0.314427344820    12.000000000000
         H           -3.337168497905     1.829919928677     0.205550344820     1.007825032230
         H           -3.987047497905     0.752026928677     1.436903344820     1.007825032230
         H           -1.281137497905     1.430743928677    -0.650091655180     1.007825032230
         H            0.194991502095    -0.429472071323    -1.634907655180     1.007825032230
         H            0.039379502095    -1.325256071323    -0.124512655180     1.007825032230
         H           -2.803213497905    -1.409671071323     1.923533344820     1.007825032230
         H           -3.318738497905    -2.019871071323     0.351574344820     1.007825032230
         H           -1.608528497905    -2.062220071323     0.788164344820     1.007825032230
         H           -5.051708497905    -0.660822071323    -0.359730655180     1.007825032230
         H           -4.361645497905     0.406737928677    -1.591816655180     1.007825032230
         H           -5.585771497905     1.020659928677    -0.466061655180     1.007825032230
         H            3.260464502095     1.846664928677    -0.070457655180     1.007825032230
         H            3.079397502095     1.068712928677     1.483511344820     1.007825032230
         H            4.825892502095    -0.645579071323     0.836734344820     1.007825032230
         H            5.002347502095     0.135239928677    -0.733380655180     1.007825032230
         H            5.482467502095     0.999480928677     0.741351344820     1.007825032230

  Running in c1 symmetry.

  Rotational constants: A =      0.11537  B =      0.01167  C =      0.01128 [cm^-1]
  Rotational constants: A =   3458.60684  B =    349.81920  C =    338.27523 [MHz]
  Nuclear repulsion =  604.023809168960156

  Charge       = 0
  Multiplicity = 1
  Electrons    = 86
  Nalpha       = 43
  Nbeta        = 43

  ==> Algorithm <==

  SCF Algorithm Type is DF.
  DIIS enabled.
  MOM disabled.
  Fractional occupation disabled.
  Guess Type is SAD.
  Energy threshold   = 1.00e-10
  Density threshold  = 1.00e-10
  Integral threshold = 0.00e+00

  ==> Primary Basis <==

  Basis Set: AUG-CC-PVTZ
    Blend: AUG-CC-PVTZ
    Number of shells: 298
    Number of basis function: 874
    Number of Cartesian functions: 1005
    Spherical Harmonics?: true
    Max angular momentum: 3

   => Loading Basis Set <=

    Name: (AUG-CC-PVTZ AUX)
    Role: JKFIT
    Keyword: DF_BASIS_SCF
    atoms 1-2   entry O          line   286 file /home/xy3866/psi4conda/share/psi4/basis/aug-cc-pvtz-jkfit.gbs 
    atoms 3-11  entry C          line   162 file /home/xy3866/psi4conda/share/psi4/basis/aug-cc-pvtz-jkfit.gbs 
    atoms 12-27 entry H          line    70 file /home/xy3866/psi4conda/share/psi4/basis/aug-cc-pvtz-jkfit.gbs 

  ==> Pre-Iterations <==

   -------------------------------------------------------
    Irrep   Nso     Nmo     Nalpha   Nbeta   Ndocc  Nsocc
   -------------------------------------------------------
     A        874     874       0       0       0       0
   -------------------------------------------------------
    Total     874     874      43      43      43       0
   -------------------------------------------------------

  ==> Integral Setup <==

  DFHelper Memory: AOs need 9.136 GiB; user supplied 22.352 GiB. Using in-core AOs.

  ==> MemDFJK: Density-Fitted J/K Matrices <==

    J tasked:                   Yes
    K tasked:                   Yes
    wK tasked:                   No
    OpenMP threads:               8
    Memory [MiB]:             22888
    Algorithm:                 Disk
    Schwarz Cutoff:           1E-12
    Mask sparsity (%):      16.7216
    Fitting Condition:        1E-10

   => Auxiliary Basis Set <=

  Basis Set: (AUG-CC-PVTZ AUX)
    Blend: AUG-CC-PVTZ-JKFIT
    Number of shells: 554
    Number of basis function: 1880
    Number of Cartesian functions: 2321
    Spherical Harmonics?: true
    Max angular momentum: 4

  Minimum eigenvalue in the overlap matrix is 1.0683682265E-06.
  Using Symmetric Orthogonalization.

  SCF Guess: Superposition of Atomic Densities via on-the-fly atomic UHF.

  ==> Iterations <==

                           Total Energy        Delta E     RMS |[F,P]|

   @DF-RHF iter SAD:  -498.92379481295995   -4.98924e+02   0.00000e+00 
   @DF-RHF iter   1:  -499.58623920105947   -6.62444e-01   9.96510e-04 DIIS
   @DF-RHF iter   2:  -499.93011057831512   -3.43871e-01   5.21271e-04 DIIS
   @DF-RHF iter   3:  -500.01609999269607   -8.59894e-02   1.17955e-04 DIIS
   @DF-RHF iter   4:  -500.02249932278596   -6.39933e-03   5.55984e-05 DIIS
   @DF-RHF iter   5:  -500.02377414528416   -1.27482e-03   9.43408e-06 DIIS
   @DF-RHF iter   6:  -500.02383893419676   -6.47889e-05   4.27907e-06 DIIS
   @DF-RHF iter   7:  -500.02385038674674   -1.14525e-05   1.50564e-06 DIIS
   @DF-RHF iter   8:  -500.02385264720158   -2.26045e-06   6.59740e-07 DIIS
   @DF-RHF iter   9:  -500.02385312358052   -4.76379e-07   2.11582e-07 DIIS
   @DF-RHF iter  10:  -500.02385317352110   -4.99406e-08   5.33645e-08 DIIS
   @DF-RHF iter  11:  -500.02385317637993   -2.85883e-09   1.51123e-08 DIIS
   @DF-RHF iter  12:  -500.02385317654017   -1.60242e-10   4.79931e-09 DIIS
   @DF-RHF iter  13:  -500.02385317655740   -1.72236e-11   1.64665e-09 DIIS
   @DF-RHF iter  14:  -500.02385317656018   -2.78533e-12   5.88544e-10 DIIS
   @DF-RHF iter  15:  -500.02385317655779    2.38742e-12   2.43586e-10 DIIS
   @DF-RHF iter  16:  -500.02385317656058   -2.78533e-12   8.12791e-11 DIIS
  Energy and wave function converged.


  ==> Post-Iterations <==

    Orbital Energies [Eh]
    ---------------------

    Doubly Occupied:                                                      

       1A    -20.598126     2A    -20.541146     3A    -11.376085  
       4A    -11.285086     5A    -11.246319     6A    -11.242461  
       7A    -11.232953     8A    -11.226281     9A    -11.223773  
      10A    -11.220984    11A    -11.218055    12A     -1.449022  
      13A     -1.348401    14A     -1.115603    15A     -1.065063  
      16A     -1.028718    17A     -0.981317    18A     -0.916427  
      19A     -0.881989    20A     -0.834908    21A     -0.768486  
      22A     -0.721394    23A     -0.687809    24A     -0.684320  
      25A     -0.661398    26A     -0.640588    27A     -0.627567  
      28A     -0.604534    29A     -0.587078    30A     -0.573388  
      31A     -0.553950    32A     -0.546298    33A     -0.536027  
      34A     -0.521473    35A     -0.516936    36A     -0.512304  
      37A     -0.503951    38A     -0.492377    39A     -0.486717  
      40A     -0.468173    41A     -0.457538    42A     -0.444527  
      43A     -0.343452  

    Virtual:                                                              

      44A      0.026951    45A      0.030155    46A      0.033843  
      47A      0.036338    48A      0.041166    49A      0.046455  
      50A      0.047852    51A      0.054129    52A      0.057197  
      53A      0.059212    54A      0.061863    55A      0.066713  
      56A      0.072016    57A      0.079626    58A      0.082821  
      59A      0.090815    60A      0.098254    61A      0.101689  
      62A      0.111989    63A      0.114138    64A      0.116556  
      65A      0.119224    66A      0.122837    67A      0.124420  
      68A      0.126661    69A      0.131055    70A      0.132566  
      71A      0.134202    72A      0.140183    73A      0.143438  
      74A      0.145697    75A      0.146474    76A      0.154070  
      77A      0.156185    78A      0.159913    79A      0.161852  
      80A      0.167174    81A      0.172638    82A      0.176855  
      83A      0.180452    84A      0.183172    85A      0.185116  
      86A      0.189625    87A      0.192606    88A      0.198387  
      89A      0.205964    90A      0.210571    91A      0.215072  
      92A      0.224163    93A      0.230871    94A      0.231781  
      95A      0.239637    96A      0.242502    97A      0.253007  
      98A      0.256027    99A      0.259201   100A      0.264357  
     101A      0.268924   102A      0.273307   103A      0.275267  
     104A      0.277436   105A      0.283960   106A      0.285906  
     107A      0.288747   108A      0.291503   109A      0.295997  
     110A      0.303475   111A      0.306480   112A      0.315565  
     113A      0.317037   114A      0.323349   115A      0.328019  
     116A      0.330304   117A      0.331995   118A      0.335934  
     119A      0.341500   120A      0.341814   121A      0.347636  
     122A      0.351340   123A      0.354832   124A      0.359539  
     125A      0.360787   126A      0.365930   127A      0.368148  
     128A      0.369563   129A      0.374338   130A      0.380078  
     131A      0.381559   132A      0.384685   133A      0.387473  
     134A      0.393018   135A      0.395275   136A      0.399413  
     137A      0.401222   138A      0.404289   139A      0.408333  
     140A      0.411068   141A      0.414079   142A      0.419765  
     143A      0.425375   144A      0.429169   145A      0.433236  
     146A      0.435119   147A      0.437155   148A      0.441014  
     149A      0.445626   150A      0.448264   151A      0.452122  
     152A      0.457591   153A      0.457883   154A      0.459525  
     155A      0.467407   156A      0.468724   157A      0.471265  
     158A      0.474722   159A      0.477001   160A      0.480126  
     161A      0.485211   162A      0.488408   163A      0.495520  
     164A      0.497411   165A      0.503312   166A      0.503703  
     167A      0.505688   168A      0.512143   169A      0.514121  
     170A      0.515624   171A      0.519778   172A      0.522362  
     173A      0.529148   174A      0.531005   175A      0.534118  
     176A      0.537325   177A      0.543464   178A      0.544596  
     179A      0.546437   180A      0.549576   181A      0.558477  
     182A      0.562094   183A      0.565613   184A      0.571911  
     185A      0.572892   186A      0.573607   187A      0.583505  
     188A      0.587217   189A      0.592113   190A      0.596788  
     191A      0.600999   192A      0.602917   193A      0.607685  
     194A      0.611435   195A      0.617071   196A      0.621978  
     197A      0.624370   198A      0.628912   199A      0.632229  
     200A      0.637470   201A      0.641157   202A      0.641793  
     203A      0.651180   204A      0.663252   205A      0.671669  
     206A      0.678506   207A      0.680853   208A      0.685126  
     209A      0.691805   210A      0.694612   211A      0.700865  
     212A      0.710049   213A      0.714079   214A      0.723843  
     215A      0.735644   216A      0.738649   217A      0.745463  
     218A      0.750606   219A      0.760746   220A      0.764439  
     221A      0.772607   222A      0.781031   223A      0.788701  
     224A      0.797449   225A      0.799663   226A      0.807269  
     227A      0.811970   228A      0.813100   229A      0.819448  
     230A      0.828401   231A      0.835494   232A      0.838561  
     233A      0.839903   234A      0.841426   235A      0.850397  
     236A      0.851259   237A      0.859529   238A      0.865830  
     239A      0.867137   240A      0.869070   241A      0.873423  
     242A      0.877159   243A      0.881002   244A      0.885956  
     245A      0.889757   246A      0.895509   247A      0.898295  
     248A      0.907031   249A      0.909838   250A      0.913655  
     251A      0.915383   252A      0.921353   253A      0.926230  
     254A      0.928174   255A      0.934274   256A      0.938034  
     257A      0.945365   258A      0.946378   259A      0.954017  
     260A      0.956421   261A      0.960682   262A      0.963839  
     263A      0.966498   264A      0.967538   265A      0.971812  
     266A      0.978816   267A      0.983233   268A      0.986214  
     269A      0.990439   270A      0.997766   271A      0.999789  
     272A      1.007650   273A      1.009708   274A      1.019532  
     275A      1.024282   276A      1.024901   277A      1.027993  
     278A      1.039470   279A      1.042587   280A      1.046234  
     281A      1.047874   282A      1.052902   283A      1.059829  
     284A      1.061603   285A      1.065935   286A      1.071418  
     287A      1.078214   288A      1.083454   289A      1.087414  
     290A      1.090114   291A      1.099130   292A      1.103536  
     293A      1.106131   294A      1.109295   295A      1.113388  
     296A      1.115959   297A      1.119188   298A      1.125115  
     299A      1.127430   300A      1.129722   301A      1.137875  
     302A      1.145490   303A      1.150777   304A      1.161841  
     305A      1.165358   306A      1.168703   307A      1.178667  
     308A      1.181324   309A      1.188897   310A      1.193629  
     311A      1.197257   312A      1.199272   313A      1.204125  
     314A      1.206992   315A      1.210661   316A      1.217504  
     317A      1.221608   318A      1.226383   319A      1.226926  
     320A      1.235523   321A      1.239125   322A      1.241639  
     323A      1.248343   324A      1.252873   325A      1.260611  
     326A      1.264773   327A      1.274472   328A      1.277978  
     329A      1.279063   330A      1.286114   331A      1.293603  
     332A      1.298655   333A      1.304348   334A      1.310615  
     335A      1.318088   336A      1.320885   337A      1.324360  
     338A      1.330552   339A      1.348232   340A      1.348715  
     341A      1.359474   342A      1.363340   343A      1.369721  
     344A      1.374224   345A      1.375402   346A      1.383666  
     347A      1.392274   348A      1.400842   349A      1.406495  
     350A      1.414128   351A      1.418020   352A      1.422801  
     353A      1.434919   354A      1.438376   355A      1.445712  
     356A      1.448523   357A      1.461333   358A      1.462235  
     359A      1.468989   360A      1.473919   361A      1.478783  
     362A      1.487903   363A      1.493285   364A      1.504454  
     365A      1.506996   366A      1.515102   367A      1.521741  
     368A      1.526889   369A      1.536650   370A      1.545132  
     371A      1.549566   372A      1.559639   373A      1.562315  
     374A      1.569123   375A      1.575790   376A      1.584347  
     377A      1.585482   378A      1.594577   379A      1.600882  
     380A      1.606075   381A      1.613053   382A      1.624834  
     383A      1.625836   384A      1.633598   385A      1.640195  
     386A      1.644812   387A      1.648727   388A      1.654924  
     389A      1.659399   390A      1.670455   391A      1.679764  
     392A      1.682004   393A      1.685935   394A      1.690304  
     395A      1.694373   396A      1.697591   397A      1.701084  
     398A      1.707271   399A      1.707887   400A      1.715799  
     401A      1.718291   402A      1.723806   403A      1.726291  
     404A      1.737262   405A      1.740274   406A      1.746587  
     407A      1.754964   408A      1.757425   409A      1.761752  
     410A      1.769700   411A      1.774257   412A      1.782617  
     413A      1.785833   414A      1.797613   415A      1.801196  
     416A      1.803934   417A      1.812128   418A      1.817864  
     419A      1.823380   420A      1.830743   421A      1.839713  
     422A      1.840779   423A      1.849506   424A      1.857953  
     425A      1.858843   426A      1.868857   427A      1.874214  
     428A      1.882502   429A      1.888412   430A      1.889229  
     431A      1.897508   432A      1.900038   433A      1.906243  
     434A      1.915322   435A      1.922733   436A      1.927833  
     437A      1.934293   438A      1.938683   439A      1.948652  
     440A      1.960947   441A      1.962854   442A      1.971971  
     443A      1.979506   444A      1.986370   445A      1.989546  
     446A      1.990535   447A      2.001362   448A      2.006988  
     449A      2.025329   450A      2.027377   451A      2.032148  
     452A      2.039829   453A      2.042216   454A      2.047690  
     455A      2.050577   456A      2.061532   457A      2.081496  
     458A      2.091560   459A      2.103242   460A      2.107533  
     461A      2.110496   462A      2.120377   463A      2.132311  
     464A      2.142808   465A      2.145464   466A      2.158067  
     467A      2.164132   468A      2.178961   469A      2.185212  
     470A      2.192200   471A      2.200204   472A      2.203854  
     473A      2.207925   474A      2.223447   475A      2.226094  
     476A      2.240055   477A      2.245040   478A      2.247450  
     479A      2.258547   480A      2.261083   481A      2.268330  
     482A      2.278661   483A      2.282333   484A      2.284791  
     485A      2.295820   486A      2.305745   487A      2.309264  
     488A      2.317650   489A      2.335950   490A      2.345028  
     491A      2.357175   492A      2.365208   493A      2.372250  
     494A      2.388146   495A      2.397935   496A      2.404552  
     497A      2.415978   498A      2.424825   499A      2.432716  
     500A      2.434844   501A      2.441273   502A      2.446455  
     503A      2.461380   504A      2.461921   505A      2.467346  
     506A      2.485287   507A      2.501987   508A      2.505456  
     509A      2.524309   510A      2.540706   511A      2.558633  
     512A      2.571384   513A      2.581331   514A      2.593847  
     515A      2.605287   516A      2.623158   517A      2.648040  
     518A      2.651826   519A      2.658763   520A      2.680033  
     521A      2.689166   522A      2.700430   523A      2.715466  
     524A      2.731928   525A      2.736339   526A      2.744904  
     527A      2.746279   528A      2.774424   529A      2.813793  
     530A      2.825484   531A      2.842117   532A      2.869041  
     533A      2.876259   534A      2.891754   535A      2.919878  
     536A      2.956996   537A      2.965160   538A      2.989485  
     539A      3.001207   540A      3.012034   541A      3.037818  
     542A      3.073731   543A      3.098697   544A      3.113886  
     545A      3.141817   546A      3.155814   547A      3.175299  
     548A      3.196197   549A      3.230349   550A      3.237322  
     551A      3.269605   552A      3.301381   553A      3.322853  
     554A      3.335715   555A      3.352824   556A      3.375009  
     557A      3.377916   558A      3.392649   559A      3.408498  
     560A      3.424686   561A      3.433201   562A      3.444492  
     563A      3.465148   564A      3.472616   565A      3.481244  
     566A      3.492728   567A      3.500775   568A      3.512485  
     569A      3.519707   570A      3.525781   571A      3.535955  
     572A      3.546568   573A      3.555841   574A      3.561524  
     575A      3.569835   576A      3.571428   577A      3.579871  
     578A      3.592418   579A      3.594716   580A      3.609882  
     581A      3.625079   582A      3.626081   583A      3.641472  
     584A      3.654919   585A      3.666102   586A      3.669486  
     587A      3.675568   588A      3.682604   589A      3.690834  
     590A      3.703423   591A      3.714763   592A      3.719988  
     593A      3.723886   594A      3.728858   595A      3.735084  
     596A      3.743613   597A      3.756123   598A      3.757974  
     599A      3.767656   600A      3.782670   601A      3.789017  
     602A      3.806048   603A      3.807136   604A      3.813226  
     605A      3.814508   606A      3.827543   607A      3.839242  
     608A      3.846705   609A      3.851222   610A      3.859879  
     611A      3.862667   612A      3.879555   613A      3.880822  
     614A      3.890685   615A      3.897986   616A      3.903641  
     617A      3.914304   618A      3.920970   619A      3.926772  
     620A      3.931575   621A      3.943617   622A      3.952212  
     623A      3.954263   624A      3.970319   625A      3.977377  
     626A      3.978807   627A      3.986195   628A      3.994591  
     629A      4.000199   630A      4.002143   631A      4.008912  
     632A      4.019040   633A      4.025954   634A      4.030709  
     635A      4.042401   636A      4.051139   637A      4.056343  
     638A      4.065743   639A      4.074574   640A      4.090851  
     641A      4.096148   642A      4.102315   643A      4.113857  
     644A      4.124130   645A      4.132738   646A      4.139869  
     647A      4.161953   648A      4.167181   649A      4.173232  
     650A      4.182433   651A      4.189627   652A      4.195939  
     653A      4.199439   654A      4.209610   655A      4.213349  
     656A      4.220515   657A      4.230106   658A      4.240733  
     659A      4.253602   660A      4.259385   661A      4.265340  
     662A      4.268348   663A      4.280468   664A      4.284802  
     665A      4.295644   666A      4.301050   667A      4.314445  
     668A      4.333611   669A      4.338839   670A      4.347063  
     671A      4.349700   672A      4.367136   673A      4.372944  
     674A      4.378734   675A      4.411287   676A      4.417305  
     677A      4.436118   678A      4.450341   679A      4.455083  
     680A      4.457889   681A      4.471306   682A      4.483731  
     683A      4.490839   684A      4.503261   685A      4.519718  
     686A      4.527407   687A      4.530388   688A      4.535397  
     689A      4.549778   690A      4.558062   691A      4.576504  
     692A      4.581671   693A      4.602078   694A      4.609992  
     695A      4.629544   696A      4.636737   697A      4.640089  
     698A      4.656722   699A      4.664592   700A      4.671428  
     701A      4.683178   702A      4.697590   703A      4.702270  
     704A      4.723462   705A      4.729359   706A      4.744816  
     707A      4.751957   708A      4.769543   709A      4.775324  
     710A      4.784861   711A      4.802800   712A      4.828145  
     713A      4.829288   714A      4.842624   715A      4.849160  
     716A      4.861904   717A      4.868264   718A      4.870387  
     719A      4.881818   720A      4.887851   721A      4.889767  
     722A      4.911297   723A      4.916199   724A      4.931758  
     725A      4.935638   726A      4.940223   727A      4.953145  
     728A      4.969333   729A      4.973265   730A      4.981069  
     731A      5.010221   732A      5.013913   733A      5.025799  
     734A      5.038688   735A      5.053335   736A      5.063955  
     737A      5.068907   738A      5.091343   739A      5.099672  
     740A      5.109705   741A      5.122526   742A      5.129104  
     743A      5.133571   744A      5.149669   745A      5.159924  
     746A      5.170273   747A      5.187095   748A      5.200979  
     749A      5.205281   750A      5.213456   751A      5.219278  
     752A      5.235610   753A      5.244399   754A      5.258394  
     755A      5.271007   756A      5.275998   757A      5.288758  
     758A      5.297463   759A      5.305666   760A      5.321837  
     761A      5.329283   762A      5.350456   763A      5.367795  
     764A      5.372950   765A      5.385129   766A      5.390718  
     767A      5.399644   768A      5.411976   769A      5.430449  
     770A      5.434761   771A      5.450362   772A      5.459369  
     773A      5.498904   774A      5.506818   775A      5.517778  
     776A      5.528477   777A      5.549373   778A      5.560966  
     779A      5.568989   780A      5.581194   781A      5.595564  
     782A      5.604899   783A      5.621364   784A      5.628515  
     785A      5.639696   786A      5.654752   787A      5.668213  
     788A      5.678613   789A      5.696548   790A      5.716609  
     791A      5.719781   792A      5.740052   793A      5.744714  
     794A      5.787872   795A      5.794236   796A      5.801596  
     797A      5.849909   798A      5.875335   799A      5.879869  
     800A      5.923177   801A      5.926812   802A      5.951586  
     803A      6.014041   804A      6.026284   805A      6.043363  
     806A      6.055885   807A      6.064820   808A      6.085455  
     809A      6.098991   810A      6.163885   811A      6.175347  
     812A      6.198020   813A      6.209903   814A      6.214756  
     815A      6.223456   816A      6.228289   817A      6.253313  
     818A      6.263908   819A      6.282994   820A      6.294103  
     821A      6.304230   822A      6.370878   823A      6.441745  
     824A      6.464357   825A      6.483216   826A      6.573208  
     827A      6.603266   828A      6.642030   829A      6.733000  
     830A      6.739330   831A      6.785994   832A      6.800786  
     833A      6.802701   834A      6.833302   835A      6.853086  
     836A      6.857378   837A      6.865222   838A      6.882831  
     839A      6.914785   840A      6.954825   841A      6.969868  
     842A      6.987139   843A      6.997403   844A      7.088945  
     845A      7.140044   846A      7.194993   847A      7.263229  
     848A      7.308535   849A      7.339003   850A      7.425531  
     851A      7.464640   852A      7.489999   853A      7.565458  
     854A      7.669255   855A      7.714262   856A      7.743489  
     857A      7.861438   858A      7.872221   859A      7.965599  
     860A      7.982964   861A      8.106597   862A      8.368422  
     863A      8.580336   864A     15.134684   865A     15.943518  
     866A     17.406068   867A     17.511996   868A     17.648101  
     869A     18.183828   870A     18.399420   871A     18.624672  
     872A     19.943479   873A     20.694893   874A     20.722743  

    Final Occupation by Irrep:
              A 
    DOCC [    43 ]

  @DF-RHF Final Energy:  -500.02385317656058

   => Energetics <=

    Nuclear Repulsion Energy =            604.0238091689601561
    One-Electron Energy =               -1878.1493189244395126
    Two-Electron Energy =                 774.1016565789188917
    Total Energy =                       -500.0238531765605785

Computation Completed

*** tstop() called on node91.bme.utexas.edu at Thu Nov  5 20:32:43 2020
Module time:
	user time   =     627.05 seconds =      10.45 minutes
	system time =      71.39 seconds =       1.19 minutes
	total time  =        202 seconds =       3.37 minutes
Total time:
	user time   =     627.05 seconds =      10.45 minutes
	system time =      71.39 seconds =       1.19 minutes
	total time  =        202 seconds =       3.37 minutes
   => Loading Basis Set <=

    Name: (AUG-CC-PVTZ AUX)
    Role: RIFIT
    Keyword: DF_BASIS_MP2
    atoms 1-2   entry O          line   264 file /home/xy3866/psi4conda/share/psi4/basis/aug-cc-pvtz-ri.gbs 
    atoms 3-11  entry C          line   148 file /home/xy3866/psi4conda/share/psi4/basis/aug-cc-pvtz-ri.gbs 
    atoms 12-27 entry H          line    30 file /home/xy3866/psi4conda/share/psi4/basis/aug-cc-pvtz-ri.gbs 


*** tstart() called on node91.bme.utexas.edu
*** at Thu Nov  5 20:32:43 2020


  //>>>>>>>>>>>>>>>>>>>>>>>>>>>>>>>>>>>//
  //               DFMP2               //
  //<<<<<<<<<<<<<<<<<<<<<<<<<<<<<<<<<<<//

	 --------------------------------------------------------
	                          DF-MP2                         
	      2nd-Order Density-Fitted Moller-Plesset Theory     
	              RMP2 Wavefunction,   8 Threads             
	                                                         
	        Rob Parrish, Justin Turney, Andy Simmonett,      
	           Ed Hohenstein, and C. David Sherrill          
	 --------------------------------------------------------

   => Auxiliary Basis Set <=

  Basis Set: (AUG-CC-PVTZ AUX)
    Blend: AUG-CC-PVTZ-RI
    Number of shells: 532
    Number of basis function: 1902
    Number of Cartesian functions: 2376
    Spherical Harmonics?: true
    Max angular momentum: 4

	 --------------------------------------------------------
	                 NBF =   874, NAUX =  1902
	 --------------------------------------------------------
	   CLASS    FOCC     OCC    AOCC    AVIR     VIR    FVIR
	   PAIRS       0      43      43     831     831       0
	 --------------------------------------------------------

  DFHelper Memory: AOs need 9.136 GiB; user supplied 22.352 GiB. Using in-core AOs.


         ------------------------------------------------------------
                                     CPHF                           
                                  Rob Parrish                       
         ------------------------------------------------------------

  ==> Geometry <==

    Molecular point group: c1
    Full point group: C1

    Geometry (in Angstrom), charge = 0, multiplicity = 1:

       Center              X                  Y                   Z               Mass       
    ------------   -----------------  -----------------  -----------------  -----------------
         O            1.063576502095     0.481293928677     0.014646344820    15.994914619570
         O            2.523062502095    -1.099882071323    -0.711446655180    15.994914619570
         C           -2.377424497905    -0.082390071323     0.299150344820    12.000000000000
         C           -3.606135497905     0.786931928677     0.407543344820    12.000000000000
         C           -1.239733097905     0.337923328677    -0.284403055180    12.000000000000
         C            0.000222502095    -0.325435071323    -0.561563655180    12.000000000000
         C           -2.447268997905    -1.483218971323     0.841344044820    12.000000000000
         C           -4.717144497905     0.361333928677    -0.558722655180    12.000000000000
         C            3.346517502095     0.880181928677     0.438958344820    12.000000000000
         C            2.303972502095    -0.039097071323    -0.147385655180    12.000000000000
         C            4.749992502095     0.309572928677     0.314427344820    12.000000000000
         H           -3.337168497905     1.829919928677     0.205550344820     1.007825032230
         H           -3.987047497905     0.752026928677     1.436903344820     1.007825032230
         H           -1.281137497905     1.430743928677    -0.650091655180     1.007825032230
         H            0.194991502095    -0.429472071323    -1.634907655180     1.007825032230
         H            0.039379502095    -1.325256071323    -0.124512655180     1.007825032230
         H           -2.803213497905    -1.409671071323     1.923533344820     1.007825032230
         H           -3.318738497905    -2.019871071323     0.351574344820     1.007825032230
         H           -1.608528497905    -2.062220071323     0.788164344820     1.007825032230
         H           -5.051708497905    -0.660822071323    -0.359730655180     1.007825032230
         H           -4.361645497905     0.406737928677    -1.591816655180     1.007825032230
         H           -5.585771497905     1.020659928677    -0.466061655180     1.007825032230
         H            3.260464502095     1.846664928677    -0.070457655180     1.007825032230
         H            3.079397502095     1.068712928677     1.483511344820     1.007825032230
         H            4.825892502095    -0.645579071323     0.836734344820     1.007825032230
         H            5.002347502095     0.135239928677    -0.733380655180     1.007825032230
         H            5.482467502095     0.999480928677     0.741351344820     1.007825032230

  Nuclear repulsion =  604.023809168960156
  Reference energy  = -500.023853176560579

  ==> Basis Set <==

  Basis Set: AUG-CC-PVTZ
    Blend: AUG-CC-PVTZ
    Number of shells: 298
    Number of basis function: 874
    Number of Cartesian functions: 1005
    Spherical Harmonics?: true
    Max angular momentum: 3

  ==> CGRSolver (by Rob Parrish) <==

   Number of roots    =         1
   Preconditioning    =    JACOBI
   Convergence cutoff =     1E-06
   Maximum iterations =       100

  ==> CPHFRHamiltonian (by Rob Parrish) <== 

  ==> MemDFJK: Density-Fitted J/K Matrices <==

    J tasked:                   Yes
    K tasked:                   Yes
    wK tasked:                   No
    OpenMP threads:               8
    Memory [MiB]:             22888
    Algorithm:                 Disk
    Schwarz Cutoff:           1E-12
    Mask sparsity (%):      16.7216
    Fitting Condition:        1E-10

   => Auxiliary Basis Set <=

  Basis Set: (AUG-CC-PVTZ AUX)
    Blend: AUG-CC-PVTZ-JKFIT
    Number of shells: 554
    Number of basis function: 1880
    Number of Cartesian functions: 2321
    Spherical Harmonics?: true
    Max angular momentum: 4

  ==> CPHF Iterations <==

  => Iterations <=

             Iter  Converged  Remaining    Residual
  CGR           1          0          1   1.073E-01
  CGR           2          0          1   2.939E-02
  CGR           3          0          1   1.080E-02
  CGR           4          0          1   3.667E-03
  CGR           5          0          1   1.478E-03
  CGR           6          0          1   3.878E-04
  CGR           7          0          1   1.396E-04
  CGR           8          0          1   4.591E-05
  CGR           9          0          1   1.974E-05
  CGR          10          0          1   6.487E-06
  CGR          11          0          1   2.265E-06
  CGR          12          1          0   5.393E-07

    CGRSolver converged.

	-----------------------------------------------------------
	 ==================> DF-MP2 Energies <==================== 
	-----------------------------------------------------------
	 Reference Energy          =    -500.0238531765605785 [Eh]
	 Singles Energy            =      -0.0000000000000000 [Eh]
	 Same-Spin Energy          =      -0.5106607592361861 [Eh]
	 Opposite-Spin Energy      =      -1.7180351279813597 [Eh]
	 Correlation Energy        =      -2.2286958872175457 [Eh]
	 Total Energy              =    -502.2525490637781331 [Eh]
	-----------------------------------------------------------
	 ================> DF-SCS-MP2 Energies <================== 
	-----------------------------------------------------------
	 SCS Same-Spin Scale       =       0.3333333333333333 [-]
	 SCS Opposite-Spin Scale   =       1.2000000000000000 [-]
	 SCS Same-Spin Energy      =      -0.1702202530787287 [Eh]
	 SCS Opposite-Spin Energy  =      -2.0616421535776315 [Eh]
	 SCS Correlation Energy    =      -2.2318624066563602 [Eh]
	 SCS Total Energy          =    -502.2557155832169542 [Eh]
	-----------------------------------------------------------



Properties will be evaluated at   0.000000,  -0.000000,   0.000000 [a0]

Properties computed using the MP2 density matrix

  Nuclear Dipole Moment: [e a0]
     X:    -8.8419      Y:     0.8757      Z:     1.9994

  Electronic Dipole Moment: [e a0]
     X:     8.2575      Y:    -0.4106      Z:    -1.6753

  Dipole Moment: [e a0]
     X:    -0.5844      Y:     0.4651      Z:     0.3241     Total:     0.8141

  Dipole Moment: [D]
     X:    -1.4853      Y:     1.1821      Z:     0.8238     Total:     2.0693


*** tstop() called on node91.bme.utexas.edu at Thu Nov  5 20:41:20 2020
Module time:
	user time   =    2346.22 seconds =      39.10 minutes
	system time =      91.13 seconds =       1.52 minutes
	total time  =        517 seconds =       8.62 minutes
Total time:
	user time   =    2974.48 seconds =      49.57 minutes
	system time =     162.55 seconds =       2.71 minutes
	total time  =        719 seconds =      11.98 minutes

    Psi4 stopped on: Thursday, 05 November 2020 08:41PM
    Psi4 wall time for execution: 0:12:00.84

*** Psi4 exiting successfully. Buy a developer a beer!
