
    -----------------------------------------------------------------------
          Psi4: An Open-Source Ab Initio Electronic Structure Package
                               Psi4 1.3.2 release

                         Git: Rev {HEAD} ecbda83 


    R. M. Parrish, L. A. Burns, D. G. A. Smith, A. C. Simmonett,
    A. E. DePrince III, E. G. Hohenstein, U. Bozkaya, A. Yu. Sokolov,
    R. Di Remigio, R. M. Richard, J. F. Gonthier, A. M. James,
    H. R. McAlexander, A. Kumar, M. Saitow, X. Wang, B. P. Pritchard,
    P. Verma, H. F. Schaefer III, K. Patkowski, R. A. King, E. F. Valeev,
    F. A. Evangelista, J. M. Turney, T. D. Crawford, and C. D. Sherrill,
    J. Chem. Theory Comput. 13(7) pp 3185--3197 (2017).
    (doi: 10.1021/acs.jctc.7b00174)


                         Additional Contributions by
    P. Kraus, H. Kruse, M. H. Lechner, M. C. Schieber, R. A. Shaw,
    A. Alenaizan, R. Galvelis, Z. L. Glick, S. Lehtola, and J. P. Misiewicz

    -----------------------------------------------------------------------


    Psi4 started on: Thursday, 05 November 2020 10:19PM

    Process ID: 65042
    Host:       node91.bme.utexas.edu
    PSIDATADIR: /home/xy3866/psi4conda/share/psi4
    Memory:     500.0 MiB
    Threads:    8
    
  ==> Input File <==

--------------------------------------------------------------------------
#psi4
#
memory 32 gb

molecule  {
0 1
  O        1.0716460     0.4753830     0.0137820
  O        2.5311320    -1.1057930    -0.7123110
  C       -2.3693550    -0.0883010     0.2982860
  C       -3.5980660     0.7810210     0.4066790
  C       -1.2581706     0.4044617    -0.3032572
  C        0.0082920    -0.3313460    -0.5624280
  C       -2.5132090    -1.4745150     0.8629900
  C       -4.7090750     0.3554230    -0.5595870
  C        3.3545870     0.8742710     0.4380940
  C        2.3120420    -0.0450080    -0.1482500
  C        4.7580620     0.3036620     0.3135630
  H       -3.3290990     1.8240090     0.2046860
  H       -3.9789780     0.7461160     1.4360390
  H       -1.2730680     1.4248330    -0.6509560
  H        0.2030610    -0.4353830    -1.6357720
  H        0.0562035    -1.3323409    -0.1289507
  H       -2.7951440    -1.4155820     1.9226690
  H       -3.3106690    -2.0257820     0.3507100
  H       -1.6004590    -2.0681310     0.7873000
  H       -5.0436390    -0.6667330    -0.3605950
  H       -4.3535760     0.4008270    -1.5926810
  H       -5.5777020     1.0147490    -0.4669260
  H        3.2685340     1.8407540    -0.0713220
  H        3.0874670     1.0628020     1.4826470
  H        4.8339620    -0.6514900     0.8358700
  H        5.0104170     0.1293290    -0.7342450
  H        5.4905370     0.9935700     0.7404870
units angstrom
no_reorient  #important for SAPT in psi4, default
symmetry c1  #important for SAPT in psi4, default
}

set PROPERTIES_ORIGIN ["COM"]
properties('MP2/aug-cc-pvtz', properties = ['dipole'])
--------------------------------------------------------------------------

  Memory set to  29.802 GiB by Python driver.
    SCF Algorithm Type (re)set to DF.

*** tstart() called on node91.bme.utexas.edu
*** at Thu Nov  5 22:19:10 2020

   => Loading Basis Set <=

    Name: AUG-CC-PVTZ
    Role: ORBITAL
    Keyword: BASIS
    atoms 1-2   entry O          line   327 file /home/xy3866/psi4conda/share/psi4/basis/aug-cc-pvtz.gbs 
    atoms 3-11  entry C          line   235 file /home/xy3866/psi4conda/share/psi4/basis/aug-cc-pvtz.gbs 
    atoms 12-27 entry H          line    36 file /home/xy3866/psi4conda/share/psi4/basis/aug-cc-pvtz.gbs 


         ---------------------------------------------------------
                                   SCF
               by Justin Turney, Rob Parrish, Andy Simmonett
                          and Daniel G. A. Smith
                              RHF Reference
                        8 Threads,  30517 MiB Core
         ---------------------------------------------------------

  ==> Geometry <==

    Molecular point group: c1
    Full point group: C1

    Geometry (in Angstrom), charge = 0, multiplicity = 1:

       Center              X                  Y                   Z               Mass       
    ------------   -----------------  -----------------  -----------------  -----------------
         O            1.071246327336     0.474609195530     0.014321940849    15.994914619570
         O            2.530732327336    -1.106566804470    -0.711771059151    15.994914619570
         C           -2.369754672664    -0.089074804470     0.298825940849    12.000000000000
         C           -3.598465672664     0.780247195530     0.407218940849    12.000000000000
         C           -1.258570272664     0.403687895530    -0.302717259151    12.000000000000
         C            0.007892327336    -0.332119804470    -0.561888059151    12.000000000000
         C           -2.513608672664    -1.475288804470     0.863529940849    12.000000000000
         C           -4.709474672664     0.354649195530    -0.559047059151    12.000000000000
         C            3.354187327336     0.873497195530     0.438633940849    12.000000000000
         C            2.311642327336    -0.045781804470    -0.147710059151    12.000000000000
         C            4.757662327336     0.302888195530     0.314102940849    12.000000000000
         H           -3.329498672664     1.823235195530     0.205225940849     1.007825032230
         H           -3.979377672664     0.745342195530     1.436578940849     1.007825032230
         H           -1.273467672664     1.424059195530    -0.650416059151     1.007825032230
         H            0.202661327336    -0.436156804470    -1.635232059151     1.007825032230
         H            0.055803827336    -1.333114704470    -0.128410759151     1.007825032230
         H           -2.795543672664    -1.416355804470     1.923208940849     1.007825032230
         H           -3.311068672664    -2.026555804470     0.351249940849     1.007825032230
         H           -1.600858672664    -2.068904804470     0.787839940849     1.007825032230
         H           -5.044038672664    -0.667506804470    -0.360055059151     1.007825032230
         H           -4.353975672664     0.400053195530    -1.592141059151     1.007825032230
         H           -5.578101672664     1.013975195530    -0.466386059151     1.007825032230
         H            3.268134327336     1.839980195530    -0.070782059151     1.007825032230
         H            3.087067327336     1.062028195530     1.483186940849     1.007825032230
         H            4.833562327336    -0.652263804470     0.836409940849     1.007825032230
         H            5.010017327336     0.128555195530    -0.733705059151     1.007825032230
         H            5.490137327336     0.992796195530     0.741026940849     1.007825032230

  Running in c1 symmetry.

  Rotational constants: A =      0.11480  B =      0.01162  C =      0.01124 [cm^-1]
  Rotational constants: A =   3441.76580  B =    348.41114  C =    337.08311 [MHz]
  Nuclear repulsion =  602.956356794275052

  Charge       = 0
  Multiplicity = 1
  Electrons    = 86
  Nalpha       = 43
  Nbeta        = 43

  ==> Algorithm <==

  SCF Algorithm Type is DF.
  DIIS enabled.
  MOM disabled.
  Fractional occupation disabled.
  Guess Type is SAD.
  Energy threshold   = 1.00e-10
  Density threshold  = 1.00e-10
  Integral threshold = 0.00e+00

  ==> Primary Basis <==

  Basis Set: AUG-CC-PVTZ
    Blend: AUG-CC-PVTZ
    Number of shells: 298
    Number of basis function: 874
    Number of Cartesian functions: 1005
    Spherical Harmonics?: true
    Max angular momentum: 3

   => Loading Basis Set <=

    Name: (AUG-CC-PVTZ AUX)
    Role: JKFIT
    Keyword: DF_BASIS_SCF
    atoms 1-2   entry O          line   286 file /home/xy3866/psi4conda/share/psi4/basis/aug-cc-pvtz-jkfit.gbs 
    atoms 3-11  entry C          line   162 file /home/xy3866/psi4conda/share/psi4/basis/aug-cc-pvtz-jkfit.gbs 
    atoms 12-27 entry H          line    70 file /home/xy3866/psi4conda/share/psi4/basis/aug-cc-pvtz-jkfit.gbs 

  ==> Pre-Iterations <==

   -------------------------------------------------------
    Irrep   Nso     Nmo     Nalpha   Nbeta   Ndocc  Nsocc
   -------------------------------------------------------
     A        874     874       0       0       0       0
   -------------------------------------------------------
    Total     874     874      43      43      43       0
   -------------------------------------------------------

  ==> Integral Setup <==

  DFHelper Memory: AOs need 9.130 GiB; user supplied 22.352 GiB. Using in-core AOs.

  ==> MemDFJK: Density-Fitted J/K Matrices <==

    J tasked:                   Yes
    K tasked:                   Yes
    wK tasked:                   No
    OpenMP threads:               8
    Memory [MiB]:             22888
    Algorithm:                 Disk
    Schwarz Cutoff:           1E-12
    Mask sparsity (%):      16.7739
    Fitting Condition:        1E-10

   => Auxiliary Basis Set <=

  Basis Set: (AUG-CC-PVTZ AUX)
    Blend: AUG-CC-PVTZ-JKFIT
    Number of shells: 554
    Number of basis function: 1880
    Number of Cartesian functions: 2321
    Spherical Harmonics?: true
    Max angular momentum: 4

  Minimum eigenvalue in the overlap matrix is 1.2351761215E-06.
  Using Symmetric Orthogonalization.

  SCF Guess: Superposition of Atomic Densities via on-the-fly atomic UHF.

  ==> Iterations <==

                           Total Energy        Delta E     RMS |[F,P]|

   @DF-RHF iter SAD:  -498.86392256762861   -4.98864e+02   0.00000e+00 
   @DF-RHF iter   1:  -499.60745507338851   -7.43533e-01   9.90013e-04 DIIS
   @DF-RHF iter   2:  -499.94574456825376   -3.38289e-01   5.16781e-04 DIIS
   @DF-RHF iter   3:  -500.02995445222763   -8.42099e-02   1.18733e-04 DIIS
   @DF-RHF iter   4:  -500.03637761883209   -6.42317e-03   5.46145e-05 DIIS
   @DF-RHF iter   5:  -500.03762598088446   -1.24836e-03   9.52458e-06 DIIS
   @DF-RHF iter   6:  -500.03768974733890   -6.37665e-05   4.40025e-06 DIIS
   @DF-RHF iter   7:  -500.03770152294112   -1.17756e-05   1.48203e-06 DIIS
   @DF-RHF iter   8:  -500.03770382663731   -2.30370e-06   6.58188e-07 DIIS
   @DF-RHF iter   9:  -500.03770430493455   -4.78297e-07   2.00106e-07 DIIS
   @DF-RHF iter  10:  -500.03770435238374   -4.74492e-08   5.05736e-08 DIIS
   @DF-RHF iter  11:  -500.03770435494721   -2.56347e-09   1.29098e-08 DIIS
   @DF-RHF iter  12:  -500.03770435507676   -1.29546e-10   4.51761e-09 DIIS
   @DF-RHF iter  13:  -500.03770435509074   -1.39835e-11   1.43352e-09 DIIS
   @DF-RHF iter  14:  -500.03770435509409   -3.35376e-12   5.96785e-10 DIIS
   @DF-RHF iter  15:  -500.03770435509205    2.04636e-12   1.81897e-10 DIIS
   @DF-RHF iter  16:  -500.03770435509398   -1.93268e-12   7.12069e-11 DIIS
  Energy and wave function converged.


  ==> Post-Iterations <==

    Orbital Energies [Eh]
    ---------------------

    Doubly Occupied:                                                      

       1A    -20.596928     2A    -20.540672     3A    -11.375333  
       4A    -11.286291     5A    -11.245874     6A    -11.242085  
       7A    -11.228379     8A    -11.226751     9A    -11.223669  
      10A    -11.219180    11A    -11.217796    12A     -1.447963  
      13A     -1.347488    14A     -1.111285    15A     -1.063835  
      16A     -1.021528    17A     -0.978115    18A     -0.919110  
      19A     -0.878897    20A     -0.833074    21A     -0.767508  
      22A     -0.723668    23A     -0.688135    24A     -0.679567  
      25A     -0.660222    26A     -0.638538    27A     -0.623539  
      28A     -0.605135    29A     -0.588110    30A     -0.574184  
      31A     -0.552823    32A     -0.544362    33A     -0.533773  
      34A     -0.522483    35A     -0.517816    36A     -0.514254  
      37A     -0.512775    38A     -0.492188    39A     -0.483640  
      40A     -0.466847    41A     -0.457264    42A     -0.444220  
      43A     -0.343763  

    Virtual:                                                              

      44A      0.026963    45A      0.030195    46A      0.033574  
      47A      0.036326    48A      0.040998    49A      0.046430  
      50A      0.047891    51A      0.054307    52A      0.057083  
      53A      0.059066    54A      0.061678    55A      0.066702  
      56A      0.072223    57A      0.079839    58A      0.082842  
      59A      0.091382    60A      0.098128    61A      0.101741  
      62A      0.112146    63A      0.114168    64A      0.116456  
      65A      0.118411    66A      0.122118    67A      0.124748  
      68A      0.126910    69A      0.130367    70A      0.132457  
      71A      0.134531    72A      0.139826    73A      0.143625  
      74A      0.146484    75A      0.147045    76A      0.153406  
      77A      0.155421    78A      0.159941    79A      0.162255  
      80A      0.167304    81A      0.172841    82A      0.175792  
      83A      0.181294    84A      0.183113    85A      0.186412  
      86A      0.189365    87A      0.193038    88A      0.197368  
      89A      0.205960    90A      0.211383    91A      0.214502  
      92A      0.224411    93A      0.230499    94A      0.232905  
      95A      0.240207    96A      0.243978    97A      0.253547  
      98A      0.254858    99A      0.259400   100A      0.263156  
     101A      0.269403   102A      0.270337   103A      0.275229  
     104A      0.277991   105A      0.283833   106A      0.287385  
     107A      0.289086   108A      0.292162   109A      0.296939  
     110A      0.304633   111A      0.306750   112A      0.314704  
     113A      0.317356   114A      0.322288   115A      0.327721  
     116A      0.330633   117A      0.331102   118A      0.336794  
     119A      0.341617   120A      0.342882   121A      0.348214  
     122A      0.351072   123A      0.355650   124A      0.359701  
     125A      0.362632   126A      0.366513   127A      0.368191  
     128A      0.371211   129A      0.373273   130A      0.380318  
     131A      0.381871   132A      0.383639   133A      0.387014  
     134A      0.391961   135A      0.395989   136A      0.400031  
     137A      0.401322   138A      0.404961   139A      0.409381  
     140A      0.410564   141A      0.414086   142A      0.420573  
     143A      0.426247   144A      0.429663   145A      0.432605  
     146A      0.435383   147A      0.436133   148A      0.443175  
     149A      0.445242   150A      0.448695   151A      0.451624  
     152A      0.457316   153A      0.458153   154A      0.461506  
     155A      0.466657   156A      0.467815   157A      0.472213  
     158A      0.474766   159A      0.478086   160A      0.480217  
     161A      0.484559   162A      0.488090   163A      0.494783  
     164A      0.498830   165A      0.502476   166A      0.504941  
     167A      0.505374   168A      0.512686   169A      0.514479  
     170A      0.516511   171A      0.520593   172A      0.523035  
     173A      0.527841   174A      0.530842   175A      0.533315  
     176A      0.537406   177A      0.540941   178A      0.542791  
     179A      0.548177   180A      0.549755   181A      0.557170  
     182A      0.561879   183A      0.564651   184A      0.569880  
     185A      0.571517   186A      0.573924   187A      0.583559  
     188A      0.587659   189A      0.594125   190A      0.595295  
     191A      0.600400   192A      0.601163   193A      0.609839  
     194A      0.612506   195A      0.615895   196A      0.620454  
     197A      0.623071   198A      0.630644   199A      0.632997  
     200A      0.634350   201A      0.640031   202A      0.641274  
     203A      0.654921   204A      0.662881   205A      0.668940  
     206A      0.676948   207A      0.679774   208A      0.684810  
     209A      0.691337   210A      0.693606   211A      0.703115  
     212A      0.709341   213A      0.714495   214A      0.720389  
     215A      0.734368   216A      0.739921   217A      0.741870  
     218A      0.752355   219A      0.756606   220A      0.762019  
     221A      0.767147   222A      0.782825   223A      0.786524  
     224A      0.795197   225A      0.798758   226A      0.806310  
     227A      0.808981   228A      0.813216   229A      0.821169  
     230A      0.829363   231A      0.834448   232A      0.838294  
     233A      0.841709   234A      0.842375   235A      0.850693  
     236A      0.852945   237A      0.859757   238A      0.864456  
     239A      0.866052   240A      0.868422   241A      0.875087  
     242A      0.876252   243A      0.881184   244A      0.886969  
     245A      0.888924   246A      0.891935   247A      0.899108  
     248A      0.905652   249A      0.907204   250A      0.913345  
     251A      0.914331   252A      0.920053   253A      0.922745  
     254A      0.928166   255A      0.933721   256A      0.938630  
     257A      0.945178   258A      0.947484   259A      0.952036  
     260A      0.956625   261A      0.961003   262A      0.962982  
     263A      0.965462   264A      0.968159   265A      0.971912  
     266A      0.974925   267A      0.980143   268A      0.987557  
     269A      0.991467   270A      0.995944   271A      0.999996  
     272A      1.004830   273A      1.009364   274A      1.019436  
     275A      1.021946   276A      1.026474   277A      1.030265  
     278A      1.038565   279A      1.046552   280A      1.047472  
     281A      1.049844   282A      1.054153   283A      1.059141  
     284A      1.061294   285A      1.065360   286A      1.066431  
     287A      1.078896   288A      1.085153   289A      1.087001  
     290A      1.089979   291A      1.098264   292A      1.100638  
     293A      1.105006   294A      1.108938   295A      1.112550  
     296A      1.115539   297A      1.119286   298A      1.125508  
     299A      1.128226   300A      1.130326   301A      1.140409  
     302A      1.143114   303A      1.149820   304A      1.159102  
     305A      1.163961   306A      1.169155   307A      1.175404  
     308A      1.178805   309A      1.186979   310A      1.192511  
     311A      1.197155   312A      1.200904   313A      1.203825  
     314A      1.206989   315A      1.211758   316A      1.217460  
     317A      1.221336   318A      1.222384   319A      1.227293  
     320A      1.236959   321A      1.239465   322A      1.245241  
     323A      1.247898   324A      1.253160   325A      1.259290  
     326A      1.262405   327A      1.271105   328A      1.277775  
     329A      1.278526   330A      1.283677   331A      1.293453  
     332A      1.298381   333A      1.303258   334A      1.309616  
     335A      1.318897   336A      1.320581   337A      1.325482  
     338A      1.330178   339A      1.348434   340A      1.349792  
     341A      1.357274   342A      1.363048   343A      1.370148  
     344A      1.372834   345A      1.378328   346A      1.384717  
     347A      1.394076   348A      1.398565   349A      1.408748  
     350A      1.415575   351A      1.420138   352A      1.423063  
     353A      1.433907   354A      1.439784   355A      1.445471  
     356A      1.447970   357A      1.460726   358A      1.464159  
     359A      1.468745   360A      1.473134   361A      1.479222  
     362A      1.487732   363A      1.493945   364A      1.504709  
     365A      1.505509   366A      1.513941   367A      1.526061  
     368A      1.528021   369A      1.534497   370A      1.540719  
     371A      1.553390   372A      1.560071   373A      1.565356  
     374A      1.567071   375A      1.574591   376A      1.583307  
     377A      1.584843   378A      1.593791   379A      1.603798  
     380A      1.612073   381A      1.615604   382A      1.620026  
     383A      1.626419   384A      1.634464   385A      1.641794  
     386A      1.643863   387A      1.653842   388A      1.658381  
     389A      1.661187   390A      1.671403   391A      1.679381  
     392A      1.681241   393A      1.682367   394A      1.690811  
     395A      1.692802   396A      1.696358   397A      1.700550  
     398A      1.707095   399A      1.712843   400A      1.714830  
     401A      1.716164   402A      1.723112   403A      1.727503  
     404A      1.735172   405A      1.740266   406A      1.746794  
     407A      1.752566   408A      1.755567   409A      1.758756  
     410A      1.770456   411A      1.776783   412A      1.780499  
     413A      1.786155   414A      1.797040   415A      1.801253  
     416A      1.803176   417A      1.812567   418A      1.818080  
     419A      1.820211   420A      1.827548   421A      1.834919  
     422A      1.842345   423A      1.850318   424A      1.855033  
     425A      1.857221   426A      1.867455   427A      1.872331  
     428A      1.881861   429A      1.887884   430A      1.895020  
     431A      1.898393   432A      1.904050   433A      1.905852  
     434A      1.919441   435A      1.921455   436A      1.926664  
     437A      1.933171   438A      1.939331   439A      1.952223  
     440A      1.958372   441A      1.967159   442A      1.971820  
     443A      1.980117   444A      1.986776   445A      1.987053  
     446A      1.988764   447A      2.001961   448A      2.006148  
     449A      2.027299   450A      2.029455   451A      2.032200  
     452A      2.039234   453A      2.041505   454A      2.045625  
     455A      2.051634   456A      2.065150   457A      2.082399  
     458A      2.096731   459A      2.102039   460A      2.108267  
     461A      2.109920   462A      2.118871   463A      2.128116  
     464A      2.133184   465A      2.147956   466A      2.158809  
     467A      2.164970   468A      2.176323   469A      2.187297  
     470A      2.190440   471A      2.197645   472A      2.208621  
     473A      2.219045   474A      2.223686   475A      2.229338  
     476A      2.234159   477A      2.247892   478A      2.249638  
     479A      2.260728   480A      2.264130   481A      2.271504  
     482A      2.277456   483A      2.281125   484A      2.289168  
     485A      2.295712   486A      2.297821   487A      2.307851  
     488A      2.322440   489A      2.338436   490A      2.341567  
     491A      2.355600   492A      2.367298   493A      2.373135  
     494A      2.386464   495A      2.392970   496A      2.405310  
     497A      2.415057   498A      2.421853   499A      2.424543  
     500A      2.433623   501A      2.437590   502A      2.445366  
     503A      2.450738   504A      2.467352   505A      2.469705  
     506A      2.488132   507A      2.499395   508A      2.507608  
     509A      2.516091   510A      2.539392   511A      2.564725  
     512A      2.573353   513A      2.576489   514A      2.590167  
     515A      2.605815   516A      2.613179   517A      2.647571  
     518A      2.650503   519A      2.662436   520A      2.678774  
     521A      2.680960   522A      2.695624   523A      2.713600  
     524A      2.720276   525A      2.727277   526A      2.739056  
     527A      2.753140   528A      2.774986   529A      2.795231  
     530A      2.820081   531A      2.838150   532A      2.859300  
     533A      2.874694   534A      2.886759   535A      2.921979  
     536A      2.939226   537A      2.955579   538A      2.984253  
     539A      3.000279   540A      3.010726   541A      3.026800  
     542A      3.060330   543A      3.091842   544A      3.115056  
     545A      3.142489   546A      3.150821   547A      3.167032  
     548A      3.182331   549A      3.228490   550A      3.234579  
     551A      3.268657   552A      3.293741   553A      3.315770  
     554A      3.328716   555A      3.345013   556A      3.359776  
     557A      3.380279   558A      3.389762   559A      3.406466  
     560A      3.413605   561A      3.432198   562A      3.443334  
     563A      3.451225   564A      3.461594   565A      3.465689  
     566A      3.488890   567A      3.497888   568A      3.507620  
     569A      3.511581   570A      3.525732   571A      3.534057  
     572A      3.538804   573A      3.554539   574A      3.559414  
     575A      3.564021   576A      3.568101   577A      3.575001  
     578A      3.587658   579A      3.603361   580A      3.612869  
     581A      3.622091   582A      3.625542   583A      3.641072  
     584A      3.659521   585A      3.663649   586A      3.672374  
     587A      3.674386   588A      3.680216   589A      3.693863  
     590A      3.699181   591A      3.708363   592A      3.719974  
     593A      3.724106   594A      3.729139   595A      3.738944  
     596A      3.740206   597A      3.757212   598A      3.758464  
     599A      3.773779   600A      3.787475   601A      3.788251  
     602A      3.793267   603A      3.803583   604A      3.810184  
     605A      3.814566   606A      3.827233   607A      3.832442  
     608A      3.845750   609A      3.848950   610A      3.856900  
     611A      3.858235   612A      3.866776   613A      3.873919  
     614A      3.886846   615A      3.897557   616A      3.901815  
     617A      3.916469   618A      3.919017   619A      3.926818  
     620A      3.938172   621A      3.944435   622A      3.952120  
     623A      3.959393   624A      3.968606   625A      3.973672  
     626A      3.976792   627A      3.979416   628A      3.992803  
     629A      3.993799   630A      4.001944   631A      4.009686  
     632A      4.018760   633A      4.019713   634A      4.024743  
     635A      4.041048   636A      4.050335   637A      4.060343  
     638A      4.064444   639A      4.069732   640A      4.092111  
     641A      4.093949   642A      4.106212   643A      4.110665  
     644A      4.113514   645A      4.129099   646A      4.143392  
     647A      4.163182   648A      4.164067   649A      4.174124  
     650A      4.179476   651A      4.185581   652A      4.195455  
     653A      4.199525   654A      4.205557   655A      4.215688  
     656A      4.225349   657A      4.236839   658A      4.247230  
     659A      4.250896   660A      4.257869   661A      4.261377  
     662A      4.273498   663A      4.276152   664A      4.286826  
     665A      4.295326   666A      4.304357   667A      4.309341  
     668A      4.328684   669A      4.343754   670A      4.349733  
     671A      4.353347   672A      4.365094   673A      4.372868  
     674A      4.375052   675A      4.404553   676A      4.416139  
     677A      4.433768   678A      4.439366   679A      4.446175  
     680A      4.462163   681A      4.468998   682A      4.480087  
     683A      4.493175   684A      4.508794   685A      4.517493  
     686A      4.523867   687A      4.531031   688A      4.537626  
     689A      4.550841   690A      4.560309   691A      4.566116  
     692A      4.585896   693A      4.602480   694A      4.608711  
     695A      4.623424   696A      4.633424   697A      4.636592  
     698A      4.653981   699A      4.659375   700A      4.671602  
     701A      4.686290   702A      4.697444   703A      4.709275  
     704A      4.725662   705A      4.727327   706A      4.739091  
     707A      4.745158   708A      4.765920   709A      4.778799  
     710A      4.787306   711A      4.800696   712A      4.821987  
     713A      4.836871   714A      4.849897   715A      4.850995  
     716A      4.855802   717A      4.862777   718A      4.869849  
     719A      4.871056   720A      4.884583   721A      4.894014  
     722A      4.900001   723A      4.916325   724A      4.929674  
     725A      4.934353   726A      4.938741   727A      4.947279  
     728A      4.958069   729A      4.979481   730A      4.989901  
     731A      5.002690   732A      5.007264   733A      5.030531  
     734A      5.049191   735A      5.053475   736A      5.063023  
     737A      5.080358   738A      5.085557   739A      5.100391  
     740A      5.113500   741A      5.117872   742A      5.135109  
     743A      5.149345   744A      5.160033   745A      5.168231  
     746A      5.177733   747A      5.196410   748A      5.199982  
     749A      5.205906   750A      5.222110   751A      5.230533  
     752A      5.230921   753A      5.247492   754A      5.258122  
     755A      5.272018   756A      5.275773   757A      5.283924  
     758A      5.305413   759A      5.315181   760A      5.327950  
     761A      5.343525   762A      5.352999   763A      5.375843  
     764A      5.380470   765A      5.391728   766A      5.407606  
     767A      5.420556   768A      5.423143   769A      5.434890  
     770A      5.444390   771A      5.453159   772A      5.476442  
     773A      5.504405   774A      5.511173   775A      5.527803  
     776A      5.535381   777A      5.553521   778A      5.557575  
     779A      5.579614   780A      5.587597   781A      5.598215  
     782A      5.609065   783A      5.618169   784A      5.629616  
     785A      5.639656   786A      5.651640   787A      5.662434  
     788A      5.679326   789A      5.684175   790A      5.710704  
     791A      5.719808   792A      5.747523   793A      5.758296  
     794A      5.774452   795A      5.787728   796A      5.803082  
     797A      5.849766   798A      5.854066   799A      5.881290  
     800A      5.890728   801A      5.923571   802A      5.958411  
     803A      6.003778   804A      6.012886   805A      6.040777  
     806A      6.055062   807A      6.072319   808A      6.086425  
     809A      6.112020   810A      6.155639   811A      6.178049  
     812A      6.195328   813A      6.206968   814A      6.215781  
     815A      6.227263   816A      6.237944   817A      6.250346  
     818A      6.255441   819A      6.268802   820A      6.287481  
     821A      6.306299   822A      6.381033   823A      6.401578  
     824A      6.458544   825A      6.483675   826A      6.535474  
     827A      6.563254   828A      6.621546   829A      6.694681  
     830A      6.733601   831A      6.786938   832A      6.793750  
     833A      6.802620   834A      6.812402   835A      6.853779  
     836A      6.863616   837A      6.866782   838A      6.886641  
     839A      6.914085   840A      6.950843   841A      6.962365  
     842A      6.990482   843A      7.002252   844A      7.086339  
     845A      7.135405   846A      7.194417   847A      7.259684  
     848A      7.308061   849A      7.338802   850A      7.423879  
     851A      7.464909   852A      7.488833   853A      7.564461  
     854A      7.670269   855A      7.708405   856A      7.743240  
     857A      7.858386   858A      7.869331   859A      7.963885  
     860A      7.985633   861A      8.105663   862A      8.362210  
     863A      8.577374   864A     15.151389   865A     15.947306  
     866A     17.110015   867A     17.507551   868A     17.516592  
     869A     18.020435   870A     18.388009   871A     18.622910  
     872A     19.968802   873A     20.475414   874A     20.753163  

    Final Occupation by Irrep:
              A 
    DOCC [    43 ]

  @DF-RHF Final Energy:  -500.03770435509398

   => Energetics <=

    Nuclear Repulsion Energy =            602.9563567942750524
    One-Electron Energy =               -1876.1099921380057367
    Two-Electron Energy =                 773.1159309886367055
    Total Energy =                       -500.0377043550939788

Computation Completed

*** tstop() called on node91.bme.utexas.edu at Thu Nov  5 22:22:47 2020
Module time:
	user time   =     627.86 seconds =      10.46 minutes
	system time =      64.75 seconds =       1.08 minutes
	total time  =        217 seconds =       3.62 minutes
Total time:
	user time   =     627.86 seconds =      10.46 minutes
	system time =      64.75 seconds =       1.08 minutes
	total time  =        217 seconds =       3.62 minutes
   => Loading Basis Set <=

    Name: (AUG-CC-PVTZ AUX)
    Role: RIFIT
    Keyword: DF_BASIS_MP2
    atoms 1-2   entry O          line   264 file /home/xy3866/psi4conda/share/psi4/basis/aug-cc-pvtz-ri.gbs 
    atoms 3-11  entry C          line   148 file /home/xy3866/psi4conda/share/psi4/basis/aug-cc-pvtz-ri.gbs 
    atoms 12-27 entry H          line    30 file /home/xy3866/psi4conda/share/psi4/basis/aug-cc-pvtz-ri.gbs 


*** tstart() called on node91.bme.utexas.edu
*** at Thu Nov  5 22:22:47 2020


  //>>>>>>>>>>>>>>>>>>>>>>>>>>>>>>>>>>>//
  //               DFMP2               //
  //<<<<<<<<<<<<<<<<<<<<<<<<<<<<<<<<<<<//

	 --------------------------------------------------------
	                          DF-MP2                         
	      2nd-Order Density-Fitted Moller-Plesset Theory     
	              RMP2 Wavefunction,   8 Threads             
	                                                         
	        Rob Parrish, Justin Turney, Andy Simmonett,      
	           Ed Hohenstein, and C. David Sherrill          
	 --------------------------------------------------------

   => Auxiliary Basis Set <=

  Basis Set: (AUG-CC-PVTZ AUX)
    Blend: AUG-CC-PVTZ-RI
    Number of shells: 532
    Number of basis function: 1902
    Number of Cartesian functions: 2376
    Spherical Harmonics?: true
    Max angular momentum: 4

	 --------------------------------------------------------
	                 NBF =   874, NAUX =  1902
	 --------------------------------------------------------
	   CLASS    FOCC     OCC    AOCC    AVIR     VIR    FVIR
	   PAIRS       0      43      43     831     831       0
	 --------------------------------------------------------

  DFHelper Memory: AOs need 9.130 GiB; user supplied 22.352 GiB. Using in-core AOs.


         ------------------------------------------------------------
                                     CPHF                           
                                  Rob Parrish                       
         ------------------------------------------------------------

  ==> Geometry <==

    Molecular point group: c1
    Full point group: C1

    Geometry (in Angstrom), charge = 0, multiplicity = 1:

       Center              X                  Y                   Z               Mass       
    ------------   -----------------  -----------------  -----------------  -----------------
         O            1.071246327336     0.474609195530     0.014321940849    15.994914619570
         O            2.530732327336    -1.106566804470    -0.711771059151    15.994914619570
         C           -2.369754672664    -0.089074804470     0.298825940849    12.000000000000
         C           -3.598465672664     0.780247195530     0.407218940849    12.000000000000
         C           -1.258570272664     0.403687895530    -0.302717259151    12.000000000000
         C            0.007892327336    -0.332119804470    -0.561888059151    12.000000000000
         C           -2.513608672664    -1.475288804470     0.863529940849    12.000000000000
         C           -4.709474672664     0.354649195530    -0.559047059151    12.000000000000
         C            3.354187327336     0.873497195530     0.438633940849    12.000000000000
         C            2.311642327336    -0.045781804470    -0.147710059151    12.000000000000
         C            4.757662327336     0.302888195530     0.314102940849    12.000000000000
         H           -3.329498672664     1.823235195530     0.205225940849     1.007825032230
         H           -3.979377672664     0.745342195530     1.436578940849     1.007825032230
         H           -1.273467672664     1.424059195530    -0.650416059151     1.007825032230
         H            0.202661327336    -0.436156804470    -1.635232059151     1.007825032230
         H            0.055803827336    -1.333114704470    -0.128410759151     1.007825032230
         H           -2.795543672664    -1.416355804470     1.923208940849     1.007825032230
         H           -3.311068672664    -2.026555804470     0.351249940849     1.007825032230
         H           -1.600858672664    -2.068904804470     0.787839940849     1.007825032230
         H           -5.044038672664    -0.667506804470    -0.360055059151     1.007825032230
         H           -4.353975672664     0.400053195530    -1.592141059151     1.007825032230
         H           -5.578101672664     1.013975195530    -0.466386059151     1.007825032230
         H            3.268134327336     1.839980195530    -0.070782059151     1.007825032230
         H            3.087067327336     1.062028195530     1.483186940849     1.007825032230
         H            4.833562327336    -0.652263804470     0.836409940849     1.007825032230
         H            5.010017327336     0.128555195530    -0.733705059151     1.007825032230
         H            5.490137327336     0.992796195530     0.741026940849     1.007825032230

  Nuclear repulsion =  602.956356794275052
  Reference energy  = -500.037704355093979

  ==> Basis Set <==

  Basis Set: AUG-CC-PVTZ
    Blend: AUG-CC-PVTZ
    Number of shells: 298
    Number of basis function: 874
    Number of Cartesian functions: 1005
    Spherical Harmonics?: true
    Max angular momentum: 3

  ==> CGRSolver (by Rob Parrish) <==

   Number of roots    =         1
   Preconditioning    =    JACOBI
   Convergence cutoff =     1E-06
   Maximum iterations =       100

  ==> CPHFRHamiltonian (by Rob Parrish) <== 

  ==> MemDFJK: Density-Fitted J/K Matrices <==

    J tasked:                   Yes
    K tasked:                   Yes
    wK tasked:                   No
    OpenMP threads:               8
    Memory [MiB]:             22888
    Algorithm:                 Disk
    Schwarz Cutoff:           1E-12
    Mask sparsity (%):      16.7739
    Fitting Condition:        1E-10

   => Auxiliary Basis Set <=

  Basis Set: (AUG-CC-PVTZ AUX)
    Blend: AUG-CC-PVTZ-JKFIT
    Number of shells: 554
    Number of basis function: 1880
    Number of Cartesian functions: 2321
    Spherical Harmonics?: true
    Max angular momentum: 4

  ==> CPHF Iterations <==

  => Iterations <=

             Iter  Converged  Remaining    Residual
  CGR           1          0          1   1.070E-01
  CGR           2          0          1   2.934E-02
  CGR           3          0          1   1.077E-02
  CGR           4          0          1   3.655E-03
  CGR           5          0          1   1.467E-03
  CGR           6          0          1   3.849E-04
  CGR           7          0          1   1.370E-04
  CGR           8          0          1   4.560E-05
  CGR           9          0          1   1.965E-05
  CGR          10          0          1   6.486E-06
  CGR          11          0          1   2.230E-06
  CGR          12          1          0   5.173E-07

    CGRSolver converged.

	-----------------------------------------------------------
	 ==================> DF-MP2 Energies <==================== 
	-----------------------------------------------------------
	 Reference Energy          =    -500.0377043550939788 [Eh]
	 Singles Energy            =      -0.0000000000000000 [Eh]
	 Same-Spin Energy          =      -0.5098508961660830 [Eh]
	 Opposite-Spin Energy      =      -1.7170407903591025 [Eh]
	 Correlation Energy        =      -2.2268916865251853 [Eh]
	 Total Energy              =    -502.2645960416191429 [Eh]
	-----------------------------------------------------------
	 ================> DF-SCS-MP2 Energies <================== 
	-----------------------------------------------------------
	 SCS Same-Spin Scale       =       0.3333333333333333 [-]
	 SCS Opposite-Spin Scale   =       1.2000000000000000 [-]
	 SCS Same-Spin Energy      =      -0.1699502987220277 [Eh]
	 SCS Opposite-Spin Energy  =      -2.0604489484309227 [Eh]
	 SCS Correlation Energy    =      -2.2303992471529503 [Eh]
	 SCS Total Energy          =    -502.2681036022469243 [Eh]
	-----------------------------------------------------------



Properties will be evaluated at  -0.000000,  -0.000000,  -0.000000 [a0]

Properties computed using the MP2 density matrix

  Nuclear Dipole Moment: [e a0]
     X:    -8.7185      Y:     0.7743      Z:     1.9912

  Electronic Dipole Moment: [e a0]
     X:     8.1483      Y:    -0.3090      Z:    -1.6636

  Dipole Moment: [e a0]
     X:    -0.5702      Y:     0.4653      Z:     0.3276     Total:     0.8056

  Dipole Moment: [D]
     X:    -1.4493      Y:     1.1826      Z:     0.8327     Total:     2.0475


*** tstop() called on node91.bme.utexas.edu at Thu Nov  5 22:30:57 2020
Module time:
	user time   =    2344.42 seconds =      39.07 minutes
	system time =     111.65 seconds =       1.86 minutes
	total time  =        490 seconds =       8.17 minutes
Total time:
	user time   =    2973.44 seconds =      49.56 minutes
	system time =     176.45 seconds =       2.94 minutes
	total time  =        707 seconds =      11.78 minutes

    Psi4 stopped on: Thursday, 05 November 2020 10:30PM
    Psi4 wall time for execution: 0:11:48.21

*** Psi4 exiting successfully. Buy a developer a beer!
