
    -----------------------------------------------------------------------
          Psi4: An Open-Source Ab Initio Electronic Structure Package
                               Psi4 1.3.2 release

                         Git: Rev {HEAD} ecbda83 


    R. M. Parrish, L. A. Burns, D. G. A. Smith, A. C. Simmonett,
    A. E. DePrince III, E. G. Hohenstein, U. Bozkaya, A. Yu. Sokolov,
    R. Di Remigio, R. M. Richard, J. F. Gonthier, A. M. James,
    H. R. McAlexander, A. Kumar, M. Saitow, X. Wang, B. P. Pritchard,
    P. Verma, H. F. Schaefer III, K. Patkowski, R. A. King, E. F. Valeev,
    F. A. Evangelista, J. M. Turney, T. D. Crawford, and C. D. Sherrill,
    J. Chem. Theory Comput. 13(7) pp 3185--3197 (2017).
    (doi: 10.1021/acs.jctc.7b00174)


                         Additional Contributions by
    P. Kraus, H. Kruse, M. H. Lechner, M. C. Schieber, R. A. Shaw,
    A. Alenaizan, R. Galvelis, Z. L. Glick, S. Lehtola, and J. P. Misiewicz

    -----------------------------------------------------------------------


    Psi4 started on: Thursday, 05 November 2020 08:00AM

    Process ID: 36728
    Host:       node91.bme.utexas.edu
    PSIDATADIR: /home/xy3866/psi4conda/share/psi4
    Memory:     500.0 MiB
    Threads:    8
    
  ==> Input File <==

--------------------------------------------------------------------------
#psi4
#
memory 32 gb

molecule  {
0 1
  O        1.0716460     0.4753830     0.0137820
  O        2.5311320    -1.1057930    -0.7123110
  C       -2.3358328    -0.0443705     0.3547486
  C       -3.5980660     0.7810210     0.4066790
  C       -1.2626340     0.3942960    -0.2965320
  C        0.0082920    -0.3313460    -0.5624280
  C       -2.5132090    -1.4745150     0.8629900
  C       -4.7540667     0.4153658    -0.5309261
  C        3.3545870     0.8742710     0.4380940
  C        2.3120420    -0.0450080    -0.1482500
  C        4.7580620     0.3036620     0.3135630
  H       -3.3290990     1.8240090     0.2046860
  H       -3.9789780     0.7461160     1.4360390
  H       -1.2730680     1.4248330    -0.6509560
  H        0.2030610    -0.4353830    -1.6357720
  H        0.0474490    -1.3311670    -0.1253770
  H       -2.7951440    -1.4155820     1.9226690
  H       -3.3106690    -2.0257820     0.3507100
  H       -1.6004590    -2.0681310     0.7873000
  H       -5.0436390    -0.6667330    -0.3605950
  H       -4.3535760     0.4008270    -1.5926810
  H       -5.5777020     1.0147490    -0.4669260
  H        3.2685340     1.8407540    -0.0713220
  H        3.0874670     1.0628020     1.4826470
  H        4.8339620    -0.6514900     0.8358700
  H        5.0104170     0.1293290    -0.7342450
  H        5.4905370     0.9935700     0.7404870
units angstrom
no_reorient  #important for SAPT in psi4, default
symmetry c1  #important for SAPT in psi4, default
}

set PROPERTIES_ORIGIN ["COM"]
properties('MP2/aug-cc-pvtz', properties = ['dipole'])
--------------------------------------------------------------------------

  Memory set to  29.802 GiB by Python driver.
    SCF Algorithm Type (re)set to DF.

*** tstart() called on node91.bme.utexas.edu
*** at Thu Nov  5 08:00:25 2020

   => Loading Basis Set <=

    Name: AUG-CC-PVTZ
    Role: ORBITAL
    Keyword: BASIS
    atoms 1-2   entry O          line   327 file /home/xy3866/psi4conda/share/psi4/basis/aug-cc-pvtz.gbs 
    atoms 3-11  entry C          line   235 file /home/xy3866/psi4conda/share/psi4/basis/aug-cc-pvtz.gbs 
    atoms 12-27 entry H          line    36 file /home/xy3866/psi4conda/share/psi4/basis/aug-cc-pvtz.gbs 


         ---------------------------------------------------------
                                   SCF
               by Justin Turney, Rob Parrish, Andy Simmonett
                          and Daniel G. A. Smith
                              RHF Reference
                        8 Threads,  30517 MiB Core
         ---------------------------------------------------------

  ==> Geometry <==

    Molecular point group: c1
    Full point group: C1

    Geometry (in Angstrom), charge = 0, multiplicity = 1:

       Center              X                  Y                   Z               Mass       
    ------------   -----------------  -----------------  -----------------  -----------------
         O            1.072527548014     0.467398651564     0.007238791545    15.994914619570
         O            2.532013548014    -1.113777348436    -0.718854208455    15.994914619570
         C           -2.334951251986    -0.052354848436     0.348205391545    12.000000000000
         C           -3.597184451986     0.773036651564     0.400135791545    12.000000000000
         C           -1.261752451986     0.386311651564    -0.303075208455    12.000000000000
         C            0.009173548014    -0.339330348436    -0.568971208455    12.000000000000
         C           -2.512327451986    -1.482499348436     0.856446791545    12.000000000000
         C           -4.753185151986     0.407381451564    -0.537469308455    12.000000000000
         C            3.355468548014     0.866286651564     0.431550791545    12.000000000000
         C            2.312923548014    -0.052992348436    -0.154793208455    12.000000000000
         C            4.758943548014     0.295677651564     0.307019791545    12.000000000000
         H           -3.328217451986     1.816024651564     0.198142791545     1.007825032230
         H           -3.978096451986     0.738131651564     1.429495791545     1.007825032230
         H           -1.272186451986     1.416848651564    -0.657499208455     1.007825032230
         H            0.203942548014    -0.443367348436    -1.642315208455     1.007825032230
         H            0.048330548014    -1.339151348436    -0.131920208455     1.007825032230
         H           -2.794262451986    -1.423566348436     1.916125791545     1.007825032230
         H           -3.309787451986    -2.033766348436     0.344166791545     1.007825032230
         H           -1.599577451986    -2.076115348436     0.780756791545     1.007825032230
         H           -5.042757451986    -0.674717348436    -0.367138208455     1.007825032230
         H           -4.352694451986     0.392842651564    -1.599224208455     1.007825032230
         H           -5.576820451986     1.006764651564    -0.473469208455     1.007825032230
         H            3.269415548014     1.832769651564    -0.077865208455     1.007825032230
         H            3.088348548014     1.054817651564     1.476103791545     1.007825032230
         H            4.834843548014    -0.659474348436     0.829326791545     1.007825032230
         H            5.011298548014     0.121344651564    -0.740788208455     1.007825032230
         H            5.491418548014     0.985585651564     0.733943791545     1.007825032230

  Running in c1 symmetry.

  Rotational constants: A =      0.11447  B =      0.01160  C =      0.01122 [cm^-1]
  Rotational constants: A =   3431.75662  B =    347.62196  C =    336.24198 [MHz]
  Nuclear repulsion =  602.590622516943313

  Charge       = 0
  Multiplicity = 1
  Electrons    = 86
  Nalpha       = 43
  Nbeta        = 43

  ==> Algorithm <==

  SCF Algorithm Type is DF.
  DIIS enabled.
  MOM disabled.
  Fractional occupation disabled.
  Guess Type is SAD.
  Energy threshold   = 1.00e-10
  Density threshold  = 1.00e-10
  Integral threshold = 0.00e+00

  ==> Primary Basis <==

  Basis Set: AUG-CC-PVTZ
    Blend: AUG-CC-PVTZ
    Number of shells: 298
    Number of basis function: 874
    Number of Cartesian functions: 1005
    Spherical Harmonics?: true
    Max angular momentum: 3

   => Loading Basis Set <=

    Name: (AUG-CC-PVTZ AUX)
    Role: JKFIT
    Keyword: DF_BASIS_SCF
    atoms 1-2   entry O          line   286 file /home/xy3866/psi4conda/share/psi4/basis/aug-cc-pvtz-jkfit.gbs 
    atoms 3-11  entry C          line   162 file /home/xy3866/psi4conda/share/psi4/basis/aug-cc-pvtz-jkfit.gbs 
    atoms 12-27 entry H          line    70 file /home/xy3866/psi4conda/share/psi4/basis/aug-cc-pvtz-jkfit.gbs 

  ==> Pre-Iterations <==

   -------------------------------------------------------
    Irrep   Nso     Nmo     Nalpha   Nbeta   Ndocc  Nsocc
   -------------------------------------------------------
     A        874     874       0       0       0       0
   -------------------------------------------------------
    Total     874     874      43      43      43       0
   -------------------------------------------------------

  ==> Integral Setup <==

  DFHelper Memory: AOs need 9.130 GiB; user supplied 22.352 GiB. Using in-core AOs.

  ==> MemDFJK: Density-Fitted J/K Matrices <==

    J tasked:                   Yes
    K tasked:                   Yes
    wK tasked:                   No
    OpenMP threads:               8
    Memory [MiB]:             22888
    Algorithm:                 Disk
    Schwarz Cutoff:           1E-12
    Mask sparsity (%):      16.7820
    Fitting Condition:        1E-10

   => Auxiliary Basis Set <=

  Basis Set: (AUG-CC-PVTZ AUX)
    Blend: AUG-CC-PVTZ-JKFIT
    Number of shells: 554
    Number of basis function: 1880
    Number of Cartesian functions: 2321
    Spherical Harmonics?: true
    Max angular momentum: 4

  Minimum eigenvalue in the overlap matrix is 1.2990808315E-06.
  Using Symmetric Orthogonalization.

  SCF Guess: Superposition of Atomic Densities via on-the-fly atomic UHF.

  ==> Iterations <==

                           Total Energy        Delta E     RMS |[F,P]|

   @DF-RHF iter SAD:  -498.85157149826620   -4.98852e+02   0.00000e+00 
   @DF-RHF iter   1:  -499.59862786020199   -7.47056e-01   9.89131e-04 DIIS
   @DF-RHF iter   2:  -499.93712517581241   -3.38497e-01   5.14383e-04 DIIS
   @DF-RHF iter   3:  -500.02034934618348   -8.32242e-02   1.18449e-04 DIIS
   @DF-RHF iter   4:  -500.02673649999804   -6.38715e-03   5.46432e-05 DIIS
   @DF-RHF iter   5:  -500.02798185607992   -1.24536e-03   9.45580e-06 DIIS
   @DF-RHF iter   6:  -500.02804574804208   -6.38920e-05   4.33638e-06 DIIS
   @DF-RHF iter   7:  -500.02805729325496   -1.15452e-05   1.48821e-06 DIIS
   @DF-RHF iter   8:  -500.02805958571105   -2.29246e-06   6.58407e-07 DIIS
   @DF-RHF iter   9:  -500.02806006731777   -4.81607e-07   1.99003e-07 DIIS
   @DF-RHF iter  10:  -500.02806011396939   -4.66516e-08   5.02427e-08 DIIS
   @DF-RHF iter  11:  -500.02806011647732   -2.50793e-09   1.39872e-08 DIIS
   @DF-RHF iter  12:  -500.02806011661477   -1.37447e-10   4.72897e-09 DIIS
   @DF-RHF iter  13:  -500.02806011662847   -1.36993e-11   1.61876e-09 DIIS
   @DF-RHF iter  14:  -500.02806011663176   -3.29692e-12   5.51041e-10 DIIS
   @DF-RHF iter  15:  -500.02806011663273   -9.66338e-13   1.87534e-10 DIIS
   @DF-RHF iter  16:  -500.02806011663159    1.13687e-12   6.69680e-11 DIIS
  Energy and wave function converged.


  ==> Post-Iterations <==

    Orbital Energies [Eh]
    ---------------------

    Doubly Occupied:                                                      

       1A    -20.598208     2A    -20.541398     3A    -11.376157  
       4A    -11.288057     5A    -11.244402     6A    -11.242608  
       7A    -11.228300     8A    -11.226626     9A    -11.223678  
      10A    -11.221418    11A    -11.218180    12A     -1.448944  
      13A     -1.348335    14A     -1.112361    15A     -1.064117  
      16A     -1.022860    17A     -0.976096    18A     -0.921687  
      19A     -0.880746    20A     -0.836387    21A     -0.768232  
      22A     -0.721999    23A     -0.688244    24A     -0.679448  
      25A     -0.660818    26A     -0.638674    27A     -0.621784  
      28A     -0.608685    29A     -0.592022    30A     -0.570541  
      31A     -0.557472    32A     -0.546897    33A     -0.533955  
      34A     -0.522763    35A     -0.518141    36A     -0.516553  
      37A     -0.505828    38A     -0.492517    39A     -0.472590  
      40A     -0.463963    41A     -0.457924    42A     -0.445380  
      43A     -0.352142  

    Virtual:                                                              

      44A      0.027198    45A      0.030199    46A      0.033906  
      47A      0.036400    48A      0.040891    49A      0.046526  
      50A      0.047949    51A      0.054541    52A      0.056973  
      53A      0.059381    54A      0.061861    55A      0.066643  
      56A      0.072089    57A      0.079949    58A      0.082665  
      59A      0.091411    60A      0.098021    61A      0.101644  
      62A      0.111502    63A      0.115010    64A      0.116954  
      65A      0.119023    66A      0.121924    67A      0.124703  
      68A      0.126961    69A      0.129727    70A      0.133090  
      71A      0.134540    72A      0.139551    73A      0.143623  
      74A      0.146549    75A      0.147398    76A      0.153633  
      77A      0.155387    78A      0.160546    79A      0.161706  
      80A      0.167171    81A      0.172688    82A      0.175406  
      83A      0.180731    84A      0.182390    85A      0.186525  
      86A      0.189122    87A      0.192526    88A      0.196929  
      89A      0.206244    90A      0.209915    91A      0.213779  
      92A      0.224465    93A      0.229899    94A      0.233590  
      95A      0.239268    96A      0.243843    97A      0.250204  
      98A      0.255366    99A      0.259318   100A      0.262983  
     101A      0.269918   102A      0.271979   103A      0.275064  
     104A      0.279210   105A      0.283357   106A      0.287275  
     107A      0.288541   108A      0.290380   109A      0.295316  
     110A      0.304574   111A      0.305758   112A      0.313970  
     113A      0.318478   114A      0.322775   115A      0.327418  
     116A      0.330653   117A      0.334356   118A      0.336246  
     119A      0.341054   120A      0.343527   121A      0.348362  
     122A      0.350267   123A      0.354739   124A      0.359568  
     125A      0.362539   126A      0.366745   127A      0.367979  
     128A      0.370891   129A      0.372775   130A      0.379719  
     131A      0.381806   132A      0.383213   133A      0.386274  
     134A      0.391745   135A      0.395317   136A      0.399629  
     137A      0.402166   138A      0.405896   139A      0.410024  
     140A      0.410859   141A      0.412747   142A      0.419523  
     143A      0.426238   144A      0.429446   145A      0.432078  
     146A      0.433790   147A      0.435672   148A      0.440471  
     149A      0.443657   150A      0.447396   151A      0.451026  
     152A      0.455934   153A      0.458115   154A      0.460961  
     155A      0.466229   156A      0.468237   157A      0.472015  
     158A      0.472620   159A      0.476989   160A      0.481618  
     161A      0.484366   162A      0.487300   163A      0.492427  
     164A      0.498543   165A      0.500341   166A      0.504664  
     167A      0.506662   168A      0.511757   169A      0.512926  
     170A      0.515404   171A      0.521175   172A      0.524216  
     173A      0.527081   174A      0.529707   175A      0.534720  
     176A      0.538116   177A      0.540041   178A      0.543303  
     179A      0.547882   180A      0.550932   181A      0.557525  
     182A      0.562150   183A      0.563024   184A      0.569506  
     185A      0.572085   186A      0.575256   187A      0.583026  
     188A      0.587184   189A      0.592012   190A      0.593859  
     191A      0.599925   192A      0.600877   193A      0.610268  
     194A      0.614226   195A      0.615572   196A      0.620026  
     197A      0.622844   198A      0.631098   199A      0.632689  
     200A      0.634603   201A      0.636740   202A      0.642584  
     203A      0.655897   204A      0.662644   205A      0.669047  
     206A      0.674956   207A      0.680277   208A      0.688628  
     209A      0.691777   210A      0.694240   211A      0.704651  
     212A      0.710155   213A      0.711896   214A      0.722413  
     215A      0.734759   216A      0.739294   217A      0.746560  
     218A      0.753823   219A      0.755880   220A      0.762896  
     221A      0.769884   222A      0.782880   223A      0.786317  
     224A      0.791901   225A      0.797996   226A      0.805267  
     227A      0.805616   228A      0.811645   229A      0.820774  
     230A      0.827883   231A      0.835384   232A      0.836524  
     233A      0.840502   234A      0.844382   235A      0.848878  
     236A      0.852688   237A      0.858152   238A      0.860932  
     239A      0.864270   240A      0.867418   241A      0.873948  
     242A      0.876079   243A      0.881885   244A      0.882809  
     245A      0.887915   246A      0.891272   247A      0.897556  
     248A      0.903503   249A      0.907213   250A      0.911092  
     251A      0.912811   252A      0.919348   253A      0.922086  
     254A      0.923114   255A      0.929136   256A      0.940528  
     257A      0.944815   258A      0.946247   259A      0.954991  
     260A      0.959028   261A      0.959935   262A      0.960614  
     263A      0.965491   264A      0.967752   265A      0.970351  
     266A      0.973598   267A      0.981286   268A      0.984612  
     269A      0.988191   270A      0.989658   271A      0.997134  
     272A      1.004702   273A      1.009847   274A      1.018395  
     275A      1.019635   276A      1.024413   277A      1.026171  
     278A      1.039669   279A      1.042246   280A      1.045942  
     281A      1.048392   282A      1.049601   283A      1.059117  
     284A      1.059340   285A      1.063484   286A      1.067121  
     287A      1.079370   288A      1.085718   289A      1.086864  
     290A      1.090776   291A      1.099092   292A      1.101124  
     293A      1.105476   294A      1.109453   295A      1.113267  
     296A      1.120037   297A      1.121002   298A      1.127488  
     299A      1.129824   300A      1.131945   301A      1.141175  
     302A      1.143716   303A      1.152281   304A      1.158706  
     305A      1.163177   306A      1.168595   307A      1.173084  
     308A      1.175929   309A      1.184073   310A      1.190889  
     311A      1.198790   312A      1.200950   313A      1.202764  
     314A      1.209554   315A      1.209975   316A      1.218715  
     317A      1.220320   318A      1.224426   319A      1.226749  
     320A      1.236639   321A      1.239748   322A      1.248325  
     323A      1.249385   324A      1.253236   325A      1.256099  
     326A      1.262364   327A      1.272922   328A      1.275245  
     329A      1.280089   330A      1.282404   331A      1.287675  
     332A      1.299348   333A      1.305736   334A      1.310720  
     335A      1.320086   336A      1.321834   337A      1.324019  
     338A      1.329700   339A      1.346573   340A      1.352932  
     341A      1.357941   342A      1.362048   343A      1.365841  
     344A      1.370813   345A      1.378738   346A      1.382809  
     347A      1.390094   348A      1.395689   349A      1.406264  
     350A      1.412805   351A      1.418750   352A      1.425324  
     353A      1.434317   354A      1.440853   355A      1.444191  
     356A      1.445573   357A      1.460485   358A      1.464003  
     359A      1.469726   360A      1.472850   361A      1.478663  
     362A      1.485772   363A      1.489093   364A      1.503139  
     365A      1.505230   366A      1.511354   367A      1.528805  
     368A      1.530013   369A      1.534188   370A      1.540727  
     371A      1.548962   372A      1.558960   373A      1.563162  
     374A      1.569720   375A      1.573512   376A      1.579162  
     377A      1.581941   378A      1.596571   379A      1.602597  
     380A      1.610904   381A      1.617425   382A      1.621583  
     383A      1.626645   384A      1.633884   385A      1.638414  
     386A      1.643222   387A      1.650946   388A      1.654884  
     389A      1.659640   390A      1.670499   391A      1.678046  
     392A      1.679395   393A      1.682230   394A      1.690757  
     395A      1.695695   396A      1.697232   397A      1.697977  
     398A      1.705165   399A      1.709459   400A      1.712838  
     401A      1.719926   402A      1.724196   403A      1.725755  
     404A      1.733523   405A      1.742072   406A      1.747556  
     407A      1.750722   408A      1.754138   409A      1.761015  
     410A      1.766462   411A      1.773060   412A      1.777512  
     413A      1.786230   414A      1.796032   415A      1.798702  
     416A      1.804247   417A      1.814455   418A      1.818049  
     419A      1.819969   420A      1.823634   421A      1.838982  
     422A      1.844173   423A      1.848934   424A      1.853081  
     425A      1.854503   426A      1.863621   427A      1.867218  
     428A      1.879289   429A      1.886502   430A      1.893123  
     431A      1.897807   432A      1.903492   433A      1.904218  
     434A      1.913283   435A      1.921225   436A      1.925709  
     437A      1.934666   438A      1.939027   439A      1.949987  
     440A      1.958702   441A      1.968557   442A      1.972738  
     443A      1.979115   444A      1.980384   445A      1.987293  
     446A      1.988400   447A      2.003404   448A      2.004593  
     449A      2.022572   450A      2.027680   451A      2.031713  
     452A      2.036867   453A      2.037757   454A      2.041807  
     455A      2.048718   456A      2.060552   457A      2.079228  
     458A      2.094190   459A      2.098523   460A      2.103060  
     461A      2.109937   462A      2.116380   463A      2.125064  
     464A      2.135502   465A      2.147410   466A      2.154455  
     467A      2.164339   468A      2.176498   469A      2.185626  
     470A      2.193780   471A      2.195196   472A      2.206913  
     473A      2.215667   474A      2.222687   475A      2.225369  
     476A      2.237154   477A      2.244536   478A      2.248631  
     479A      2.251081   480A      2.264290   481A      2.266439  
     482A      2.277793   483A      2.283116   484A      2.286849  
     485A      2.292067   486A      2.296712   487A      2.306766  
     488A      2.319571   489A      2.335593   490A      2.345499  
     491A      2.354466   492A      2.363851   493A      2.367684  
     494A      2.378561   495A      2.398599   496A      2.403312  
     497A      2.405706   498A      2.414797   499A      2.423025  
     500A      2.436575   501A      2.439000   502A      2.443814  
     503A      2.452119   504A      2.461745   505A      2.470522  
     506A      2.490046   507A      2.502276   508A      2.506171  
     509A      2.518955   510A      2.531962   511A      2.560973  
     512A      2.569100   513A      2.576435   514A      2.592214  
     515A      2.595906   516A      2.612619   517A      2.635960  
     518A      2.640140   519A      2.663939   520A      2.678104  
     521A      2.680184   522A      2.690544   523A      2.712994  
     524A      2.722634   525A      2.727721   526A      2.741009  
     527A      2.752873   528A      2.780337   529A      2.792015  
     530A      2.814106   531A      2.846303   532A      2.851899  
     533A      2.876243   534A      2.879359   535A      2.918656  
     536A      2.948485   537A      2.954878   538A      2.981780  
     539A      3.000200   540A      3.008828   541A      3.021086  
     542A      3.058470   543A      3.089745   544A      3.111443  
     545A      3.140300   546A      3.156148   547A      3.162130  
     548A      3.187499   549A      3.212488   550A      3.227877  
     551A      3.265401   552A      3.300447   553A      3.317851  
     554A      3.327586   555A      3.339519   556A      3.367895  
     557A      3.378295   558A      3.392527   559A      3.405311  
     560A      3.416345   561A      3.425494   562A      3.444172  
     563A      3.448250   564A      3.454375   565A      3.473767  
     566A      3.486972   567A      3.498925   568A      3.501919  
     569A      3.510460   570A      3.526674   571A      3.535719  
     572A      3.537375   573A      3.549905   574A      3.562179  
     575A      3.566212   576A      3.574237   577A      3.578761  
     578A      3.585611   579A      3.602496   580A      3.612538  
     581A      3.623055   582A      3.625725   583A      3.638392  
     584A      3.654785   585A      3.671414   586A      3.673532  
     587A      3.675866   588A      3.690363   589A      3.695762  
     590A      3.696267   591A      3.713127   592A      3.717438  
     593A      3.728299   594A      3.730319   595A      3.740197  
     596A      3.746067   597A      3.750273   598A      3.756862  
     599A      3.767347   600A      3.784945   601A      3.791766  
     602A      3.798112   603A      3.802195   604A      3.808298  
     605A      3.817834   606A      3.828966   607A      3.833200  
     608A      3.843075   609A      3.847562   610A      3.854335  
     611A      3.866350   612A      3.873259   613A      3.881427  
     614A      3.883889   615A      3.893349   616A      3.904568  
     617A      3.911909   618A      3.921927   619A      3.926836  
     620A      3.940427   621A      3.944191   622A      3.948245  
     623A      3.953148   624A      3.956622   625A      3.968980  
     626A      3.978680   627A      3.983732   628A      3.988457  
     629A      3.997045   630A      4.007896   631A      4.009005  
     632A      4.016147   633A      4.021531   634A      4.027004  
     635A      4.040480   636A      4.044441   637A      4.053903  
     638A      4.062788   639A      4.065409   640A      4.080767  
     641A      4.091010   642A      4.099201   643A      4.102465  
     644A      4.112894   645A      4.125305   646A      4.146902  
     647A      4.155583   648A      4.163041   649A      4.172530  
     650A      4.180076   651A      4.181552   652A      4.193964  
     653A      4.196324   654A      4.200978   655A      4.208378  
     656A      4.216650   657A      4.229498   658A      4.240534  
     659A      4.244752   660A      4.257170   661A      4.262386  
     662A      4.268646   663A      4.278366   664A      4.283369  
     665A      4.294467   666A      4.304496   667A      4.311464  
     668A      4.321558   669A      4.337673   670A      4.345919  
     671A      4.350267   672A      4.362306   673A      4.368714  
     674A      4.372641   675A      4.402817   676A      4.418114  
     677A      4.429422   678A      4.434391   679A      4.445014  
     680A      4.453115   681A      4.467714   682A      4.488588  
     683A      4.490972   684A      4.506978   685A      4.516403  
     686A      4.520535   687A      4.530093   688A      4.532944  
     689A      4.539936   690A      4.554278   691A      4.565961  
     692A      4.575733   693A      4.595262   694A      4.605161  
     695A      4.618657   696A      4.628973   697A      4.640687  
     698A      4.652525   699A      4.658250   700A      4.671724  
     701A      4.682873   702A      4.689392   703A      4.704093  
     704A      4.719818   705A      4.729770   706A      4.746115  
     707A      4.758617   708A      4.765761   709A      4.771591  
     710A      4.781998   711A      4.801427   712A      4.826378  
     713A      4.831252   714A      4.837219   715A      4.846727  
     716A      4.852279   717A      4.859183   718A      4.864004  
     719A      4.872535   720A      4.881504   721A      4.891953  
     722A      4.902225   723A      4.920625   724A      4.928153  
     725A      4.934276   726A      4.939930   727A      4.956734  
     728A      4.963650   729A      4.973827   730A      4.989959  
     731A      4.993151   732A      5.016078   733A      5.022638  
     734A      5.044869   735A      5.047213   736A      5.056820  
     737A      5.076430   738A      5.093316   739A      5.100689  
     740A      5.110326   741A      5.113021   742A      5.141397  
     743A      5.148063   744A      5.150918   745A      5.161946  
     746A      5.180463   747A      5.192663   748A      5.200126  
     749A      5.203826   750A      5.219177   751A      5.222659  
     752A      5.228378   753A      5.235961   754A      5.248679  
     755A      5.259360   756A      5.278129   757A      5.281714  
     758A      5.307833   759A      5.308838   760A      5.325685  
     761A      5.337496   762A      5.354717   763A      5.372414  
     764A      5.378246   765A      5.384385   766A      5.402251  
     767A      5.410000   768A      5.420181   769A      5.427990  
     770A      5.446081   771A      5.453351   772A      5.496915  
     773A      5.501132   774A      5.517909   775A      5.530913  
     776A      5.532825   777A      5.549484   778A      5.559629  
     779A      5.561086   780A      5.583639   781A      5.592512  
     782A      5.610317   783A      5.622676   784A      5.624542  
     785A      5.632349   786A      5.656622   787A      5.664011  
     788A      5.672810   789A      5.694121   790A      5.705989  
     791A      5.718929   792A      5.751437   793A      5.768052  
     794A      5.786556   795A      5.794429   796A      5.809007  
     797A      5.850492   798A      5.884611   799A      5.889306  
     800A      5.908153   801A      5.928508   802A      5.955448  
     803A      5.992266   804A      6.012729   805A      6.018400  
     806A      6.054130   807A      6.075520   808A      6.086063  
     809A      6.114810   810A      6.146008   811A      6.152932  
     812A      6.191422   813A      6.201879   814A      6.211620  
     815A      6.226500   816A      6.227968   817A      6.237310  
     818A      6.251674   819A      6.292362   820A      6.303747  
     821A      6.357695   822A      6.391689   823A      6.418285  
     824A      6.429340   825A      6.480268   826A      6.527516  
     827A      6.559617   828A      6.619549   829A      6.698025  
     830A      6.733548   831A      6.783902   832A      6.796978  
     833A      6.801957   834A      6.816825   835A      6.837536  
     836A      6.854125   837A      6.865974   838A      6.889447  
     839A      6.913495   840A      6.948383   841A      6.959691  
     842A      6.990934   843A      7.003099   844A      7.086251  
     845A      7.135646   846A      7.193434   847A      7.258997  
     848A      7.306906   849A      7.336445   850A      7.422050  
     851A      7.464133   852A      7.487794   853A      7.564483  
     854A      7.668720   855A      7.707028   856A      7.742232  
     857A      7.859961   858A      7.866995   859A      7.963546  
     860A      7.983984   861A      8.104630   862A      8.357605  
     863A      8.574971   864A     15.134995   865A     15.948032  
     866A     17.379799   867A     17.506057   868A     17.603110  
     869A     18.051140   870A     18.523726   871A     18.631623  
     872A     19.934864   873A     20.386380   874A     20.786072  

    Final Occupation by Irrep:
              A 
    DOCC [    43 ]

  @DF-RHF Final Energy:  -500.02806011663159

   => Energetics <=

    Nuclear Repulsion Energy =            602.5906225169433128
    One-Electron Energy =               -1875.3230933831141556
    Two-Electron Energy =                 772.7044107495393064
    Total Energy =                       -500.0280601166315364

Computation Completed

*** tstop() called on node91.bme.utexas.edu at Thu Nov  5 08:04:20 2020
Module time:
	user time   =     630.64 seconds =      10.51 minutes
	system time =      69.74 seconds =       1.16 minutes
	total time  =        235 seconds =       3.92 minutes
Total time:
	user time   =     630.64 seconds =      10.51 minutes
	system time =      69.74 seconds =       1.16 minutes
	total time  =        235 seconds =       3.92 minutes
   => Loading Basis Set <=

    Name: (AUG-CC-PVTZ AUX)
    Role: RIFIT
    Keyword: DF_BASIS_MP2
    atoms 1-2   entry O          line   264 file /home/xy3866/psi4conda/share/psi4/basis/aug-cc-pvtz-ri.gbs 
    atoms 3-11  entry C          line   148 file /home/xy3866/psi4conda/share/psi4/basis/aug-cc-pvtz-ri.gbs 
    atoms 12-27 entry H          line    30 file /home/xy3866/psi4conda/share/psi4/basis/aug-cc-pvtz-ri.gbs 


*** tstart() called on node91.bme.utexas.edu
*** at Thu Nov  5 08:04:20 2020


  //>>>>>>>>>>>>>>>>>>>>>>>>>>>>>>>>>>>//
  //               DFMP2               //
  //<<<<<<<<<<<<<<<<<<<<<<<<<<<<<<<<<<<//

	 --------------------------------------------------------
	                          DF-MP2                         
	      2nd-Order Density-Fitted Moller-Plesset Theory     
	              RMP2 Wavefunction,   8 Threads             
	                                                         
	        Rob Parrish, Justin Turney, Andy Simmonett,      
	           Ed Hohenstein, and C. David Sherrill          
	 --------------------------------------------------------

   => Auxiliary Basis Set <=

  Basis Set: (AUG-CC-PVTZ AUX)
    Blend: AUG-CC-PVTZ-RI
    Number of shells: 532
    Number of basis function: 1902
    Number of Cartesian functions: 2376
    Spherical Harmonics?: true
    Max angular momentum: 4

	 --------------------------------------------------------
	                 NBF =   874, NAUX =  1902
	 --------------------------------------------------------
	   CLASS    FOCC     OCC    AOCC    AVIR     VIR    FVIR
	   PAIRS       0      43      43     831     831       0
	 --------------------------------------------------------

  DFHelper Memory: AOs need 9.130 GiB; user supplied 22.352 GiB. Using in-core AOs.


         ------------------------------------------------------------
                                     CPHF                           
                                  Rob Parrish                       
         ------------------------------------------------------------

  ==> Geometry <==

    Molecular point group: c1
    Full point group: C1

    Geometry (in Angstrom), charge = 0, multiplicity = 1:

       Center              X                  Y                   Z               Mass       
    ------------   -----------------  -----------------  -----------------  -----------------
         O            1.072527548014     0.467398651564     0.007238791545    15.994914619570
         O            2.532013548014    -1.113777348436    -0.718854208455    15.994914619570
         C           -2.334951251986    -0.052354848436     0.348205391545    12.000000000000
         C           -3.597184451986     0.773036651564     0.400135791545    12.000000000000
         C           -1.261752451986     0.386311651564    -0.303075208455    12.000000000000
         C            0.009173548014    -0.339330348436    -0.568971208455    12.000000000000
         C           -2.512327451986    -1.482499348436     0.856446791545    12.000000000000
         C           -4.753185151986     0.407381451564    -0.537469308455    12.000000000000
         C            3.355468548014     0.866286651564     0.431550791545    12.000000000000
         C            2.312923548014    -0.052992348436    -0.154793208455    12.000000000000
         C            4.758943548014     0.295677651564     0.307019791545    12.000000000000
         H           -3.328217451986     1.816024651564     0.198142791545     1.007825032230
         H           -3.978096451986     0.738131651564     1.429495791545     1.007825032230
         H           -1.272186451986     1.416848651564    -0.657499208455     1.007825032230
         H            0.203942548014    -0.443367348436    -1.642315208455     1.007825032230
         H            0.048330548014    -1.339151348436    -0.131920208455     1.007825032230
         H           -2.794262451986    -1.423566348436     1.916125791545     1.007825032230
         H           -3.309787451986    -2.033766348436     0.344166791545     1.007825032230
         H           -1.599577451986    -2.076115348436     0.780756791545     1.007825032230
         H           -5.042757451986    -0.674717348436    -0.367138208455     1.007825032230
         H           -4.352694451986     0.392842651564    -1.599224208455     1.007825032230
         H           -5.576820451986     1.006764651564    -0.473469208455     1.007825032230
         H            3.269415548014     1.832769651564    -0.077865208455     1.007825032230
         H            3.088348548014     1.054817651564     1.476103791545     1.007825032230
         H            4.834843548014    -0.659474348436     0.829326791545     1.007825032230
         H            5.011298548014     0.121344651564    -0.740788208455     1.007825032230
         H            5.491418548014     0.985585651564     0.733943791545     1.007825032230

  Nuclear repulsion =  602.590622516943313
  Reference energy  = -500.028060116631593

  ==> Basis Set <==

  Basis Set: AUG-CC-PVTZ
    Blend: AUG-CC-PVTZ
    Number of shells: 298
    Number of basis function: 874
    Number of Cartesian functions: 1005
    Spherical Harmonics?: true
    Max angular momentum: 3

  ==> CGRSolver (by Rob Parrish) <==

   Number of roots    =         1
   Preconditioning    =    JACOBI
   Convergence cutoff =     1E-06
   Maximum iterations =       100

  ==> CPHFRHamiltonian (by Rob Parrish) <== 

  ==> MemDFJK: Density-Fitted J/K Matrices <==

    J tasked:                   Yes
    K tasked:                   Yes
    wK tasked:                   No
    OpenMP threads:               8
    Memory [MiB]:             22888
    Algorithm:                 Disk
    Schwarz Cutoff:           1E-12
    Mask sparsity (%):      16.7820
    Fitting Condition:        1E-10

   => Auxiliary Basis Set <=

  Basis Set: (AUG-CC-PVTZ AUX)
    Blend: AUG-CC-PVTZ-JKFIT
    Number of shells: 554
    Number of basis function: 1880
    Number of Cartesian functions: 2321
    Spherical Harmonics?: true
    Max angular momentum: 4

  ==> CPHF Iterations <==

  => Iterations <=

             Iter  Converged  Remaining    Residual
  CGR           1          0          1   1.068E-01
  CGR           2          0          1   2.923E-02
  CGR           3          0          1   1.072E-02
  CGR           4          0          1   3.653E-03
  CGR           5          0          1   1.424E-03
  CGR           6          0          1   3.583E-04
  CGR           7          0          1   1.155E-04
  CGR           8          0          1   3.458E-05
  CGR           9          0          1   1.430E-05
  CGR          10          0          1   4.911E-06
  CGR          11          0          1   1.938E-06
  CGR          12          1          0   5.128E-07

    CGRSolver converged.

	-----------------------------------------------------------
	 ==================> DF-MP2 Energies <==================== 
	-----------------------------------------------------------
	 Reference Energy          =    -500.0280601166315932 [Eh]
	 Singles Energy            =      -0.0000000000000000 [Eh]
	 Same-Spin Energy          =      -0.5095874552003625 [Eh]
	 Opposite-Spin Energy      =      -1.7169144569739865 [Eh]
	 Correlation Energy        =      -2.2265019121743492 [Eh]
	 Total Energy              =    -502.2545620288059354 [Eh]
	-----------------------------------------------------------
	 ================> DF-SCS-MP2 Energies <================== 
	-----------------------------------------------------------
	 SCS Same-Spin Scale       =       0.3333333333333333 [-]
	 SCS Opposite-Spin Scale   =       1.2000000000000000 [-]
	 SCS Same-Spin Energy      =      -0.1698624850667875 [Eh]
	 SCS Opposite-Spin Energy  =      -2.0602973483687839 [Eh]
	 SCS Correlation Energy    =      -2.2301598334355712 [Eh]
	 SCS Total Energy          =    -502.2582199500671436 [Eh]
	-----------------------------------------------------------



Properties will be evaluated at   0.000000,  -0.000000,  -0.000000 [a0]

Properties computed using the MP2 density matrix

  Nuclear Dipole Moment: [e a0]
     X:    -8.7075      Y:     0.6672      Z:     1.8882

  Electronic Dipole Moment: [e a0]
     X:     8.1571      Y:    -0.1959      Z:    -1.5904

  Dipole Moment: [e a0]
     X:    -0.5504      Y:     0.4712      Z:     0.2978     Total:     0.7834

  Dipole Moment: [D]
     X:    -1.3990      Y:     1.1978      Z:     0.7570     Total:     1.9912


*** tstop() called on node91.bme.utexas.edu at Thu Nov  5 08:12:31 2020
Module time:
	user time   =    2354.21 seconds =      39.24 minutes
	system time =      95.21 seconds =       1.59 minutes
	total time  =        491 seconds =       8.18 minutes
Total time:
	user time   =    2986.02 seconds =      49.77 minutes
	system time =     164.99 seconds =       2.75 minutes
	total time  =        726 seconds =      12.10 minutes

    Psi4 stopped on: Thursday, 05 November 2020 08:12AM
    Psi4 wall time for execution: 0:12:06.98

*** Psi4 exiting successfully. Buy a developer a beer!
