V003_3-Ethylpentane Gaussian SP Calculation on node144.bme.utexas.edu   
Freq      RMP2-FC                                                     6-31G(d)            
Number of atoms                            I               23
Info1-9                                    I   N=           9
          34          33        1002           0           0         100
           6           2           1
Charge                                     I                0
Multiplicity                               I                1
Number of electrons                        I               58
Number of alpha electrons                  I               29
Number of beta electrons                   I               29
Number of basis functions                  I              137
Number of independent functions            I              137
Number of point charges in /Mol/           I                0
Number of translation vectors              I                0
Atomic numbers                             I   N=          23
           6           6           6           6           6           6
           6           1           1           1           1           1
           1           1           1           1           1           1
           1           1           1           1           1
Nuclear charges                            R   N=          23
  6.00000000E+00  6.00000000E+00  6.00000000E+00  6.00000000E+00  6.00000000E+00
  6.00000000E+00  6.00000000E+00  1.00000000E+00  1.00000000E+00  1.00000000E+00
  1.00000000E+00  1.00000000E+00  1.00000000E+00  1.00000000E+00  1.00000000E+00
  1.00000000E+00  1.00000000E+00  1.00000000E+00  1.00000000E+00  1.00000000E+00
  1.00000000E+00  1.00000000E+00  1.00000000E+00
Current cartesian coordinates              R   N=          69
 -2.83705283E-08 -8.05164243E-01  5.81297951E-01  2.37060817E+00 -1.60898463E+00
 -8.82802147E-01  7.75045592E-07  2.01064904E+00  1.28670664E+00 -2.37060841E+00
 -1.60898396E+00 -8.82802172E-01  4.86353511E+00 -1.04973530E+00  4.59305187E-01
 -3.99435067E-07  3.83125009E+00 -9.54526845E-01 -4.86353526E+00 -1.04973547E+00
  4.59305552E-01 -7.41596199E-08 -1.86680394E+00  2.37324553E+00  2.23972755E+00
 -3.64847182E+00 -1.23766826E+00  2.36826196E+00 -7.08773056E-01 -2.75076043E+00
  1.64728389E+00  2.40253239E+00  2.47912915E+00 -1.64728027E+00  2.40253314E+00
  2.47913173E+00 -2.36826240E+00 -7.08771523E-01 -2.75076003E+00 -2.23972771E+00
 -3.64847096E+00 -1.23766929E+00  5.21677422E+00  9.79669696E-01  6.13105790E-01
  6.45354535E+00 -1.88103805E+00 -5.68663941E-01  4.86392099E+00 -1.84120819E+00
  2.37128199E+00  1.66983806E+00  3.57749651E+00 -2.14570952E+00 -4.56118593E-07
  5.79061442E+00 -2.93584684E-01 -1.66983968E+00  3.57749600E+00 -2.14570827E+00
 -6.45354560E+00 -1.88103671E+00 -5.68664643E-01 -5.21677397E+00  9.79669425E-01
  6.13108361E-01 -4.86392160E+00 -1.84121048E+00  2.37128149E+00
Force Field                                I                0
Int Atom Types                             I   N=          23
           0           0           0           0           0           0
           0           0           0           0           0           0
           0           0           0           0           0           0
           0           0           0           0           0
MM charges                                 R   N=          23
  0.00000000E+00  0.00000000E+00  0.00000000E+00  0.00000000E+00  0.00000000E+00
  0.00000000E+00  0.00000000E+00  0.00000000E+00  0.00000000E+00  0.00000000E+00
  0.00000000E+00  0.00000000E+00  0.00000000E+00  0.00000000E+00  0.00000000E+00
  0.00000000E+00  0.00000000E+00  0.00000000E+00  0.00000000E+00  0.00000000E+00
  0.00000000E+00  0.00000000E+00  0.00000000E+00
Integer atomic weights                     I   N=          23
          12          12          12          12          12          12
          12           1           1           1           1           1
           1           1           1           1           1           1
           1           1           1           1           1
Real atomic weights                        R   N=          23
  1.20000000E+01  1.20000000E+01  1.20000000E+01  1.20000000E+01  1.20000000E+01
  1.20000000E+01  1.20000000E+01  1.00782504E+00  1.00782504E+00  1.00782504E+00
  1.00782504E+00  1.00782504E+00  1.00782504E+00  1.00782504E+00  1.00782504E+00
  1.00782504E+00  1.00782504E+00  1.00782504E+00  1.00782504E+00  1.00782504E+00
  1.00782504E+00  1.00782504E+00  1.00782504E+00
Atom fragment info                         I   N=          23
           0           0           0           0           0           0
           0           0           0           0           0           0
           0           0           0           0           0           0
           0           0           0           0           0
Atom residue num                           I   N=          23
           0           0           0           0           0           0
           0           0           0           0           0           0
           0           0           0           0           0           0
           0           0           0           0           0
Nuclear spins                              I   N=          23
           0           0           0           0           0           0
           0           1           1           1           1           1
           1           1           1           1           1           1
           1           1           1           1           1
Nuclear ZEff                               R   N=          23
 -3.60000000E+00 -3.60000000E+00 -3.60000000E+00 -3.60000000E+00 -3.60000000E+00
 -3.60000000E+00 -3.60000000E+00 -1.00000000E+00 -1.00000000E+00 -1.00000000E+00
 -1.00000000E+00 -1.00000000E+00 -1.00000000E+00 -1.00000000E+00 -1.00000000E+00
 -1.00000000E+00 -1.00000000E+00 -1.00000000E+00 -1.00000000E+00 -1.00000000E+00
 -1.00000000E+00 -1.00000000E+00 -1.00000000E+00
Nuclear QMom                               R   N=          23
  0.00000000E+00  0.00000000E+00  0.00000000E+00  0.00000000E+00  0.00000000E+00
  0.00000000E+00  0.00000000E+00  0.00000000E+00  0.00000000E+00  0.00000000E+00
  0.00000000E+00  0.00000000E+00  0.00000000E+00  0.00000000E+00  0.00000000E+00
  0.00000000E+00  0.00000000E+00  0.00000000E+00  0.00000000E+00  0.00000000E+00
  0.00000000E+00  0.00000000E+00  0.00000000E+00
Nuclear GFac                               R   N=          23
  0.00000000E+00  0.00000000E+00  0.00000000E+00  0.00000000E+00  0.00000000E+00
  0.00000000E+00  0.00000000E+00  2.79284600E+00  2.79284600E+00  2.79284600E+00
  2.79284600E+00  2.79284600E+00  2.79284600E+00  2.79284600E+00  2.79284600E+00
  2.79284600E+00  2.79284600E+00  2.79284600E+00  2.79284600E+00  2.79284600E+00
  2.79284600E+00  2.79284600E+00  2.79284600E+00
MicOpt                                     I   N=          23
          -1          -1          -1          -1          -1          -1
          -1          -1          -1          -1          -1          -1
          -1          -1          -1          -1          -1          -1
          -1          -1          -1          -1          -1
Number of contracted shells                I               60
Number of primitive shells                 I              141
Pure/Cartesian d shells                    I                1
Pure/Cartesian f shells                    I                0
Highest angular momentum                   I                2
Largest degree of contraction              I                6
Shell types                                I   N=          60
           0          -1          -1           2           0          -1
          -1           2           0          -1          -1           2
           0          -1          -1           2           0          -1
          -1           2           0          -1          -1           2
           0          -1          -1           2           0           0
           0           0           0           0           0           0
           0           0           0           0           0           0
           0           0           0           0           0           0
           0           0           0           0           0           0
           0           0           0           0           0           0
Number of primitives per shell             I   N=          60
           6           3           1           1           6           3
           1           1           6           3           1           1
           6           3           1           1           6           3
           1           1           6           3           1           1
           6           3           1           1           3           1
           3           1           3           1           3           1
           3           1           3           1           3           1
           3           1           3           1           3           1
           3           1           3           1           3           1
           3           1           3           1           3           1
Shell to atom map                          I   N=          60
           1           1           1           1           2           2
           2           2           3           3           3           3
           4           4           4           4           5           5
           5           5           6           6           6           6
           7           7           7           7           8           8
           9           9          10          10          11          11
          12          12          13          13          14          14
          15          15          16          16          17          17
          18          18          19          19          20          20
          21          21          22          22          23          23
Primitive exponents                        R   N=         141
  3.04752488E+03  4.57369518E+02  1.03948685E+02  2.92101553E+01  9.28666296E+00
  3.16392696E+00  7.86827235E+00  1.88128854E+00  5.44249258E-01  1.68714478E-01
  8.00000000E-01  3.04752488E+03  4.57369518E+02  1.03948685E+02  2.92101553E+01
  9.28666296E+00  3.16392696E+00  7.86827235E+00  1.88128854E+00  5.44249258E-01
  1.68714478E-01  8.00000000E-01  3.04752488E+03  4.57369518E+02  1.03948685E+02
  2.92101553E+01  9.28666296E+00  3.16392696E+00  7.86827235E+00  1.88128854E+00
  5.44249258E-01  1.68714478E-01  8.00000000E-01  3.04752488E+03  4.57369518E+02
  1.03948685E+02  2.92101553E+01  9.28666296E+00  3.16392696E+00  7.86827235E+00
  1.88128854E+00  5.44249258E-01  1.68714478E-01  8.00000000E-01  3.04752488E+03
  4.57369518E+02  1.03948685E+02  2.92101553E+01  9.28666296E+00  3.16392696E+00
  7.86827235E+00  1.88128854E+00  5.44249258E-01  1.68714478E-01  8.00000000E-01
  3.04752488E+03  4.57369518E+02  1.03948685E+02  2.92101553E+01  9.28666296E+00
  3.16392696E+00  7.86827235E+00  1.88128854E+00  5.44249258E-01  1.68714478E-01
  8.00000000E-01  3.04752488E+03  4.57369518E+02  1.03948685E+02  2.92101553E+01
  9.28666296E+00  3.16392696E+00  7.86827235E+00  1.88128854E+00  5.44249258E-01
  1.68714478E-01  8.00000000E-01  1.87311370E+01  2.82539436E+00  6.40121692E-01
  1.61277759E-01  1.87311370E+01  2.82539436E+00  6.40121692E-01  1.61277759E-01
  1.87311370E+01  2.82539436E+00  6.40121692E-01  1.61277759E-01  1.87311370E+01
  2.82539436E+00  6.40121692E-01  1.61277759E-01  1.87311370E+01  2.82539436E+00
  6.40121692E-01  1.61277759E-01  1.87311370E+01  2.82539436E+00  6.40121692E-01
  1.61277759E-01  1.87311370E+01  2.82539436E+00  6.40121692E-01  1.61277759E-01
  1.87311370E+01  2.82539436E+00  6.40121692E-01  1.61277759E-01  1.87311370E+01
  2.82539436E+00  6.40121692E-01  1.61277759E-01  1.87311370E+01  2.82539436E+00
  6.40121692E-01  1.61277759E-01  1.87311370E+01  2.82539436E+00  6.40121692E-01
  1.61277759E-01  1.87311370E+01  2.82539436E+00  6.40121692E-01  1.61277759E-01
  1.87311370E+01  2.82539436E+00  6.40121692E-01  1.61277759E-01  1.87311370E+01
  2.82539436E+00  6.40121692E-01  1.61277759E-01  1.87311370E+01  2.82539436E+00
  6.40121692E-01  1.61277759E-01  1.87311370E+01  2.82539436E+00  6.40121692E-01
  1.61277759E-01
Contraction coefficients                   R   N=         141
  1.83473713E-03  1.40373228E-02  6.88426223E-02  2.32184443E-01  4.67941348E-01
  3.62311985E-01 -1.19332420E-01 -1.60854152E-01  1.14345644E+00  1.00000000E+00
  1.00000000E+00  1.83473713E-03  1.40373228E-02  6.88426223E-02  2.32184443E-01
  4.67941348E-01  3.62311985E-01 -1.19332420E-01 -1.60854152E-01  1.14345644E+00
  1.00000000E+00  1.00000000E+00  1.83473713E-03  1.40373228E-02  6.88426223E-02
  2.32184443E-01  4.67941348E-01  3.62311985E-01 -1.19332420E-01 -1.60854152E-01
  1.14345644E+00  1.00000000E+00  1.00000000E+00  1.83473713E-03  1.40373228E-02
  6.88426223E-02  2.32184443E-01  4.67941348E-01  3.62311985E-01 -1.19332420E-01
 -1.60854152E-01  1.14345644E+00  1.00000000E+00  1.00000000E+00  1.83473713E-03
  1.40373228E-02  6.88426223E-02  2.32184443E-01  4.67941348E-01  3.62311985E-01
 -1.19332420E-01 -1.60854152E-01  1.14345644E+00  1.00000000E+00  1.00000000E+00
  1.83473713E-03  1.40373228E-02  6.88426223E-02  2.32184443E-01  4.67941348E-01
  3.62311985E-01 -1.19332420E-01 -1.60854152E-01  1.14345644E+00  1.00000000E+00
  1.00000000E+00  1.83473713E-03  1.40373228E-02  6.88426223E-02  2.32184443E-01
  4.67941348E-01  3.62311985E-01 -1.19332420E-01 -1.60854152E-01  1.14345644E+00
  1.00000000E+00  1.00000000E+00  3.34946043E-02  2.34726953E-01  8.13757326E-01
  1.00000000E+00  3.34946043E-02  2.34726953E-01  8.13757326E-01  1.00000000E+00
  3.34946043E-02  2.34726953E-01  8.13757326E-01  1.00000000E+00  3.34946043E-02
  2.34726953E-01  8.13757326E-01  1.00000000E+00  3.34946043E-02  2.34726953E-01
  8.13757326E-01  1.00000000E+00  3.34946043E-02  2.34726953E-01  8.13757326E-01
  1.00000000E+00  3.34946043E-02  2.34726953E-01  8.13757326E-01  1.00000000E+00
  3.34946043E-02  2.34726953E-01  8.13757326E-01  1.00000000E+00  3.34946043E-02
  2.34726953E-01  8.13757326E-01  1.00000000E+00  3.34946043E-02  2.34726953E-01
  8.13757326E-01  1.00000000E+00  3.34946043E-02  2.34726953E-01  8.13757326E-01
  1.00000000E+00  3.34946043E-02  2.34726953E-01  8.13757326E-01  1.00000000E+00
  3.34946043E-02  2.34726953E-01  8.13757326E-01  1.00000000E+00  3.34946043E-02
  2.34726953E-01  8.13757326E-01  1.00000000E+00  3.34946043E-02  2.34726953E-01
  8.13757326E-01  1.00000000E+00  3.34946043E-02  2.34726953E-01  8.13757326E-01
  1.00000000E+00
P(S=P) Contraction coefficients            R   N=         141
  0.00000000E+00  0.00000000E+00  0.00000000E+00  0.00000000E+00  0.00000000E+00
  0.00000000E+00  6.89990666E-02  3.16423961E-01  7.44308291E-01  1.00000000E+00
  0.00000000E+00  0.00000000E+00  0.00000000E+00  0.00000000E+00  0.00000000E+00
  0.00000000E+00  0.00000000E+00  6.89990666E-02  3.16423961E-01  7.44308291E-01
  1.00000000E+00  0.00000000E+00  0.00000000E+00  0.00000000E+00  0.00000000E+00
  0.00000000E+00  0.00000000E+00  0.00000000E+00  6.89990666E-02  3.16423961E-01
  7.44308291E-01  1.00000000E+00  0.00000000E+00  0.00000000E+00  0.00000000E+00
  0.00000000E+00  0.00000000E+00  0.00000000E+00  0.00000000E+00  6.89990666E-02
  3.16423961E-01  7.44308291E-01  1.00000000E+00  0.00000000E+00  0.00000000E+00
  0.00000000E+00  0.00000000E+00  0.00000000E+00  0.00000000E+00  0.00000000E+00
  6.89990666E-02  3.16423961E-01  7.44308291E-01  1.00000000E+00  0.00000000E+00
  0.00000000E+00  0.00000000E+00  0.00000000E+00  0.00000000E+00  0.00000000E+00
  0.00000000E+00  6.89990666E-02  3.16423961E-01  7.44308291E-01  1.00000000E+00
  0.00000000E+00  0.00000000E+00  0.00000000E+00  0.00000000E+00  0.00000000E+00
  0.00000000E+00  0.00000000E+00  6.89990666E-02  3.16423961E-01  7.44308291E-01
  1.00000000E+00  0.00000000E+00  0.00000000E+00  0.00000000E+00  0.00000000E+00
  0.00000000E+00  0.00000000E+00  0.00000000E+00  0.00000000E+00  0.00000000E+00
  0.00000000E+00  0.00000000E+00  0.00000000E+00  0.00000000E+00  0.00000000E+00
  0.00000000E+00  0.00000000E+00  0.00000000E+00  0.00000000E+00  0.00000000E+00
  0.00000000E+00  0.00000000E+00  0.00000000E+00  0.00000000E+00  0.00000000E+00
  0.00000000E+00  0.00000000E+00  0.00000000E+00  0.00000000E+00  0.00000000E+00
  0.00000000E+00  0.00000000E+00  0.00000000E+00  0.00000000E+00  0.00000000E+00
  0.00000000E+00  0.00000000E+00  0.00000000E+00  0.00000000E+00  0.00000000E+00
  0.00000000E+00  0.00000000E+00  0.00000000E+00  0.00000000E+00  0.00000000E+00
  0.00000000E+00  0.00000000E+00  0.00000000E+00  0.00000000E+00  0.00000000E+00
  0.00000000E+00  0.00000000E+00  0.00000000E+00  0.00000000E+00  0.00000000E+00
  0.00000000E+00  0.00000000E+00  0.00000000E+00  0.00000000E+00  0.00000000E+00
  0.00000000E+00  0.00000000E+00  0.00000000E+00  0.00000000E+00  0.00000000E+00
  0.00000000E+00
Coordinates of each shell                  R   N=         180
 -2.83705283E-08 -8.05164243E-01  5.81297951E-01 -2.83705283E-08 -8.05164243E-01
  5.81297951E-01 -2.83705283E-08 -8.05164243E-01  5.81297951E-01 -2.83705283E-08
 -8.05164243E-01  5.81297951E-01  2.37060817E+00 -1.60898463E+00 -8.82802147E-01
  2.37060817E+00 -1.60898463E+00 -8.82802147E-01  2.37060817E+00 -1.60898463E+00
 -8.82802147E-01  2.37060817E+00 -1.60898463E+00 -8.82802147E-01  7.75045592E-07
  2.01064904E+00  1.28670664E+00  7.75045592E-07  2.01064904E+00  1.28670664E+00
  7.75045592E-07  2.01064904E+00  1.28670664E+00  7.75045592E-07  2.01064904E+00
  1.28670664E+00 -2.37060841E+00 -1.60898396E+00 -8.82802172E-01 -2.37060841E+00
 -1.60898396E+00 -8.82802172E-01 -2.37060841E+00 -1.60898396E+00 -8.82802172E-01
 -2.37060841E+00 -1.60898396E+00 -8.82802172E-01  4.86353511E+00 -1.04973530E+00
  4.59305187E-01  4.86353511E+00 -1.04973530E+00  4.59305187E-01  4.86353511E+00
 -1.04973530E+00  4.59305187E-01  4.86353511E+00 -1.04973530E+00  4.59305187E-01
 -3.99435067E-07  3.83125009E+00 -9.54526845E-01 -3.99435067E-07  3.83125009E+00
 -9.54526845E-01 -3.99435067E-07  3.83125009E+00 -9.54526845E-01 -3.99435067E-07
  3.83125009E+00 -9.54526845E-01 -4.86353526E+00 -1.04973547E+00  4.59305552E-01
 -4.86353526E+00 -1.04973547E+00  4.59305552E-01 -4.86353526E+00 -1.04973547E+00
  4.59305552E-01 -4.86353526E+00 -1.04973547E+00  4.59305552E-01 -7.41596199E-08
 -1.86680394E+00  2.37324553E+00 -7.41596199E-08 -1.86680394E+00  2.37324553E+00
  2.23972755E+00 -3.64847182E+00 -1.23766826E+00  2.23972755E+00 -3.64847182E+00
 -1.23766826E+00  2.36826196E+00 -7.08773056E-01 -2.75076043E+00  2.36826196E+00
 -7.08773056E-01 -2.75076043E+00  1.64728389E+00  2.40253239E+00  2.47912915E+00
  1.64728389E+00  2.40253239E+00  2.47912915E+00 -1.64728027E+00  2.40253314E+00
  2.47913173E+00 -1.64728027E+00  2.40253314E+00  2.47913173E+00 -2.36826240E+00
 -7.08771523E-01 -2.75076003E+00 -2.36826240E+00 -7.08771523E-01 -2.75076003E+00
 -2.23972771E+00 -3.64847096E+00 -1.23766929E+00 -2.23972771E+00 -3.64847096E+00
 -1.23766929E+00  5.21677422E+00  9.79669696E-01  6.13105790E-01  5.21677422E+00
  9.79669696E-01  6.13105790E-01  6.45354535E+00 -1.88103805E+00 -5.68663941E-01
  6.45354535E+00 -1.88103805E+00 -5.68663941E-01  4.86392099E+00 -1.84120819E+00
  2.37128199E+00  4.86392099E+00 -1.84120819E+00  2.37128199E+00  1.66983806E+00
  3.57749651E+00 -2.14570952E+00  1.66983806E+00  3.57749651E+00 -2.14570952E+00
 -4.56118593E-07  5.79061442E+00 -2.93584684E-01 -4.56118593E-07  5.79061442E+00
 -2.93584684E-01 -1.66983968E+00  3.57749600E+00 -2.14570827E+00 -1.66983968E+00
  3.57749600E+00 -2.14570827E+00 -6.45354560E+00 -1.88103671E+00 -5.68664643E-01
 -6.45354560E+00 -1.88103671E+00 -5.68664643E-01 -5.21677397E+00  9.79669425E-01
  6.13108361E-01 -5.21677397E+00  9.79669425E-01  6.13108361E-01 -4.86392160E+00
 -1.84121048E+00  2.37128149E+00 -4.86392160E+00 -1.84121048E+00  2.37128149E+00
Constraint Structure                       R   N=          69
 -2.83705283E-08 -8.05164243E-01  5.81297951E-01  2.37060817E+00 -1.60898463E+00
 -8.82802147E-01  7.75045592E-07  2.01064904E+00  1.28670664E+00 -2.37060841E+00
 -1.60898396E+00 -8.82802172E-01  4.86353511E+00 -1.04973530E+00  4.59305187E-01
 -3.99435067E-07  3.83125009E+00 -9.54526845E-01 -4.86353526E+00 -1.04973547E+00
  4.59305552E-01 -7.41596199E-08 -1.86680394E+00  2.37324553E+00  2.23972755E+00
 -3.64847182E+00 -1.23766826E+00  2.36826196E+00 -7.08773056E-01 -2.75076043E+00
  1.64728389E+00  2.40253239E+00  2.47912915E+00 -1.64728027E+00  2.40253314E+00
  2.47913173E+00 -2.36826240E+00 -7.08771523E-01 -2.75076003E+00 -2.23972771E+00
 -3.64847096E+00 -1.23766929E+00  5.21677422E+00  9.79669696E-01  6.13105790E-01
  6.45354535E+00 -1.88103805E+00 -5.68663941E-01  4.86392099E+00 -1.84120819E+00
  2.37128199E+00  1.66983806E+00  3.57749651E+00 -2.14570952E+00 -4.56118593E-07
  5.79061442E+00 -2.93584684E-01 -1.66983968E+00  3.57749600E+00 -2.14570827E+00
 -6.45354560E+00 -1.88103671E+00 -5.68664643E-01 -5.21677397E+00  9.79669425E-01
  6.13108361E-01 -4.86392160E+00 -1.84121048E+00  2.37128149E+00
Num ILSW                                   I              100
ILSW                                       I   N=         100
           0           1           0           0           2           0
           0           0           0           0           0          -1
           0           0           0           0           0           0
           0           0           0           0           1           0
           1           0           0           0           0           0
           0           0      100000           0          -1           0
           0           0           0           0           0           0
           0           0           0           1           1           0
           0           0           1           0           0           0
           0           0           4          40           0           0
           0           0           0           0           0           0
           0           0           0           0           0           0
           0           0           0           0           0           0
           0           0           0           0           0           0
           0           0           0           0           0           0
           0           0           0           0           0           0
           0           0           0           0
Num RLSW                                   I               40
RLSW                                       R   N=          40
  1.00000000E+00  1.00000000E+00  1.00000000E+00  1.00000000E+00  1.00000000E+00
  0.00000000E+00  0.00000000E+00  1.00000000E+00  0.00000000E+00  0.00000000E+00
  0.00000000E+00  0.00000000E+00  1.00000000E+00  0.00000000E+00  0.00000000E+00
  0.00000000E+00  0.00000000E+00  1.00000000E+00  0.00000000E+00  0.00000000E+00
  0.00000000E+00  0.00000000E+00  1.00000000E+00  0.00000000E+00  0.00000000E+00
  0.00000000E+00  0.00000000E+00  1.00000000E+00  0.00000000E+00  0.00000000E+00
  0.00000000E+00  0.00000000E+00  0.00000000E+00  0.00000000E+00  0.00000000E+00
  0.00000000E+00  0.00000000E+00  0.00000000E+00  1.00000000E+00  1.00000000E+00
MxBond                                     I                4
NBond                                      I   N=          23
           4           4           4           4           4           4
           4           1           1           1           1           1
           1           1           1           1           1           1
           1           1           1           1           1
IBond                                      I   N=          92
           2           3           4           8           1           5
           9          10           1           6          11          12
           1           7          13          14           2          15
          16          17           3          18          19          20
           4          21          22          23           1           0
           0           0           2           0           0           0
           2           0           0           0           3           0
           0           0           3           0           0           0
           4           0           0           0           4           0
           0           0           5           0           0           0
           5           0           0           0           5           0
           0           0           6           0           0           0
           6           0           0           0           6           0
           0           0           7           0           0           0
           7           0           0           0           7           0
           0           0
RBond                                      R   N=          92
  1.00000000E+00  1.00000000E+00  1.00000000E+00  1.00000000E+00  1.00000000E+00
  1.00000000E+00  1.00000000E+00  1.00000000E+00  1.00000000E+00  1.00000000E+00
  1.00000000E+00  1.00000000E+00  1.00000000E+00  1.00000000E+00  1.00000000E+00
  1.00000000E+00  1.00000000E+00  1.00000000E+00  1.00000000E+00  1.00000000E+00
  1.00000000E+00  1.00000000E+00  1.00000000E+00  1.00000000E+00  1.00000000E+00
  1.00000000E+00  1.00000000E+00  1.00000000E+00  1.00000000E+00  0.00000000E+00
  0.00000000E+00  0.00000000E+00  1.00000000E+00  0.00000000E+00  0.00000000E+00
  0.00000000E+00  1.00000000E+00  0.00000000E+00  0.00000000E+00  0.00000000E+00
  1.00000000E+00  0.00000000E+00  0.00000000E+00  0.00000000E+00  1.00000000E+00
  0.00000000E+00  0.00000000E+00  0.00000000E+00  1.00000000E+00  0.00000000E+00
  0.00000000E+00  0.00000000E+00  1.00000000E+00  0.00000000E+00  0.00000000E+00
  0.00000000E+00  1.00000000E+00  0.00000000E+00  0.00000000E+00  0.00000000E+00
  1.00000000E+00  0.00000000E+00  0.00000000E+00  0.00000000E+00  1.00000000E+00
  0.00000000E+00  0.00000000E+00  0.00000000E+00  1.00000000E+00  0.00000000E+00
  0.00000000E+00  0.00000000E+00  1.00000000E+00  0.00000000E+00  0.00000000E+00
  0.00000000E+00  1.00000000E+00  0.00000000E+00  0.00000000E+00  0.00000000E+00
  1.00000000E+00  0.00000000E+00  0.00000000E+00  0.00000000E+00  1.00000000E+00
  0.00000000E+00  0.00000000E+00  0.00000000E+00  1.00000000E+00  0.00000000E+00
  0.00000000E+00  0.00000000E+00
Virial Ratio                               R      2.000926068984898E+00
SCF Energy                                 R     -2.743943973566367E+02
MP2 Energy                                 R     -2.753220845839662E+02
Total Energy                               R     -2.753220845839662E+02
Post-SCF wavefunction norm                 R      1.619137325680892E+00
RMS Force                                  R      1.305210921768195E-07
RMS Density                                R      9.747486495893430E-10
External E-field                           R   N=          35
  0.00000000E+00  0.00000000E+00  0.00000000E+00  0.00000000E+00  0.00000000E+00
  0.00000000E+00  0.00000000E+00  0.00000000E+00  0.00000000E+00  0.00000000E+00
  0.00000000E+00  0.00000000E+00  0.00000000E+00  0.00000000E+00  0.00000000E+00
  0.00000000E+00  0.00000000E+00  0.00000000E+00  0.00000000E+00  0.00000000E+00
  0.00000000E+00  0.00000000E+00  0.00000000E+00  0.00000000E+00  0.00000000E+00
  0.00000000E+00  0.00000000E+00  0.00000000E+00  0.00000000E+00  0.00000000E+00
  0.00000000E+00  0.00000000E+00  0.00000000E+00  0.00000000E+00  0.00000000E+00
IOpCl                                      I                0
IROHF                                      I                0
Alpha Orbital Energies                     R   N=         137
 -1.12182866E+01 -1.12136956E+01 -1.12136481E+01 -1.12129768E+01 -1.12100270E+01
 -1.12100255E+01 -1.12098225E+01 -1.10206938E+00 -1.01317646E+00 -1.00420354E+00
 -9.18888726E-01 -8.50369015E-01 -8.16766429E-01 -7.34886305E-01 -6.47201576E-01
 -6.33610150E-01 -5.94891373E-01 -5.61537551E-01 -5.57972610E-01 -5.57315278E-01
 -5.46169396E-01 -5.16674554E-01 -5.00386015E-01 -4.95869863E-01 -4.83438500E-01
 -4.70129031E-01 -4.41521234E-01 -4.33861598E-01 -4.33630733E-01  2.13811878E-01
  2.51319444E-01  2.55182989E-01  2.70586452E-01  2.94070683E-01  3.02112402E-01
  3.04890252E-01  3.15314754E-01  3.26042344E-01  3.29579371E-01  3.38154532E-01
  3.41263407E-01  3.66629895E-01  3.79903300E-01  3.80942473E-01  3.98681340E-01
  4.02308732E-01  4.16050411E-01  4.33353014E-01  4.48598517E-01  4.65748213E-01
  4.92660276E-01  6.90742978E-01  7.01064783E-01  7.18790200E-01  7.36456859E-01
  7.36615154E-01  7.72626016E-01  8.09542574E-01  8.17876431E-01  8.63098395E-01
  9.03770226E-01  9.15277866E-01  9.26653670E-01  9.47145412E-01  9.67050451E-01
  9.83966068E-01  1.05226826E+00  1.05856457E+00  1.09341324E+00  1.13548540E+00
  1.13827451E+00  1.15343502E+00  1.16132616E+00  1.16533248E+00  1.17319282E+00
  1.17710896E+00  1.18120066E+00  1.18425321E+00  1.21233517E+00  1.21922862E+00
  1.22795398E+00  1.24738187E+00  1.26052550E+00  1.26104456E+00  1.27614752E+00
  1.27867026E+00  1.30978313E+00  1.32971133E+00  1.34224674E+00  1.46221208E+00
  1.61133745E+00  1.67126755E+00  1.69417785E+00  1.77658847E+00  1.78975756E+00
  1.85712636E+00  1.87832995E+00  1.93349206E+00  1.95113904E+00  2.01231725E+00
  2.05846061E+00  2.12546550E+00  2.19000765E+00  2.21492941E+00  2.26514352E+00
  2.27610900E+00  2.29939018E+00  2.31293337E+00  2.32743146E+00  2.33701942E+00
  2.37841983E+00  2.43311739E+00  2.45553102E+00  2.47008553E+00  2.57908535E+00
  2.65199998E+00  2.66208197E+00  2.66570453E+00  2.68431859E+00  2.69349779E+00
  2.69819072E+00  2.70314368E+00  2.76777239E+00  2.85837604E+00  2.91961942E+00
  2.93506513E+00  2.94991829E+00  3.09653942E+00  3.15356535E+00  3.16674997E+00
  4.54614866E+00  4.64349238E+00  4.65235406E+00  4.82505746E+00  4.85388942E+00
  4.89766006E+00  5.05237174E+00