
    -----------------------------------------------------------------------
          Psi4: An Open-Source Ab Initio Electronic Structure Package
                               Psi4 1.4a3.dev225 

                         Git: Rev {master} 7105e37 


    D. G. A. Smith, L. A. Burns, A. C. Simmonett, R. M. Parrish,
    M. C. Schieber, R. Galvelis, P. Kraus, H. Kruse, R. Di Remigio,
    A. Alenaizan, A. M. James, S. Lehtola, J. P. Misiewicz, M. Scheurer,
    R. A. Shaw, J. B. Schriber, Y. Xie, Z. L. Glick, D. A. Sirianni,
    J. S. O'Brien, J. M. Waldrop, A. Kumar, E. G. Hohenstein,
    B. P. Pritchard, B. R. Brooks, H. F. Schaefer III, A. Yu. Sokolov,
    K. Patkowski, A. E. DePrince III, U. Bozkaya, R. A. King,
    F. A. Evangelista, J. M. Turney, T. D. Crawford, C. D. Sherrill,
    J. Chem. Phys. 152(18) 184108 (2020). https://doi.org/10.1063/5.0006002

                            Additional Code Authors
    E. T. Seidl, C. L. Janssen, E. F. Valeev, M. L. Leininger,
    J. F. Gonthier, R. M. Richard, H. R. McAlexander, M. Saitow, X. Wang,
    P. Verma, and M. H. Lechner

             Previous Authors, Complete List of Code Contributors,
                       and Citations for Specific Modules
    https://github.com/psi4/psi4/blob/master/codemeta.json
    https://github.com/psi4/psi4/graphs/contributors
    http://psicode.org/psi4manual/master/introduction.html#citing-psifour

    -----------------------------------------------------------------------


    Psi4 started on: Saturday, 20 March 2021 11:57AM

    Process ID: 99305
    Host:       c445-113.stampede2.tacc.utexas.edu
    PSIDATADIR: /home1/07844/xy3866/miniconda3/envs/p4env/share/psi4
    Memory:     500.0 MiB
    Threads:    32
    
  ==> Input File <==

--------------------------------------------------------------------------
#psi4
#
memory 32 gb

molecule  {
-1 1
  O       -1.0485690    -0.0000230     1.2804550
  O       -1.8085780     0.0000120    -0.8608380
  C        0.5680610     0.0000050    -0.4771230
  C        1.2889140    -1.2559050     0.0104430
  C        1.2889010     1.2559130     0.0104710
  C       -0.8480241    -0.0000037     0.0034332
  H        0.5489340     0.0000180    -1.5740110
  H        0.7977980    -2.1625660    -0.3602090
  H        2.3325250    -1.2756680    -0.3244140
  H        1.2723070    -1.2837030     1.1032290
  H        0.7977740     2.1625770    -0.3601580
  H        2.3325120     1.2756960    -0.3243870
  H        1.2722960     1.2836850     1.1032580
units angstrom
no_reorient  #important for SAPT in psi4, default
symmetry c1  #important for SAPT in psi4, default
}

set PROPERTIES_ORIGIN ["COM"]
properties('MP2/aug-cc-pvtz', properties = ['dipole'])
--------------------------------------------------------------------------

  Memory set to  29.802 GiB by Python driver.
    SCF Algorithm Type (re)set to DF.

*** tstart() called on c445-113.stampede2.tacc.utexas.edu
*** at Sat Mar 20 11:57:08 2021

   => Loading Basis Set <=

    Name: AUG-CC-PVTZ
    Role: ORBITAL
    Keyword: BASIS
    atoms 1-2  entry O          line   331 file /home1/07844/xy3866/miniconda3/envs/p4env/share/psi4/basis/aug-cc-pvtz.gbs 
    atoms 3-6  entry C          line   239 file /home1/07844/xy3866/miniconda3/envs/p4env/share/psi4/basis/aug-cc-pvtz.gbs 
    atoms 7-13 entry H          line    40 file /home1/07844/xy3866/miniconda3/envs/p4env/share/psi4/basis/aug-cc-pvtz.gbs 


         ---------------------------------------------------------
                                   SCF
               by Justin Turney, Rob Parrish, Andy Simmonett
                          and Daniel G. A. Smith
                              RHF Reference
                       32 Threads,  30517 MiB Core
         ---------------------------------------------------------

  ==> Geometry <==

    Molecular point group: c1
    Full point group: C1

    Geometry (in Angstrom), charge = -1, multiplicity = 1:

       Center              X                  Y                   Z               Mass       
    ------------   -----------------  -----------------  -----------------  -----------------
         O           -0.948640267138    -0.000022712344     1.274297560920    15.994914619570
         O           -1.708649267138     0.000012287656    -0.866995439080    15.994914619570
         C            0.667989732862     0.000005287656    -0.483280439080    12.000000000000
         C            1.388842732862    -1.255904712344     0.004285560920    12.000000000000
         C            1.388829732862     1.255913287656     0.004313560920    12.000000000000
         C           -0.748095367138    -0.000003412344    -0.002724239080    12.000000000000
         H            0.648862732862     0.000018287656    -1.580168439080     1.007825032230
         H            0.897726732862    -2.162565712344    -0.366366439080     1.007825032230
         H            2.432453732862    -1.275667712344    -0.330571439080     1.007825032230
         H            1.372235732862    -1.283702712344     1.097071560920     1.007825032230
         H            0.897702732862     2.162577287656    -0.366315439080     1.007825032230
         H            2.432440732862     1.275696287656    -0.330544439080     1.007825032230
         H            1.372224732862     1.283685287656     1.097100560920     1.007825032230

  Running in c1 symmetry.

  Rotational constants: A =      0.16838  B =      0.09189  C =      0.08821 [cm^-1]
  Rotational constants: A =   5047.99010  B =   2754.75234  C =   2644.44449 [MHz]
  Nuclear repulsion =  236.390195288321138

  Charge       = -1
  Multiplicity = 1
  Electrons    = 48
  Nalpha       = 24
  Nbeta        = 24

  ==> Algorithm <==

  SCF Algorithm Type is DF.
  DIIS enabled.
  MOM disabled.
  Fractional occupation disabled.
  Guess Type is SAD.
  Energy threshold   = 1.00e-10
  Density threshold  = 1.00e-10
  Integral threshold = 1.00e-12

  ==> Primary Basis <==

  Basis Set: AUG-CC-PVTZ
    Blend: AUG-CC-PVTZ
    Number of shells: 147
    Number of basis functions: 437
    Number of Cartesian functions: 505
    Spherical Harmonics?: true
    Max angular momentum: 3

   => Loading Basis Set <=

    Name: (AUG-CC-PVTZ AUX)
    Role: JKFIT
    Keyword: DF_BASIS_SCF
    atoms 1-2  entry O          line   286 file /home1/07844/xy3866/miniconda3/envs/p4env/share/psi4/basis/aug-cc-pvtz-jkfit.gbs 
    atoms 3-6  entry C          line   162 file /home1/07844/xy3866/miniconda3/envs/p4env/share/psi4/basis/aug-cc-pvtz-jkfit.gbs 
    atoms 7-13 entry H          line    70 file /home1/07844/xy3866/miniconda3/envs/p4env/share/psi4/basis/aug-cc-pvtz-jkfit.gbs 

  ==> Integral Setup <==

  DFHelper Memory: AOs need 1.401 GiB; user supplied 22.352 GiB. Using in-core AOs.

  ==> MemDFJK: Density-Fitted J/K Matrices <==

    J tasked:                   Yes
    K tasked:                   Yes
    wK tasked:                   No
    OpenMP threads:              32
    Memory [MiB]:             22888
    Algorithm:                 Core
    Schwarz Cutoff:           1E-12
    Mask sparsity (%):       2.6214
    Fitting Condition:        1E-10

   => Auxiliary Basis Set <=

  Basis Set: (AUG-CC-PVTZ AUX)
    Blend: AUG-CC-PVTZ-JKFIT
    Number of shells: 278
    Number of basis functions: 946
    Number of Cartesian functions: 1171
    Spherical Harmonics?: true
    Max angular momentum: 4

  Minimum eigenvalue in the overlap matrix is 4.9257693181E-06.
  Reciprocal condition number of the overlap matrix is 2.7396166492E-07.
    Using symmetric orthogonalization.

  ==> Pre-Iterations <==

  SCF Guess: Superposition of Atomic Densities via on-the-fly atomic UHF (no occupation information).

   -------------------------
    Irrep   Nso     Nmo    
   -------------------------
     A        437     437 
   -------------------------
    Total     437     437
   -------------------------

  ==> Iterations <==

                           Total Energy        Delta E     RMS |[F,P]|

   @DF-RHF iter SAD:  -304.23779837056378   -3.04238e+02   0.00000e+00 
   @DF-RHF iter   1:  -305.10779722419909   -8.69999e-01   1.79863e-03 DIIS
   @DF-RHF iter   2:  -305.33133784252982   -2.23541e-01   1.10038e-03 DIIS
   @DF-RHF iter   3:  -305.41189267312882   -8.05548e-02   1.49078e-04 DIIS
   @DF-RHF iter   4:  -305.41475660816388   -2.86394e-03   6.89781e-05 DIIS
   @DF-RHF iter   5:  -305.41530850906224   -5.51901e-04   1.23664e-05 DIIS
   @DF-RHF iter   6:  -305.41533375747269   -2.52484e-05   3.12344e-06 DIIS
   @DF-RHF iter   7:  -305.41533541964839   -1.66218e-06   1.24955e-06 DIIS
   @DF-RHF iter   8:  -305.41533559144398   -1.71796e-07   4.66433e-07 DIIS
   @DF-RHF iter   9:  -305.41533561991821   -2.84742e-08   1.36406e-07 DIIS
   @DF-RHF iter  10:  -305.41533562337315   -3.45494e-09   3.80515e-08 DIIS
   @DF-RHF iter  11:  -305.41533562376600   -3.92845e-10   1.08767e-08 DIIS
   @DF-RHF iter  12:  -305.41533562380073   -3.47313e-11   4.05711e-09 DIIS
   @DF-RHF iter  13:  -305.41533562380602   -5.28644e-12   1.74138e-09 DIIS
   @DF-RHF iter  14:  -305.41533562380693   -9.09495e-13   6.38185e-10 DIIS
   @DF-RHF iter  15:  -305.41533562380630    6.25278e-13   1.42495e-10 DIIS
   @DF-RHF iter  16:  -305.41533562380704   -7.38964e-13   4.26962e-11 DIIS
  Energy and wave function converged.


  ==> Post-Iterations <==

    Orbital Energies [Eh]
    ---------------------

    Doubly Occupied:                                                      

       1A    -20.290596     2A    -20.288071     3A    -11.135683  
       4A    -11.074853     5A    -11.074831     6A    -11.068698  
       7A     -1.146451     8A     -1.041189     9A     -0.918124  
      10A     -0.788618    11A     -0.687359    12A     -0.528412  
      13A     -0.471491    14A     -0.445551    15A     -0.425782  
      16A     -0.396293    17A     -0.386349    18A     -0.368627  
      19A     -0.350040    20A     -0.317756    21A     -0.303341  
      22A     -0.204749    23A     -0.197385    24A     -0.182950  

    Virtual:                                                              

      25A      0.113963    26A      0.122741    27A      0.130530  
      28A      0.138864    29A      0.147098    30A      0.153997  
      31A      0.155305    32A      0.194496    33A      0.207582  
      34A      0.215442    35A      0.220250    36A      0.232959  
      37A      0.236683    38A      0.238288    39A      0.240115  
      40A      0.249339    41A      0.253702    42A      0.256601  
      43A      0.270868    44A      0.280832    45A      0.307580  
      46A      0.318090    47A      0.323117    48A      0.357625  
      49A      0.360919    50A      0.366713    51A      0.376221  
      52A      0.381408    53A      0.394793    54A      0.396323  
      55A      0.403393    56A      0.412620    57A      0.416768  
      58A      0.422256    59A      0.433283    60A      0.436285  
      61A      0.447564    62A      0.454843    63A      0.461445  
      64A      0.465524    65A      0.473636    66A      0.480597  
      67A      0.488118    68A      0.489114    69A      0.500865  
      70A      0.511019    71A      0.523263    72A      0.524181  
      73A      0.536815    74A      0.541373    75A      0.552579  
      76A      0.556790    77A      0.568918    78A      0.574057  
      79A      0.577988    80A      0.586568    81A      0.596195  
      82A      0.596949    83A      0.601641    84A      0.606935  
      85A      0.614749    86A      0.629838    87A      0.632379  
      88A      0.640792    89A      0.653391    90A      0.656748  
      91A      0.662740    92A      0.671914    93A      0.687593  
      94A      0.699721    95A      0.713136    96A      0.715710  
      97A      0.739433    98A      0.740383    99A      0.752391  
     100A      0.759327   101A      0.770595   102A      0.772744  
     103A      0.784698   104A      0.801337   105A      0.812693  
     106A      0.828607   107A      0.843629   108A      0.874629  
     109A      0.882007   110A      0.895549   111A      0.913770  
     112A      0.913820   113A      0.931611   114A      0.942067  
     115A      0.956772   116A      0.974036   117A      0.980462  
     118A      0.990367   119A      0.991634   120A      1.000896  
     121A      1.013419   122A      1.023520   123A      1.031029  
     124A      1.031447   125A      1.039596   126A      1.048128  
     127A      1.048904   128A      1.065026   129A      1.070752  
     130A      1.074387   131A      1.086314   132A      1.096373  
     133A      1.104436   134A      1.120071   135A      1.121495  
     136A      1.129862   137A      1.154468   138A      1.157970  
     139A      1.165238   140A      1.178301   141A      1.193251  
     142A      1.198261   143A      1.206575   144A      1.207422  
     145A      1.238078   146A      1.246733   147A      1.261859  
     148A      1.263521   149A      1.264507   150A      1.275612  
     151A      1.276762   152A      1.289442   153A      1.299501  
     154A      1.309277   155A      1.321404   156A      1.324903  
     157A      1.345550   158A      1.348339   159A      1.359558  
     160A      1.368846   161A      1.369190   162A      1.374507  
     163A      1.401456   164A      1.402093   165A      1.426016  
     166A      1.431783   167A      1.450011   168A      1.468227  
     169A      1.482901   170A      1.487192   171A      1.513417  
     172A      1.515774   173A      1.548750   174A      1.549411  
     175A      1.578125   176A      1.580503   177A      1.581644  
     178A      1.606794   179A      1.613992   180A      1.628129  
     181A      1.630973   182A      1.651386   183A      1.667406  
     184A      1.677829   185A      1.679377   186A      1.684938  
     187A      1.724733   188A      1.730485   189A      1.746867  
     190A      1.770739   191A      1.773757   192A      1.795510  
     193A      1.811597   194A      1.816677   195A      1.822165  
     196A      1.850027   197A      1.854710   198A      1.858842  
     199A      1.866672   200A      1.880128   201A      1.888625  
     202A      1.892961   203A      1.903178   204A      1.933976  
     205A      1.938965   206A      1.956235   207A      1.956848  
     208A      1.987409   209A      1.992606   210A      1.996249  
     211A      2.007190   212A      2.012834   213A      2.044292  
     214A      2.044844   215A      2.069141   216A      2.082755  
     217A      2.095007   218A      2.105847   219A      2.118504  
     220A      2.123721   221A      2.151229   222A      2.172515  
     223A      2.181011   224A      2.220203   225A      2.222667  
     226A      2.251219   227A      2.254483   228A      2.280653  
     229A      2.300907   230A      2.320990   231A      2.347726  
     232A      2.349685   233A      2.388574   234A      2.397962  
     235A      2.413436   236A      2.430365   237A      2.448543  
     238A      2.464991   239A      2.482318   240A      2.484252  
     241A      2.499285   242A      2.511590   243A      2.526769  
     244A      2.539198   245A      2.573040   246A      2.582038  
     247A      2.631174   248A      2.632346   249A      2.637013  
     250A      2.651366   251A      2.662709   252A      2.692669  
     253A      2.721256   254A      2.738379   255A      2.805906  
     256A      2.810687   257A      2.850348   258A      2.881685  
     259A      2.889638   260A      2.899355   261A      2.920859  
     262A      2.933977   263A      2.964849   264A      3.014714  
     265A      3.063971   266A      3.068376   267A      3.111293  
     268A      3.124858   269A      3.201584   270A      3.207388  
     271A      3.250943   272A      3.299332   273A      3.304983  
     274A      3.332480   275A      3.389067   276A      3.407118  
     277A      3.418113   278A      3.469740   279A      3.528261  
     280A      3.581716   281A      3.590306   282A      3.594305  
     283A      3.654694   284A      3.658112   285A      3.667735  
     286A      3.704075   287A      3.707937   288A      3.711975  
     289A      3.743587   290A      3.793966   291A      3.809864  
     292A      3.826187   293A      3.842391   294A      3.849075  
     295A      3.854240   296A      3.856158   297A      3.876176  
     298A      3.893997   299A      3.908246   300A      3.923906  
     301A      3.925951   302A      3.956876   303A      3.967201  
     304A      3.981789   305A      4.032722   306A      4.047080  
     307A      4.059294   308A      4.075677   309A      4.086723  
     310A      4.122582   311A      4.124114   312A      4.130804  
     313A      4.155521   314A      4.167653   315A      4.170291  
     316A      4.220926   317A      4.227046   318A      4.237393  
     319A      4.278213   320A      4.315045   321A      4.332203  
     322A      4.335043   323A      4.349636   324A      4.362367  
     325A      4.381067   326A      4.405182   327A      4.432360  
     328A      4.441850   329A      4.460374   330A      4.476975  
     331A      4.499572   332A      4.503451   333A      4.525396  
     334A      4.552712   335A      4.582055   336A      4.604139  
     337A      4.612558   338A      4.679885   339A      4.690413  
     340A      4.714596   341A      4.753577   342A      4.765784  
     343A      4.813248   344A      4.818290   345A      4.854717  
     346A      4.863976   347A      4.883909   348A      4.905681  
     349A      4.928657   350A      4.963521   351A      5.002622  
     352A      5.009207   353A      5.015060   354A      5.031475  
     355A      5.044334   356A      5.093352   357A      5.105169  
     358A      5.133103   359A      5.174628   360A      5.206313  
     361A      5.217109   362A      5.237840   363A      5.282150  
     364A      5.294637   365A      5.318895   366A      5.320240  
     367A      5.351738   368A      5.371581   369A      5.401192  
     370A      5.429432   371A      5.452052   372A      5.490927  
     373A      5.503911   374A      5.525482   375A      5.550069  
     376A      5.559839   377A      5.611896   378A      5.622549  
     379A      5.648247   380A      5.682306   381A      5.690596  
     382A      5.769556   383A      5.780242   384A      5.800698  
     385A      5.830760   386A      5.904504   387A      5.914674  
     388A      5.965504   389A      6.023392   390A      6.030180  
     391A      6.060433   392A      6.123956   393A      6.194058  
     394A      6.268693   395A      6.314032   396A      6.354505  
     397A      6.357981   398A      6.402643   399A      6.437137  
     400A      6.492527   401A      6.529928   402A      6.685951  
     403A      6.867517   404A      6.912330   405A      6.945117  
     406A      6.951450   407A      6.983191   408A      6.997345  
     409A      6.999334   410A      7.022418   411A      7.052032  
     412A      7.166627   413A      7.192962   414A      7.239846  
     415A      7.276970   416A      7.320782   417A      7.375787  
     418A      7.449748   419A      7.588298   420A      7.599269  
     421A      7.654937   422A      7.684701   423A      7.759216  
     424A      7.870180   425A      7.950728   426A      7.953253  
     427A      7.961781   428A      8.063078   429A      8.134586  
     430A      8.169271   431A      8.308823   432A     14.269622  
     433A     15.468884   434A     17.214501   435A     18.113509  
     436A     18.879889   437A     19.599196  

    Final Occupation by Irrep:
              A 
    DOCC [    24 ]

  @DF-RHF Final Energy:  -305.41533562380704

   => Energetics <=

    Nuclear Repulsion Energy =            236.3901952883211379
    One-Electron Energy =                -895.4246645726512952
    Two-Electron Energy =                 353.6191336605231186
    Total Energy =                       -305.4153356238070387

Computation Completed

*** tstop() called on c445-113.stampede2.tacc.utexas.edu at Sat Mar 20 11:57:23 2021
Module time:
	user time   =     228.40 seconds =       3.81 minutes
	system time =      17.63 seconds =       0.29 minutes
	total time  =         15 seconds =       0.25 minutes
Total time:
	user time   =     228.40 seconds =       3.81 minutes
	system time =      17.63 seconds =       0.29 minutes
	total time  =         15 seconds =       0.25 minutes
   => Loading Basis Set <=

    Name: (AUG-CC-PVTZ AUX)
    Role: RIFIT
    Keyword: DF_BASIS_MP2
    atoms 1-2  entry O          line   264 file /home1/07844/xy3866/miniconda3/envs/p4env/share/psi4/basis/aug-cc-pvtz-ri.gbs 
    atoms 3-6  entry C          line   148 file /home1/07844/xy3866/miniconda3/envs/p4env/share/psi4/basis/aug-cc-pvtz-ri.gbs 
    atoms 7-13 entry H          line    30 file /home1/07844/xy3866/miniconda3/envs/p4env/share/psi4/basis/aug-cc-pvtz-ri.gbs 


*** tstart() called on c445-113.stampede2.tacc.utexas.edu
*** at Sat Mar 20 11:57:24 2021


  //>>>>>>>>>>>>>>>>>>>>>>>>>>>>>>>>>>>//
  //               DFMP2               //
  //<<<<<<<<<<<<<<<<<<<<<<<<<<<<<<<<<<<//

	 --------------------------------------------------------
	                          DF-MP2                         
	      2nd-Order Density-Fitted Moller-Plesset Theory     
	              RMP2 Wavefunction,  32 Threads             
	                                                         
	        Rob Parrish, Justin Turney, Andy Simmonett,      
	           Ed Hohenstein, and C. David Sherrill          
	 --------------------------------------------------------

   => Auxiliary Basis Set <=

  Basis Set: (AUG-CC-PVTZ AUX)
    Blend: AUG-CC-PVTZ-RI
    Number of shells: 266
    Number of basis functions: 958
    Number of Cartesian functions: 1201
    Spherical Harmonics?: true
    Max angular momentum: 4

	 --------------------------------------------------------
	                 NBF =   437, NAUX =   958
	 --------------------------------------------------------
	   CLASS    FOCC     OCC    AOCC    AVIR     VIR    FVIR
	   PAIRS       0      24      24     413     413       0
	 --------------------------------------------------------

  DFHelper Memory: AOs need 1.420 GiB; user supplied 22.352 GiB. Using in-core AOs.


         ------------------------------------------------------------
                                     CPHF                           
                                  Rob Parrish                       
         ------------------------------------------------------------

  ==> Geometry <==

    Molecular point group: c1
    Full point group: C1

    Geometry (in Angstrom), charge = -1, multiplicity = 1:

       Center              X                  Y                   Z               Mass       
    ------------   -----------------  -----------------  -----------------  -----------------
         O           -0.948640267138    -0.000022712344     1.274297560920    15.994914619570
         O           -1.708649267138     0.000012287656    -0.866995439080    15.994914619570
         C            0.667989732862     0.000005287656    -0.483280439080    12.000000000000
         C            1.388842732862    -1.255904712344     0.004285560920    12.000000000000
         C            1.388829732862     1.255913287656     0.004313560920    12.000000000000
         C           -0.748095367138    -0.000003412344    -0.002724239080    12.000000000000
         H            0.648862732862     0.000018287656    -1.580168439080     1.007825032230
         H            0.897726732862    -2.162565712344    -0.366366439080     1.007825032230
         H            2.432453732862    -1.275667712344    -0.330571439080     1.007825032230
         H            1.372235732862    -1.283702712344     1.097071560920     1.007825032230
         H            0.897702732862     2.162577287656    -0.366315439080     1.007825032230
         H            2.432440732862     1.275696287656    -0.330544439080     1.007825032230
         H            1.372224732862     1.283685287656     1.097100560920     1.007825032230

  Nuclear repulsion =  236.390195288321138
  Reference energy  = -305.415335623807039

  ==> Basis Set <==

  Basis Set: AUG-CC-PVTZ
    Blend: AUG-CC-PVTZ
    Number of shells: 147
    Number of basis functions: 437
    Number of Cartesian functions: 505
    Spherical Harmonics?: true
    Max angular momentum: 3

  ==> CGRSolver (by Rob Parrish) <==

   Number of roots    =         1
   Preconditioning    =    JACOBI
   Convergence cutoff =     1E-06
   Maximum iterations =       100

  ==> CPHFRHamiltonian (by Rob Parrish) <== 

  ==> MemDFJK: Density-Fitted J/K Matrices <==

    J tasked:                   Yes
    K tasked:                   Yes
    wK tasked:                   No
    OpenMP threads:              32
    Memory [MiB]:             22888
    Algorithm:                 Core
    Schwarz Cutoff:           1E-12
    Mask sparsity (%):       1.2494
    Fitting Condition:        1E-10

   => Auxiliary Basis Set <=

  Basis Set: (AUG-CC-PVTZ AUX)
    Blend: AUG-CC-PVTZ-JKFIT
    Number of shells: 278
    Number of basis functions: 946
    Number of Cartesian functions: 1171
    Spherical Harmonics?: true
    Max angular momentum: 4

  ==> CPHF Iterations <==

  => Iterations <=

             Iter  Converged  Remaining    Residual
  CGR           1          0          1   1.226E-01
  CGR           2          0          1   3.356E-02
  CGR           3          0          1   1.403E-02
  CGR           4          0          1   3.915E-03
  CGR           5          0          1   1.281E-03
  CGR           6          0          1   5.211E-04
  CGR           7          0          1   1.754E-04
  CGR           8          0          1   4.837E-05
  CGR           9          0          1   1.298E-05
  CGR          10          0          1   3.407E-06
  CGR          11          1          0   8.290E-07

    CGRSolver converged.

	-----------------------------------------------------------
	 ==================> DF-MP2 Energies <==================== 
	-----------------------------------------------------------
	 Reference Energy          =    -305.4153356238070387 [Eh]
	 Singles Energy            =      -0.0000000000000000 [Eh]
	 Same-Spin Energy          =      -0.3110307716139321 [Eh]
	 Opposite-Spin Energy      =      -0.9889974022362271 [Eh]
	 Correlation Energy        =      -1.3000281738501591 [Eh]
	 Total Energy              =    -306.7153637976571758 [Eh]
	-----------------------------------------------------------
	 ================> DF-SCS-MP2 Energies <================== 
	-----------------------------------------------------------
	 SCS Same-Spin Scale       =       0.3333333333333333 [-]
	 SCS Opposite-Spin Scale   =       1.2000000000000000 [-]
	 SCS Same-Spin Energy      =      -0.1036769238713107 [Eh]
	 SCS Opposite-Spin Energy  =      -1.1867968826834725 [Eh]
	 SCS Correlation Energy    =      -1.2904738065547832 [Eh]
	 SCS Total Energy          =    -306.7058094303617963 [Eh]
	-----------------------------------------------------------



Properties will be evaluated at  -0.000000,   0.000000,   0.000000 [a0]

Properties computed using the MP2 density matrix

  Nuclear Dipole Moment: [e a0]
     X:     9.4122      Y:     0.0000      Z:    -0.7291

  Electronic Dipole Moment: [e a0]
     X:    -7.0345      Y:    -0.0000      Z:     0.3041

  Dipole Moment: [e a0]
     X:     2.3777      Y:     0.0000      Z:    -0.4250     Total:     2.4154

  Dipole Moment: [D]
     X:     6.0434      Y:     0.0000      Z:    -1.0801     Total:     6.1392


*** tstop() called on c445-113.stampede2.tacc.utexas.edu at Sat Mar 20 11:58:40 2021
Module time:
	user time   =     547.98 seconds =       9.13 minutes
	system time =      18.66 seconds =       0.31 minutes
	total time  =         76 seconds =       1.27 minutes
Total time:
	user time   =     777.32 seconds =      12.96 minutes
	system time =      36.34 seconds =       0.61 minutes
	total time  =         92 seconds =       1.53 minutes

    Psi4 stopped on: Saturday, 20 March 2021 11:58AM
    Psi4 wall time for execution: 0:01:32.94

*** Psi4 exiting successfully. Buy a developer a beer!
