opt=Tight                                                               
Freq      RMP2-FC                                                     6-31G(d)            
Number of atoms                            I               21
Info1-9                                    I   N=           9
          30          30        1002           0           0         100
           6           2           1
Charge                                     I                0
Multiplicity                               I                1
Number of electrons                        I               78
Number of alpha electrons                  I               39
Number of beta electrons                   I               39
Number of basis functions                  I              172
Number of independent functions            I              172
Number of point charges in /Mol/           I                0
Number of translation vectors              I                0
Atomic numbers                             I   N=          21
           8           8           8           7           6           6
           6           6           6           6           1           1
           1           1           1           1           1           1
           1           1           1
Nuclear charges                            R   N=          21
  8.00000000E+00  8.00000000E+00  8.00000000E+00  7.00000000E+00  6.00000000E+00
  6.00000000E+00  6.00000000E+00  6.00000000E+00  6.00000000E+00  6.00000000E+00
  1.00000000E+00  1.00000000E+00  1.00000000E+00  1.00000000E+00  1.00000000E+00
  1.00000000E+00  1.00000000E+00  1.00000000E+00  1.00000000E+00  1.00000000E+00
  1.00000000E+00
Current cartesian coordinates              R   N=          63
  4.13065787E+00 -2.80501499E+00  8.44032949E-01 -3.00504061E+00  2.27166624E+00
 -1.46317526E+00  6.21707803E+00  1.68752544E-01 -1.43002568E+00 -2.93310062E-01
 -6.61634693E-01  1.23833753E-01  1.88476560E+00  9.70997979E-01 -1.96214044E-01
  2.14788729E+00  2.89736023E+00  1.95241591E+00 -4.76370100E+00 -1.74836328E+00
 -1.73741421E-01 -2.64717939E+00  1.53988113E-01 -5.48016799E-01  4.29222000E+00
 -5.50341162E-01 -4.00383835E-01 -7.23392077E+00 -4.45988595E-01  5.36266482E-01
  1.65402815E+00  1.99206047E+00 -1.97790264E+00 -5.19599097E-02 -2.34735355E+00
  9.92185588E-01  2.37264943E+00  1.92398876E+00  3.76121830E+00  3.78398383E+00
  4.11715199E+00  1.62774395E+00  4.39916905E-01  4.05231360E+00  2.00397520E+00
 -4.98964800E+00 -2.77304271E+00 -1.96164722E+00 -4.22770097E+00 -3.15167769E+00
  1.25266166E+00 -7.07094512E+00  4.86627156E-01  2.37220534E+00 -7.69658998E+00
  9.90420584E-01 -8.67499568E-01 -8.77899865E+00 -1.81328671E+00  6.37708871E-01
  5.79645145E+00 -3.59490728E+00  6.63904254E-01
Force Field                                I                0
Int Atom Types                             I   N=          21
           0           0           0           0           0           0
           0           0           0           0           0           0
           0           0           0           0           0           0
           0           0           0
MM charges                                 R   N=          21
  0.00000000E+00  0.00000000E+00  0.00000000E+00  0.00000000E+00  0.00000000E+00
  0.00000000E+00  0.00000000E+00  0.00000000E+00  0.00000000E+00  0.00000000E+00
  0.00000000E+00  0.00000000E+00  0.00000000E+00  0.00000000E+00  0.00000000E+00
  0.00000000E+00  0.00000000E+00  0.00000000E+00  0.00000000E+00  0.00000000E+00
  0.00000000E+00
Integer atomic weights                     I   N=          21
          16          16          16          14          12          12
          12          12          12          12           1           1
           1           1           1           1           1           1
           1           1           1
Real atomic weights                        R   N=          21
  1.59949146E+01  1.59949146E+01  1.59949146E+01  1.40030740E+01  1.20000000E+01
  1.20000000E+01  1.20000000E+01  1.20000000E+01  1.20000000E+01  1.20000000E+01
  1.00782504E+00  1.00782504E+00  1.00782504E+00  1.00782504E+00  1.00782504E+00
  1.00782504E+00  1.00782504E+00  1.00782504E+00  1.00782504E+00  1.00782504E+00
  1.00782504E+00
Atom fragment info                         I   N=          21
           0           0           0           0           0           0
           0           0           0           0           0           0
           0           0           0           0           0           0
           0           0           0
Atom residue num                           I   N=          21
           0           0           0           0           0           0
           0           0           0           0           0           0
           0           0           0           0           0           0
           0           0           0
Nuclear spins                              I   N=          21
           0           0           0           2           0           0
           0           0           0           0           1           1
           1           1           1           1           1           1
           1           1           1
Nuclear ZEff                               R   N=          21
 -5.60000000E+00 -5.60000000E+00 -5.60000000E+00 -4.55000000E+00 -3.60000000E+00
 -3.60000000E+00 -3.60000000E+00 -3.60000000E+00 -3.60000000E+00 -3.60000000E+00
 -1.00000000E+00 -1.00000000E+00 -1.00000000E+00 -1.00000000E+00 -1.00000000E+00
 -1.00000000E+00 -1.00000000E+00 -1.00000000E+00 -1.00000000E+00 -1.00000000E+00
 -1.00000000E+00
Nuclear QMom                               R   N=          21
  0.00000000E+00  0.00000000E+00  0.00000000E+00  2.04400000E+00  0.00000000E+00
  0.00000000E+00  0.00000000E+00  0.00000000E+00  0.00000000E+00  0.00000000E+00
  0.00000000E+00  0.00000000E+00  0.00000000E+00  0.00000000E+00  0.00000000E+00
  0.00000000E+00  0.00000000E+00  0.00000000E+00  0.00000000E+00  0.00000000E+00
  0.00000000E+00
Nuclear GFac                               R   N=          21
  0.00000000E+00  0.00000000E+00  0.00000000E+00  4.03761000E-01  0.00000000E+00
  0.00000000E+00  0.00000000E+00  0.00000000E+00  0.00000000E+00  0.00000000E+00
  2.79284600E+00  2.79284600E+00  2.79284600E+00  2.79284600E+00  2.79284600E+00
  2.79284600E+00  2.79284600E+00  2.79284600E+00  2.79284600E+00  2.79284600E+00
  2.79284600E+00
MicOpt                                     I   N=          21
          -1          -1          -1          -1          -1          -1
          -1          -1          -1          -1          -1          -1
          -1          -1          -1          -1          -1          -1
          -1          -1          -1
Number of contracted shells                I               62
Number of primitive shells                 I              154
Pure/Cartesian d shells                    I                1
Pure/Cartesian f shells                    I                0
Highest angular momentum                   I                2
Largest degree of contraction              I                6
Shell types                                I   N=          62
           0          -1          -1           2           0          -1
          -1           2           0          -1          -1           2
           0          -1          -1           2           0          -1
          -1           2           0          -1          -1           2
           0          -1          -1           2           0          -1
          -1           2           0          -1          -1           2
           0          -1          -1           2           0           0
           0           0           0           0           0           0
           0           0           0           0           0           0
           0           0           0           0           0           0
           0           0
Number of primitives per shell             I   N=          62
           6           3           1           1           6           3
           1           1           6           3           1           1
           6           3           1           1           6           3
           1           1           6           3           1           1
           6           3           1           1           6           3
           1           1           6           3           1           1
           6           3           1           1           3           1
           3           1           3           1           3           1
           3           1           3           1           3           1
           3           1           3           1           3           1
           3           1
Shell to atom map                          I   N=          62
           1           1           1           1           2           2
           2           2           3           3           3           3
           4           4           4           4           5           5
           5           5           6           6           6           6
           7           7           7           7           8           8
           8           8           9           9           9           9
          10          10          10          10          11          11
          12          12          13          13          14          14
          15          15          16          16          17          17
          18          18          19          19          20          20
          21          21
Primitive exponents                        R   N=         154
  5.48467166E+03  8.25234946E+02  1.88046958E+02  5.29645000E+01  1.68975704E+01
  5.79963534E+00  1.55396162E+01  3.59993359E+00  1.01376175E+00  2.70005823E-01
  8.00000000E-01  5.48467166E+03  8.25234946E+02  1.88046958E+02  5.29645000E+01
  1.68975704E+01  5.79963534E+00  1.55396162E+01  3.59993359E+00  1.01376175E+00
  2.70005823E-01  8.00000000E-01  5.48467166E+03  8.25234946E+02  1.88046958E+02
  5.29645000E+01  1.68975704E+01  5.79963534E+00  1.55396162E+01  3.59993359E+00
  1.01376175E+00  2.70005823E-01  8.00000000E-01  4.17351146E+03  6.27457911E+02
  1.42902093E+02  4.02343293E+01  1.28202129E+01  4.39043701E+00  1.16263619E+01
  2.71627981E+00  7.72218397E-01  2.12031498E-01  8.00000000E-01  3.04752488E+03
  4.57369518E+02  1.03948685E+02  2.92101553E+01  9.28666296E+00  3.16392696E+00
  7.86827235E+00  1.88128854E+00  5.44249258E-01  1.68714478E-01  8.00000000E-01
  3.04752488E+03  4.57369518E+02  1.03948685E+02  2.92101553E+01  9.28666296E+00
  3.16392696E+00  7.86827235E+00  1.88128854E+00  5.44249258E-01  1.68714478E-01
  8.00000000E-01  3.04752488E+03  4.57369518E+02  1.03948685E+02  2.92101553E+01
  9.28666296E+00  3.16392696E+00  7.86827235E+00  1.88128854E+00  5.44249258E-01
  1.68714478E-01  8.00000000E-01  3.04752488E+03  4.57369518E+02  1.03948685E+02
  2.92101553E+01  9.28666296E+00  3.16392696E+00  7.86827235E+00  1.88128854E+00
  5.44249258E-01  1.68714478E-01  8.00000000E-01  3.04752488E+03  4.57369518E+02
  1.03948685E+02  2.92101553E+01  9.28666296E+00  3.16392696E+00  7.86827235E+00
  1.88128854E+00  5.44249258E-01  1.68714478E-01  8.00000000E-01  3.04752488E+03
  4.57369518E+02  1.03948685E+02  2.92101553E+01  9.28666296E+00  3.16392696E+00
  7.86827235E+00  1.88128854E+00  5.44249258E-01  1.68714478E-01  8.00000000E-01
  1.87311370E+01  2.82539436E+00  6.40121692E-01  1.61277759E-01  1.87311370E+01
  2.82539436E+00  6.40121692E-01  1.61277759E-01  1.87311370E+01  2.82539436E+00
  6.40121692E-01  1.61277759E-01  1.87311370E+01  2.82539436E+00  6.40121692E-01
  1.61277759E-01  1.87311370E+01  2.82539436E+00  6.40121692E-01  1.61277759E-01
  1.87311370E+01  2.82539436E+00  6.40121692E-01  1.61277759E-01  1.87311370E+01
  2.82539436E+00  6.40121692E-01  1.61277759E-01  1.87311370E+01  2.82539436E+00
  6.40121692E-01  1.61277759E-01  1.87311370E+01  2.82539436E+00  6.40121692E-01
  1.61277759E-01  1.87311370E+01  2.82539436E+00  6.40121692E-01  1.61277759E-01
  1.87311370E+01  2.82539436E+00  6.40121692E-01  1.61277759E-01
Contraction coefficients                   R   N=         154
  1.83107443E-03  1.39501722E-02  6.84450781E-02  2.32714336E-01  4.70192898E-01
  3.58520853E-01 -1.10777550E-01 -1.48026263E-01  1.13076702E+00  1.00000000E+00
  1.00000000E+00  1.83107443E-03  1.39501722E-02  6.84450781E-02  2.32714336E-01
  4.70192898E-01  3.58520853E-01 -1.10777550E-01 -1.48026263E-01  1.13076702E+00
  1.00000000E+00  1.00000000E+00  1.83107443E-03  1.39501722E-02  6.84450781E-02
  2.32714336E-01  4.70192898E-01  3.58520853E-01 -1.10777550E-01 -1.48026263E-01
  1.13076702E+00  1.00000000E+00  1.00000000E+00  1.83477216E-03  1.39946270E-02
  6.85865518E-02  2.32240873E-01  4.69069948E-01  3.60455199E-01 -1.14961182E-01
 -1.69117479E-01  1.14585195E+00  1.00000000E+00  1.00000000E+00  1.83473713E-03
  1.40373228E-02  6.88426223E-02  2.32184443E-01  4.67941348E-01  3.62311985E-01
 -1.19332420E-01 -1.60854152E-01  1.14345644E+00  1.00000000E+00  1.00000000E+00
  1.83473713E-03  1.40373228E-02  6.88426223E-02  2.32184443E-01  4.67941348E-01
  3.62311985E-01 -1.19332420E-01 -1.60854152E-01  1.14345644E+00  1.00000000E+00
  1.00000000E+00  1.83473713E-03  1.40373228E-02  6.88426223E-02  2.32184443E-01
  4.67941348E-01  3.62311985E-01 -1.19332420E-01 -1.60854152E-01  1.14345644E+00
  1.00000000E+00  1.00000000E+00  1.83473713E-03  1.40373228E-02  6.88426223E-02
  2.32184443E-01  4.67941348E-01  3.62311985E-01 -1.19332420E-01 -1.60854152E-01
  1.14345644E+00  1.00000000E+00  1.00000000E+00  1.83473713E-03  1.40373228E-02
  6.88426223E-02  2.32184443E-01  4.67941348E-01  3.62311985E-01 -1.19332420E-01
 -1.60854152E-01  1.14345644E+00  1.00000000E+00  1.00000000E+00  1.83473713E-03
  1.40373228E-02  6.88426223E-02  2.32184443E-01  4.67941348E-01  3.62311985E-01
 -1.19332420E-01 -1.60854152E-01  1.14345644E+00  1.00000000E+00  1.00000000E+00
  3.34946043E-02  2.34726953E-01  8.13757326E-01  1.00000000E+00  3.34946043E-02
  2.34726953E-01  8.13757326E-01  1.00000000E+00  3.34946043E-02  2.34726953E-01
  8.13757326E-01  1.00000000E+00  3.34946043E-02  2.34726953E-01  8.13757326E-01
  1.00000000E+00  3.34946043E-02  2.34726953E-01  8.13757326E-01  1.00000000E+00
  3.34946043E-02  2.34726953E-01  8.13757326E-01  1.00000000E+00  3.34946043E-02
  2.34726953E-01  8.13757326E-01  1.00000000E+00  3.34946043E-02  2.34726953E-01
  8.13757326E-01  1.00000000E+00  3.34946043E-02  2.34726953E-01  8.13757326E-01
  1.00000000E+00  3.34946043E-02  2.34726953E-01  8.13757326E-01  1.00000000E+00
  3.34946043E-02  2.34726953E-01  8.13757326E-01  1.00000000E+00
P(S=P) Contraction coefficients            R   N=         154
  0.00000000E+00  0.00000000E+00  0.00000000E+00  0.00000000E+00  0.00000000E+00
  0.00000000E+00  7.08742682E-02  3.39752839E-01  7.27158577E-01  1.00000000E+00
  0.00000000E+00  0.00000000E+00  0.00000000E+00  0.00000000E+00  0.00000000E+00
  0.00000000E+00  0.00000000E+00  7.08742682E-02  3.39752839E-01  7.27158577E-01
  1.00000000E+00  0.00000000E+00  0.00000000E+00  0.00000000E+00  0.00000000E+00
  0.00000000E+00  0.00000000E+00  0.00000000E+00  7.08742682E-02  3.39752839E-01
  7.27158577E-01  1.00000000E+00  0.00000000E+00  0.00000000E+00  0.00000000E+00
  0.00000000E+00  0.00000000E+00  0.00000000E+00  0.00000000E+00  6.75797439E-02
  3.23907296E-01  7.40895140E-01  1.00000000E+00  0.00000000E+00  0.00000000E+00
  0.00000000E+00  0.00000000E+00  0.00000000E+00  0.00000000E+00  0.00000000E+00
  6.89990666E-02  3.16423961E-01  7.44308291E-01  1.00000000E+00  0.00000000E+00
  0.00000000E+00  0.00000000E+00  0.00000000E+00  0.00000000E+00  0.00000000E+00
  0.00000000E+00  6.89990666E-02  3.16423961E-01  7.44308291E-01  1.00000000E+00
  0.00000000E+00  0.00000000E+00  0.00000000E+00  0.00000000E+00  0.00000000E+00
  0.00000000E+00  0.00000000E+00  6.89990666E-02  3.16423961E-01  7.44308291E-01
  1.00000000E+00  0.00000000E+00  0.00000000E+00  0.00000000E+00  0.00000000E+00
  0.00000000E+00  0.00000000E+00  0.00000000E+00  6.89990666E-02  3.16423961E-01
  7.44308291E-01  1.00000000E+00  0.00000000E+00  0.00000000E+00  0.00000000E+00
  0.00000000E+00  0.00000000E+00  0.00000000E+00  0.00000000E+00  6.89990666E-02
  3.16423961E-01  7.44308291E-01  1.00000000E+00  0.00000000E+00  0.00000000E+00
  0.00000000E+00  0.00000000E+00  0.00000000E+00  0.00000000E+00  0.00000000E+00
  6.89990666E-02  3.16423961E-01  7.44308291E-01  1.00000000E+00  0.00000000E+00
  0.00000000E+00  0.00000000E+00  0.00000000E+00  0.00000000E+00  0.00000000E+00
  0.00000000E+00  0.00000000E+00  0.00000000E+00  0.00000000E+00  0.00000000E+00
  0.00000000E+00  0.00000000E+00  0.00000000E+00  0.00000000E+00  0.00000000E+00
  0.00000000E+00  0.00000000E+00  0.00000000E+00  0.00000000E+00  0.00000000E+00
  0.00000000E+00  0.00000000E+00  0.00000000E+00  0.00000000E+00  0.00000000E+00
  0.00000000E+00  0.00000000E+00  0.00000000E+00  0.00000000E+00  0.00000000E+00
  0.00000000E+00  0.00000000E+00  0.00000000E+00  0.00000000E+00  0.00000000E+00
  0.00000000E+00  0.00000000E+00  0.00000000E+00  0.00000000E+00  0.00000000E+00
  0.00000000E+00  0.00000000E+00  0.00000000E+00  0.00000000E+00
Coordinates of each shell                  R   N=         186
  4.13065766E+00 -2.80501514E+00  8.44032901E-01  4.13065766E+00 -2.80501514E+00
  8.44032901E-01  4.13065766E+00 -2.80501514E+00  8.44032901E-01  4.13065766E+00
 -2.80501514E+00  8.44032901E-01 -3.00504065E+00  2.27166631E+00 -1.46317531E+00
 -3.00504065E+00  2.27166631E+00 -1.46317531E+00 -3.00504065E+00  2.27166631E+00
 -1.46317531E+00 -3.00504065E+00  2.27166631E+00 -1.46317531E+00  6.21707792E+00
  1.68752317E-01 -1.43002573E+00  6.21707792E+00  1.68752317E-01 -1.43002573E+00
  6.21707792E+00  1.68752317E-01 -1.43002573E+00  6.21707792E+00  1.68752317E-01
 -1.43002573E+00 -2.93310205E-01 -6.61634708E-01  1.23833705E-01 -2.93310205E-01
 -6.61634708E-01  1.23833705E-01 -2.93310205E-01 -6.61634708E-01  1.23833705E-01
 -2.93310205E-01 -6.61634708E-01  1.23833705E-01  1.88476551E+00  9.70997893E-01
 -1.96214092E-01  1.88476551E+00  9.70997893E-01 -1.96214092E-01  1.88476551E+00
  9.70997893E-01 -1.96214092E-01  1.88476551E+00  9.70997893E-01 -1.96214092E-01
  2.14788726E+00  2.89736014E+00  1.95241586E+00  2.14788726E+00  2.89736014E+00
  1.95241586E+00  2.14788726E+00  2.89736014E+00  1.95241586E+00  2.14788726E+00
  2.89736014E+00  1.95241586E+00 -4.76370118E+00 -1.74836315E+00 -1.73741469E-01
 -4.76370118E+00 -1.74836315E+00 -1.73741469E-01 -4.76370118E+00 -1.74836315E+00
 -1.73741469E-01 -4.76370118E+00 -1.74836315E+00 -1.73741469E-01 -2.64717951E+00
  1.53988175E-01 -5.48016848E-01 -2.64717951E+00  1.53988175E-01 -5.48016848E-01
 -2.64717951E+00  1.53988175E-01 -5.48016848E-01 -2.64717951E+00  1.53988175E-01
 -5.48016848E-01  4.29221986E+00 -5.50341326E-01 -4.00383883E-01  4.29221986E+00
 -5.50341326E-01 -4.00383883E-01  4.29221986E+00 -5.50341326E-01 -4.00383883E-01
  4.29221986E+00 -5.50341326E-01 -4.00383883E-01 -7.23392091E+00 -4.45988385E-01
  5.36266434E-01 -7.23392091E+00 -4.45988385E-01  5.36266434E-01 -7.23392091E+00
 -4.45988385E-01  5.36266434E-01 -7.23392091E+00 -4.45988385E-01  5.36266434E-01
  1.65402809E+00  1.99206039E+00 -1.97790269E+00  1.65402809E+00  1.99206039E+00
 -1.97790269E+00 -5.19601071E-02 -2.34735357E+00  9.92185540E-01 -5.19601071E-02
 -2.34735357E+00  9.92185540E-01  2.37264937E+00  1.92398866E+00  3.76121825E+00
  2.37264937E+00  1.92398866E+00  3.76121825E+00  3.78398384E+00  4.11715185E+00
  1.62774390E+00  3.78398384E+00  4.11715185E+00  1.62774390E+00  4.39916916E-01
  4.05231356E+00  2.00397515E+00  4.39916916E-01  4.05231356E+00  2.00397515E+00
 -4.98964821E+00 -2.77304257E+00 -1.96164727E+00 -4.98964821E+00 -2.77304257E+00
 -1.96164727E+00 -4.22770120E+00 -3.15167757E+00  1.25266161E+00 -4.22770120E+00
 -3.15167757E+00  1.25266161E+00 -7.07094522E+00  4.86627361E-01  2.37220529E+00
 -7.07094522E+00  4.86627361E-01  2.37220529E+00 -7.69659007E+00  9.90420810E-01
 -8.67499617E-01 -7.69659007E+00  9.90420810E-01 -8.67499617E-01 -8.77899883E+00
 -1.81328645E+00  6.37708822E-01 -8.77899883E+00 -1.81328645E+00  6.37708822E-01
  5.79645122E+00 -3.59490749E+00  6.63904206E-01  5.79645122E+00 -3.59490749E+00
  6.63904206E-01
Constraint Structure                       R   N=          63
  4.13065766E+00 -2.80501514E+00  8.44032901E-01 -3.00504065E+00  2.27166631E+00
 -1.46317531E+00  6.21707792E+00  1.68752317E-01 -1.43002573E+00 -2.93310205E-01
 -6.61634708E-01  1.23833705E-01  1.88476551E+00  9.70997893E-01 -1.96214092E-01
  2.14788726E+00  2.89736014E+00  1.95241586E+00 -4.76370118E+00 -1.74836315E+00
 -1.73741469E-01 -2.64717951E+00  1.53988175E-01 -5.48016848E-01  4.29221986E+00
 -5.50341326E-01 -4.00383883E-01 -7.23392091E+00 -4.45988385E-01  5.36266434E-01
  1.65402809E+00  1.99206039E+00 -1.97790269E+00 -5.19601071E-02 -2.34735357E+00
  9.92185540E-01  2.37264937E+00  1.92398866E+00  3.76121825E+00  3.78398384E+00
  4.11715185E+00  1.62774390E+00  4.39916916E-01  4.05231356E+00  2.00397515E+00
 -4.98964821E+00 -2.77304257E+00 -1.96164727E+00 -4.22770120E+00 -3.15167757E+00
  1.25266161E+00 -7.07094522E+00  4.86627361E-01  2.37220529E+00 -7.69659007E+00
  9.90420810E-01 -8.67499617E-01 -8.77899883E+00 -1.81328645E+00  6.37708822E-01
  5.79645122E+00 -3.59490749E+00  6.63904206E-01
Num ILSW                                   I              100
ILSW                                       I   N=         100
           0           1           0           0           2           0
           0           0           0           0           0          -1
           0           0           0           0           0           0
           0           0           0           0           1           0
           1           0           0           0           0           0
           0           0      100000           0          -1           0
           0           0           0           0           0           0
           0           0           0           1           1           0
           0           0           1           0           0           0
           0           0           4          40           0           0
           0           0           0           0           0           0
           0           0           0           0           0           0
           0           0           0           0           0           0
           0           0           0           0           0           0
           0           0           0           0           0           0
           0           0           0           0           0           0
           0           0           0           0
Num RLSW                                   I               40
RLSW                                       R   N=          40
  1.00000000E+00  1.00000000E+00  1.00000000E+00  1.00000000E+00  1.00000000E+00
  0.00000000E+00  0.00000000E+00  1.00000000E+00  0.00000000E+00  0.00000000E+00
  0.00000000E+00  0.00000000E+00  1.00000000E+00  0.00000000E+00  0.00000000E+00
  0.00000000E+00  0.00000000E+00  1.00000000E+00  0.00000000E+00  0.00000000E+00
  0.00000000E+00  0.00000000E+00  1.00000000E+00  0.00000000E+00  0.00000000E+00
  0.00000000E+00  0.00000000E+00  1.00000000E+00  0.00000000E+00  0.00000000E+00
  0.00000000E+00  0.00000000E+00  0.00000000E+00  0.00000000E+00  0.00000000E+00
  0.00000000E+00  0.00000000E+00  0.00000000E+00  1.00000000E+00  1.00000000E+00
MxBond                                     I                4
NBond                                      I   N=          21
           2           1           1           3           4           4
           4           3           3           4           1           1
           1           1           1           1           1           1
           1           1           1
IBond                                      I   N=          84
           9          21           0           0           8           0
           0           0           9           0           0           0
           5           8          12           0           4           6
           9          11           5          13          14          15
           8          10          16          17           2           4
           7           0           1           3           5           0
           7          18          19          20           5           0
           0           0           4           0           0           0
           6           0           0           0           6           0
           0           0           6           0           0           0
           7           0           0           0           7           0
           0           0          10           0           0           0
          10           0           0           0          10           0
           0           0           1           0           0           0
RBond                                      R   N=          84
  1.50000000E+00  1.00000000E+00  0.00000000E+00  0.00000000E+00  2.00000000E+00
  0.00000000E+00  0.00000000E+00  0.00000000E+00  2.00000000E+00  0.00000000E+00
  0.00000000E+00  0.00000000E+00  1.00000000E+00  1.41000000E+00  1.00000000E+00
  0.00000000E+00  1.00000000E+00  1.00000000E+00  1.00000000E+00  1.00000000E+00
  1.00000000E+00  1.00000000E+00  1.00000000E+00  1.00000000E+00  1.00000000E+00
  1.00000000E+00  1.00000000E+00  1.00000000E+00  2.00000000E+00  1.41000000E+00
  1.00000000E+00  0.00000000E+00  1.50000000E+00  2.00000000E+00  1.00000000E+00
  0.00000000E+00  1.00000000E+00  1.00000000E+00  1.00000000E+00  1.00000000E+00
  1.00000000E+00  0.00000000E+00  0.00000000E+00  0.00000000E+00  1.00000000E+00
  0.00000000E+00  0.00000000E+00  0.00000000E+00  1.00000000E+00  0.00000000E+00
  0.00000000E+00  0.00000000E+00  1.00000000E+00  0.00000000E+00  0.00000000E+00
  0.00000000E+00  1.00000000E+00  0.00000000E+00  0.00000000E+00  0.00000000E+00
  1.00000000E+00  0.00000000E+00  0.00000000E+00  0.00000000E+00  1.00000000E+00
  0.00000000E+00  0.00000000E+00  0.00000000E+00  1.00000000E+00  0.00000000E+00
  0.00000000E+00  0.00000000E+00  1.00000000E+00  0.00000000E+00  0.00000000E+00
  0.00000000E+00  1.00000000E+00  0.00000000E+00  0.00000000E+00  0.00000000E+00
  1.00000000E+00  0.00000000E+00  0.00000000E+00  0.00000000E+00
Virial Ratio                               R      2.002724174143894E+00
SCF Energy                                 R     -5.126871593078682E+02
MP2 Energy                                 R     -5.141565913548263E+02
Total Energy                               R     -5.141565913548263E+02
Post-SCF wavefunction norm                 R      1.706212737671062E+00
RMS Force                                  R      2.656544843112597E-07
RMS Density                                R      4.136539596742636E-10
External E-field                           R   N=          35
  0.00000000E+00  0.00000000E+00  0.00000000E+00  0.00000000E+00  0.00000000E+00
  0.00000000E+00  0.00000000E+00  0.00000000E+00  0.00000000E+00  0.00000000E+00
  0.00000000E+00  0.00000000E+00  0.00000000E+00  0.00000000E+00  0.00000000E+00
  0.00000000E+00  0.00000000E+00  0.00000000E+00  0.00000000E+00  0.00000000E+00
  0.00000000E+00  0.00000000E+00  0.00000000E+00  0.00000000E+00  0.00000000E+00
  0.00000000E+00  0.00000000E+00  0.00000000E+00  0.00000000E+00  0.00000000E+00
  0.00000000E+00  0.00000000E+00  0.00000000E+00  0.00000000E+00  0.00000000E+00
IOpCl                                      I                0
IROHF                                      I                0
Alpha Orbital Energies                     R   N=         172
 -2.06389782E+01 -2.05713009E+01 -2.05275057E+01 -1.55975266E+01 -1.14056680E+01
 -1.13576863E+01 -1.12940791E+01 -1.12467599E+01 -1.12315777E+01 -1.12224213E+01
 -1.47360822E+00 -1.37543394E+00 -1.36936765E+00 -1.24189567E+00 -1.07428716E+00
 -1.03584028E+00 -9.25504372E-01 -8.84831064E-01 -8.19227116E-01 -7.90874856E-01
 -7.24231724E-01 -7.08843446E-01 -6.76325553E-01 -6.56410028E-01 -6.39946870E-01
 -6.30499851E-01 -6.06677541E-01 -5.94228009E-01 -5.81188450E-01 -5.54104649E-01
 -5.47512694E-01 -5.25366300E-01 -5.21500886E-01 -5.11229633E-01 -4.93797752E-01
 -4.82856254E-01 -4.63514175E-01 -4.20562660E-01 -3.93116191E-01  1.63312567E-01
  1.89258890E-01  2.04146047E-01  2.28266863E-01  2.60504934E-01  2.73597133E-01
  2.88632675E-01  2.97672952E-01  3.17066839E-01  3.22351126E-01  3.28611429E-01
  3.30701096E-01  3.45731826E-01  3.75091355E-01  3.86453598E-01  4.10437405E-01
  4.20716249E-01  4.49792403E-01  4.75469175E-01  5.37998607E-01  5.62253362E-01
  6.10715182E-01  6.94676737E-01  7.16348677E-01  7.32310623E-01  7.44442516E-01
  7.57926784E-01  7.66278300E-01  7.94465334E-01  8.09228304E-01  8.41638230E-01
  8.58085663E-01  8.92792363E-01  9.03325137E-01  9.20796916E-01  9.39022764E-01
  9.65237520E-01  9.81016980E-01  1.01027766E+00  1.02037855E+00  1.03017632E+00
  1.04929409E+00  1.07453040E+00  1.09999588E+00  1.12254369E+00  1.12794476E+00
  1.14667930E+00  1.15020615E+00  1.15970459E+00  1.16543435E+00  1.16886658E+00
  1.18605630E+00  1.19696075E+00  1.21151331E+00  1.21620513E+00  1.22834119E+00
  1.25043604E+00  1.26224230E+00  1.28209988E+00  1.33935275E+00  1.34954344E+00
  1.37184542E+00  1.39371178E+00  1.43499000E+00  1.51284078E+00  1.51892955E+00
  1.58106603E+00  1.61556918E+00  1.62055314E+00  1.68304628E+00  1.68922892E+00
  1.73417137E+00  1.76699162E+00  1.78480359E+00  1.85507841E+00  1.90559604E+00
  1.93669271E+00  2.01186753E+00  2.02769393E+00  2.03708736E+00  2.05490593E+00
  2.07857362E+00  2.09501957E+00  2.10479195E+00  2.12279386E+00  2.13509529E+00
  2.15893847E+00  2.16952649E+00  2.19694701E+00  2.23302436E+00  2.25678457E+00
  2.26693990E+00  2.28770287E+00  2.30642940E+00  2.35017991E+00  2.38678592E+00
  2.39160384E+00  2.43933035E+00  2.48885399E+00  2.57551874E+00  2.58038690E+00