021_Imidazole Gaussian SP Calculation on node35.bme.utexas.edu          
Freq      RMP2-FC                                                     6-31G(d)            
Number of atoms                            I                9
Info1-9                                    I   N=           9
          20          19        1002           0           0         100
           6           2           1
Charge                                     I                0
Multiplicity                               I                1
Number of electrons                        I               36
Number of alpha electrons                  I               18
Number of beta electrons                   I               18
Number of basis functions                  I               83
Number of independent functions            I               83
Number of point charges in /Mol/           I                0
Number of translation vectors              I                0
Atomic numbers                             I   N=           9
           6           6           7           6           7           1
           1           1           1
Nuclear charges                            R   N=           9
  6.00000000E+00  6.00000000E+00  7.00000000E+00  6.00000000E+00  7.00000000E+00
  1.00000000E+00  1.00000000E+00  1.00000000E+00  1.00000000E+00
Current cartesian coordinates              R   N=          27
  2.17273564E+00 -4.21291183E-01  9.99311239E-06  1.04903659E+00  1.92716913E+00
 -9.05865142E-06 -1.50566833E+00  1.44569062E+00  6.56475331E-06 -1.81596253E+00
 -1.11673097E+00  2.89931299E-06  3.84609472E-01 -2.31153709E+00 -1.06749485E-05
 -2.89863729E+00  2.75622501E+00 -7.99362866E-06  4.17013668E+00 -8.54376013E-01
  1.79280702E-05  1.80067190E+00  3.82449575E+00 -1.04234079E-05 -3.65961753E+00
 -2.00030134E+00  6.25768908E-06
Force Field                                I                0
Int Atom Types                             I   N=           9
           0           0           0           0           0           0
           0           0           0
MM charges                                 R   N=           9
  0.00000000E+00  0.00000000E+00  0.00000000E+00  0.00000000E+00  0.00000000E+00
  0.00000000E+00  0.00000000E+00  0.00000000E+00  0.00000000E+00
Integer atomic weights                     I   N=           9
          12          12          14          12          14           1
           1           1           1
Real atomic weights                        R   N=           9
  1.20000000E+01  1.20000000E+01  1.40030740E+01  1.20000000E+01  1.40030740E+01
  1.00782504E+00  1.00782504E+00  1.00782504E+00  1.00782504E+00
Atom fragment info                         I   N=           9
           0           0           0           0           0           0
           0           0           0
Atom residue num                           I   N=           9
           0           0           0           0           0           0
           0           0           0
Nuclear spins                              I   N=           9
           0           0           2           0           2           1
           1           1           1
Nuclear ZEff                               R   N=           9
 -3.60000000E+00 -3.60000000E+00 -4.55000000E+00 -3.60000000E+00 -4.55000000E+00
 -1.00000000E+00 -1.00000000E+00 -1.00000000E+00 -1.00000000E+00
Nuclear QMom                               R   N=           9
  0.00000000E+00  0.00000000E+00  2.04400000E+00  0.00000000E+00  2.04400000E+00
  0.00000000E+00  0.00000000E+00  0.00000000E+00  0.00000000E+00
Nuclear GFac                               R   N=           9
  0.00000000E+00  0.00000000E+00  4.03761000E-01  0.00000000E+00  4.03761000E-01
  2.79284600E+00  2.79284600E+00  2.79284600E+00  2.79284600E+00
MicOpt                                     I   N=           9
          -1          -1          -1          -1          -1          -1
          -1          -1          -1
Number of contracted shells                I               28
Number of primitive shells                 I               71
Pure/Cartesian d shells                    I                1
Pure/Cartesian f shells                    I                0
Highest angular momentum                   I                2
Largest degree of contraction              I                6
Shell types                                I   N=          28
           0          -1          -1           2           0          -1
          -1           2           0          -1          -1           2
           0          -1          -1           2           0          -1
          -1           2           0           0           0           0
           0           0           0           0
Number of primitives per shell             I   N=          28
           6           3           1           1           6           3
           1           1           6           3           1           1
           6           3           1           1           6           3
           1           1           3           1           3           1
           3           1           3           1
Shell to atom map                          I   N=          28
           1           1           1           1           2           2
           2           2           3           3           3           3
           4           4           4           4           5           5
           5           5           6           6           7           7
           8           8           9           9
Primitive exponents                        R   N=          71
  3.04752488E+03  4.57369518E+02  1.03948685E+02  2.92101553E+01  9.28666296E+00
  3.16392696E+00  7.86827235E+00  1.88128854E+00  5.44249258E-01  1.68714478E-01
  8.00000000E-01  3.04752488E+03  4.57369518E+02  1.03948685E+02  2.92101553E+01
  9.28666296E+00  3.16392696E+00  7.86827235E+00  1.88128854E+00  5.44249258E-01
  1.68714478E-01  8.00000000E-01  4.17351146E+03  6.27457911E+02  1.42902093E+02
  4.02343293E+01  1.28202129E+01  4.39043701E+00  1.16263619E+01  2.71627981E+00
  7.72218397E-01  2.12031498E-01  8.00000000E-01  3.04752488E+03  4.57369518E+02
  1.03948685E+02  2.92101553E+01  9.28666296E+00  3.16392696E+00  7.86827235E+00
  1.88128854E+00  5.44249258E-01  1.68714478E-01  8.00000000E-01  4.17351146E+03
  6.27457911E+02  1.42902093E+02  4.02343293E+01  1.28202129E+01  4.39043701E+00
  1.16263619E+01  2.71627981E+00  7.72218397E-01  2.12031498E-01  8.00000000E-01
  1.87311370E+01  2.82539436E+00  6.40121692E-01  1.61277759E-01  1.87311370E+01
  2.82539436E+00  6.40121692E-01  1.61277759E-01  1.87311370E+01  2.82539436E+00
  6.40121692E-01  1.61277759E-01  1.87311370E+01  2.82539436E+00  6.40121692E-01
  1.61277759E-01
Contraction coefficients                   R   N=          71
  1.83473713E-03  1.40373228E-02  6.88426223E-02  2.32184443E-01  4.67941348E-01
  3.62311985E-01 -1.19332420E-01 -1.60854152E-01  1.14345644E+00  1.00000000E+00
  1.00000000E+00  1.83473713E-03  1.40373228E-02  6.88426223E-02  2.32184443E-01
  4.67941348E-01  3.62311985E-01 -1.19332420E-01 -1.60854152E-01  1.14345644E+00
  1.00000000E+00  1.00000000E+00  1.83477216E-03  1.39946270E-02  6.85865518E-02
  2.32240873E-01  4.69069948E-01  3.60455199E-01 -1.14961182E-01 -1.69117479E-01
  1.14585195E+00  1.00000000E+00  1.00000000E+00  1.83473713E-03  1.40373228E-02
  6.88426223E-02  2.32184443E-01  4.67941348E-01  3.62311985E-01 -1.19332420E-01
 -1.60854152E-01  1.14345644E+00  1.00000000E+00  1.00000000E+00  1.83477216E-03
  1.39946270E-02  6.85865518E-02  2.32240873E-01  4.69069948E-01  3.60455199E-01
 -1.14961182E-01 -1.69117479E-01  1.14585195E+00  1.00000000E+00  1.00000000E+00
  3.34946043E-02  2.34726953E-01  8.13757326E-01  1.00000000E+00  3.34946043E-02
  2.34726953E-01  8.13757326E-01  1.00000000E+00  3.34946043E-02  2.34726953E-01
  8.13757326E-01  1.00000000E+00  3.34946043E-02  2.34726953E-01  8.13757326E-01
  1.00000000E+00
P(S=P) Contraction coefficients            R   N=          71
  0.00000000E+00  0.00000000E+00  0.00000000E+00  0.00000000E+00  0.00000000E+00
  0.00000000E+00  6.89990666E-02  3.16423961E-01  7.44308291E-01  1.00000000E+00
  0.00000000E+00  0.00000000E+00  0.00000000E+00  0.00000000E+00  0.00000000E+00
  0.00000000E+00  0.00000000E+00  6.89990666E-02  3.16423961E-01  7.44308291E-01
  1.00000000E+00  0.00000000E+00  0.00000000E+00  0.00000000E+00  0.00000000E+00
  0.00000000E+00  0.00000000E+00  0.00000000E+00  6.75797439E-02  3.23907296E-01
  7.40895140E-01  1.00000000E+00  0.00000000E+00  0.00000000E+00  0.00000000E+00
  0.00000000E+00  0.00000000E+00  0.00000000E+00  0.00000000E+00  6.89990666E-02
  3.16423961E-01  7.44308291E-01  1.00000000E+00  0.00000000E+00  0.00000000E+00
  0.00000000E+00  0.00000000E+00  0.00000000E+00  0.00000000E+00  0.00000000E+00
  6.75797439E-02  3.23907296E-01  7.40895140E-01  1.00000000E+00  0.00000000E+00
  0.00000000E+00  0.00000000E+00  0.00000000E+00  0.00000000E+00  0.00000000E+00
  0.00000000E+00  0.00000000E+00  0.00000000E+00  0.00000000E+00  0.00000000E+00
  0.00000000E+00  0.00000000E+00  0.00000000E+00  0.00000000E+00  0.00000000E+00
  0.00000000E+00
Coordinates of each shell                  R   N=          84
  2.17273564E+00 -4.21291183E-01  9.99311239E-06  2.17273564E+00 -4.21291183E-01
  9.99311239E-06  2.17273564E+00 -4.21291183E-01  9.99311239E-06  2.17273564E+00
 -4.21291183E-01  9.99311239E-06  1.04903659E+00  1.92716913E+00 -9.05865142E-06
  1.04903659E+00  1.92716913E+00 -9.05865142E-06  1.04903659E+00  1.92716913E+00
 -9.05865142E-06  1.04903659E+00  1.92716913E+00 -9.05865142E-06 -1.50566833E+00
  1.44569062E+00  6.56475331E-06 -1.50566833E+00  1.44569062E+00  6.56475331E-06
 -1.50566833E+00  1.44569062E+00  6.56475331E-06 -1.50566833E+00  1.44569062E+00
  6.56475331E-06 -1.81596253E+00 -1.11673097E+00  2.89931299E-06 -1.81596253E+00
 -1.11673097E+00  2.89931299E-06 -1.81596253E+00 -1.11673097E+00  2.89931299E-06
 -1.81596253E+00 -1.11673097E+00  2.89931299E-06  3.84609472E-01 -2.31153709E+00
 -1.06749485E-05  3.84609472E-01 -2.31153709E+00 -1.06749485E-05  3.84609472E-01
 -2.31153709E+00 -1.06749485E-05  3.84609472E-01 -2.31153709E+00 -1.06749485E-05
 -2.89863729E+00  2.75622501E+00 -7.99362866E-06 -2.89863729E+00  2.75622501E+00
 -7.99362866E-06  4.17013668E+00 -8.54376013E-01  1.79280702E-05  4.17013668E+00
 -8.54376013E-01  1.79280702E-05  1.80067190E+00  3.82449575E+00 -1.04234079E-05
  1.80067190E+00  3.82449575E+00 -1.04234079E-05 -3.65961753E+00 -2.00030134E+00
  6.25768908E-06 -3.65961753E+00 -2.00030134E+00  6.25768908E-06
Constraint Structure                       R   N=          27
  2.17273564E+00 -4.21291183E-01  9.99311239E-06  1.04903659E+00  1.92716913E+00
 -9.05865142E-06 -1.50566833E+00  1.44569062E+00  6.56475331E-06 -1.81596253E+00
 -1.11673097E+00  2.89931299E-06  3.84609472E-01 -2.31153709E+00 -1.06749485E-05
 -2.89863729E+00  2.75622501E+00 -7.99362866E-06  4.17013668E+00 -8.54376013E-01
  1.79280702E-05  1.80067190E+00  3.82449575E+00 -1.04234079E-05 -3.65961753E+00
 -2.00030134E+00  6.25768908E-06
Num ILSW                                   I              100
ILSW                                       I   N=         100
           0           1           0           0           2           0
           0           0           0           0           0          -1
           0           0           0           0           0           0
           0           0           0           0           1           0
           1           0           0           0           0           0
           0           0      100000           0          -1           0
           0           0           0           0           0           0
           0           0           0           1           1           0
           0           0           1           0           0           0
           0           0           4          40           0           0
           0           0           0           0           0           0
           0           0           0           0           0           0
           0           0           0           0           0           0
           0           0           0           0           0           0
           0           0           0           0           0           0
           0           0           0           0           0           0
           0           0           0           0
Num RLSW                                   I               40
RLSW                                       R   N=          40
  1.00000000E+00  1.00000000E+00  1.00000000E+00  1.00000000E+00  1.00000000E+00
  0.00000000E+00  0.00000000E+00  1.00000000E+00  0.00000000E+00  0.00000000E+00
  0.00000000E+00  0.00000000E+00  1.00000000E+00  0.00000000E+00  0.00000000E+00
  0.00000000E+00  0.00000000E+00  1.00000000E+00  0.00000000E+00  0.00000000E+00
  0.00000000E+00  0.00000000E+00  1.00000000E+00  0.00000000E+00  0.00000000E+00
  0.00000000E+00  0.00000000E+00  1.00000000E+00  0.00000000E+00  0.00000000E+00
  0.00000000E+00  0.00000000E+00  0.00000000E+00  0.00000000E+00  0.00000000E+00
  0.00000000E+00  0.00000000E+00  0.00000000E+00  1.00000000E+00  1.00000000E+00
MxBond                                     I                3
NBond                                      I   N=           9
           3           3           3           3           2           1
           1           1           1
IBond                                      I   N=          27
           2           5           7           1           3           8
           2           4           6           3           5           9
           1           4           0           3           0           0
           1           0           0           2           0           0
           4           0           0
RBond                                      R   N=          27
  1.50000000E+00  1.00000000E+00  1.00000000E+00  1.50000000E+00  1.50000000E+00
  1.00000000E+00  1.50000000E+00  1.50000000E+00  1.00000000E+00  1.50000000E+00
  1.50000000E+00  1.00000000E+00  1.00000000E+00  1.50000000E+00  0.00000000E+00
  1.00000000E+00  0.00000000E+00  0.00000000E+00  1.00000000E+00  0.00000000E+00
  0.00000000E+00  1.00000000E+00  0.00000000E+00  0.00000000E+00  1.00000000E+00
  0.00000000E+00  0.00000000E+00
Virial Ratio                               R      2.002951747327927E+00
SCF Energy                                 R     -2.248110785228626E+02
MP2 Energy                                 R     -2.255192093517662E+02
Total Energy                               R     -2.255192093517662E+02
Post-SCF wavefunction norm                 R      1.576554403737731E+00
RMS Force                                  R      2.608626580362792E-06
RMS Density                                R      1.407040394931768E-09
External E-field                           R   N=          35
  0.00000000E+00  0.00000000E+00  0.00000000E+00  0.00000000E+00  0.00000000E+00
  0.00000000E+00  0.00000000E+00  0.00000000E+00  0.00000000E+00  0.00000000E+00
  0.00000000E+00  0.00000000E+00  0.00000000E+00  0.00000000E+00  0.00000000E+00
  0.00000000E+00  0.00000000E+00  0.00000000E+00  0.00000000E+00  0.00000000E+00
  0.00000000E+00  0.00000000E+00  0.00000000E+00  0.00000000E+00  0.00000000E+00
  0.00000000E+00  0.00000000E+00  0.00000000E+00  0.00000000E+00  0.00000000E+00
  0.00000000E+00  0.00000000E+00  0.00000000E+00  0.00000000E+00  0.00000000E+00
IOpCl                                      I                0
IROHF                                      I                0
Alpha Orbital Energies                     R   N=          83
 -1.56267531E+01 -1.55447140E+01 -1.12953085E+01 -1.12603677E+01 -1.12402998E+01
 -1.33331798E+00 -1.15920975E+00 -9.99628750E-01 -8.23114342E-01 -7.92689997E-01
 -7.52047423E-01 -6.01892617E-01 -5.98081652E-01 -5.89852614E-01 -5.62540173E-01
 -4.29871316E-01 -3.91221955E-01 -3.12731923E-01  1.87664593E-01  2.15756676E-01
  2.42302084E-01  2.80612005E-01  2.96357733E-01  3.17302175E-01  3.96711016E-01
  4.09437974E-01  4.88188952E-01  5.13998429E-01  6.74343954E-01  7.17599727E-01
  7.69270646E-01  8.02889319E-01  8.10822332E-01  8.36489905E-01  8.74186068E-01
  8.74720648E-01  8.86475781E-01  9.32884694E-01  1.01790570E+00  1.04718538E+00
  1.05492631E+00  1.09154632E+00  1.11376886E+00  1.12413985E+00  1.15580869E+00
  1.17320033E+00  1.24051824E+00  1.26810776E+00  1.43919378E+00  1.48641088E+00
  1.55514481E+00  1.59280861E+00  1.62750887E+00  1.65579332E+00  1.71357248E+00
  1.77264097E+00  1.83921470E+00  1.85519784E+00  2.04704093E+00  2.17691937E+00
  2.31900173E+00  2.35135531E+00  2.40511330E+00  2.43963705E+00  2.53804303E+00
  2.56214513E+00  2.59747136E+00  2.61486992E+00  2.65964703E+00  2.73951850E+00
  2.90562214E+00  2.93384018E+00  2.95177839E+00  3.04663383E+00  3.09559432E+00
  3.32034569E+00  3.35671692E+00  3.43060496E+00  4.29816996E+00  4.41658846E+00
  4.55086357E+00  4.64702880E+00  4.79892772E+00
Alpha MO coefficients                      R   N=        6889
  2.02918933E-05  3.97150683E-05 -1.27657815E-05 -6.10466934E-05  2.49055896E-10
 -1.31383965E-03  8.85111432E-04 -2.42569392E-04  5.92407620E-09  5.90871951E-05
  1.23531301E-05  2.96926179E-05 -6.78818275E-06 -1.01239724E-09 -2.78874799E-10
  1.64842614E-05  1.62729889E-04 -2.54567005E-04 -1.06079121E-05  7.92111481E-10
  2.23231599E-03 -8.51541907E-04 -1.12469132E-03  7.61847723E-09 -9.07682342E-05
 -6.40097967E-05 -7.42989986E-05 -1.84434635E-05  6.97805324E-10 -7.95156424E-10
  9.94969501E-01  2.52071532E-02  6.49350843E-05 -6.60109992E-05 -1.80434403E-08
 -3.39736172E-03 -9.25113452E-04  7.59785597E-04  1.65307247E-08 -3.42447768E-03
 -3.40462956E-03 -3.41586406E-03 -5.03374741E-05  2.29598674E-09 -3.96495244E-10
  2.62752384E-05  1.89824944E-04 -4.29656560E-06  2.60770005E-04 -1.68690341E-10
  1.67926614E-03  7.71077489E-04  7.55642537E-04 -2.47439267E-09 -5.57310643E-05
 -9.33740544E-05 -5.65041483E-05 -1.49522421E-05  2.89314093E-11  1.97746690E-10
 -2.12339654E-04 -1.85783464E-05  4.08560949E-05 -1.70400652E-05 -4.54915878E-10
 -1.80636494E-04  2.02135185E-04 -8.18784839E-05  2.38767329E-09  2.04369829E-05
  2.51879732E-05 -1.34297050E-05  2.75358888E-05 -6.33021235E-10  5.50302476E-10
  1.25263065E-04  1.28429655E-04 -4.67543804E-05 -2.37118415E-04  9.63224192E-06
  3.23862406E-04 -1.95460106E-06  2.33682547E-04  9.19831465E-06  3.55768279E-04
 -7.70803078E-05 -1.09476877E-04 -1.83318883E-10  3.10558230E-03 -1.71561508E-03
  2.20505850E-05 -1.65797856E-08 -2.83844860E-04 -2.65765481E-04 -8.90643355E-05
 -2.39769560E-04 -8.57979350E-10 -4.06669247E-09  1.78673456E-05  1.41162456E-05
 -4.82770893E-05  5.52770215E-05  6.49194337E-12 -1.68050695E-03  3.97372905E-04
  1.05318704E-03 -6.95985567E-09  2.68614744E-05  3.49848919E-05  1.82101199E-05
  2.15735384E-05  1.72393780E-09  1.45885627E-09  2.22747144E-04 -8.02451571E-05
  2.49232732E-06  6.59909046E-05  1.14946316E-09 -1.18694916E-04  2.21112964E-04
  2.31338767E-04 -3.95612437E-09  7.16811099E-05  1.04583517E-05 -5.71172571E-05
 -2.77222445E-05 -1.23433621E-09  1.06606571E-09  3.38205863E-05  4.17109488E-04
  4.34382690E-06 -4.05080793E-05  1.11343621E-09  2.34106426E-03  1.24205996E-03
  2.93687979E-04 -5.84215298E-09 -5.23743649E-04 -1.75267640E-04 -4.00544680E-05
  2.42352820E-04  2.31577603E-09 -2.58410775E-09  9.95214184E-01  2.46885721E-02
 -4.55000246E-04  2.02391422E-03  1.76238048E-08 -4.87565789E-03  2.76859325E-04
 -2.42459262E-03 -2.04444290E-08 -2.72749931E-03 -2.80482569E-03 -3.16565147E-03
 -9.54185481E-05 -6.28091762E-10  7.65182590E-10 -1.68692013E-05  4.48155273E-05
  1.82992343E-05  3.22982436E-04 -4.26853446E-05 -2.93954461E-04  3.02364994E-05
  2.01784555E-04 -2.20180213E-04 -1.03162708E-04 -7.61087156E-05 -2.20037056E-04
 -2.28171453E-09 -2.94675823E-04 -6.25736824E-04 -3.48593066E-04  7.77662524E-09
  1.63477876E-04  3.95989375E-05 -1.58906111E-05  1.28804558E-04 -6.25320595E-10
  5.19963079E-10 -5.43896187E-04 -2.18726395E-04 -2.43820438E-04  3.66216377E-05
  2.64708423E-09  1.53962014E-03 -6.45033103E-04 -1.77996168E-03  4.37889812E-09
  2.17915254E-04  1.08277754E-04 -3.60919057E-05  1.26878172E-04 -1.24413600E-09
 -1.46759093E-09 -2.36168202E-04  4.99019636E-04  7.65622856E-05 -2.49205722E-05
  1.43258548E-09 -1.22476665E-03 -1.84584192E-03  1.79505729E-03  9.45533843E-10
 -1.84920089E-04 -6.27031694E-04  2.33845340E-04 -4.22376581E-05  4.32675292E-09
 -2.82995498E-09  9.95635694E-01  2.68054777E-02  3.57490021E-04  9.02658060E-04
  4.26497413E-10 -6.11993296E-03  1.45266883E-03  6.08586430E-04  9.92998992E-10
 -1.50475781E-03 -1.51553087E-03 -2.50583974E-03  7.36826211E-05 -3.04645506E-09
  1.11665673E-09 -3.12503623E-04  2.89257559E-04 -2.06799288E-05  1.31234985E-05
 -5.54944422E-10 -8.49042670E-04 -8.72927957E-05 -1.03971451E-03 -1.16098464E-08
 -1.38195636E-04 -2.93323834E-04  1.90926094E-04  3.02065811E-06  1.29057389E-10
 -4.74358787E-09 -2.99914409E-04 -7.72358692E-04  5.19492010E-05  3.35332844E-04
  8.35032995E-05  7.69290181E-04 -2.25500537E-04  2.42203233E-03  3.24565438E-02
  7.31295507E-04  6.42996127E-05 -1.88867014E-04  1.72704292E-09  3.63778906E-03
 -7.51729444E-04  1.36926007E-03 -8.83399982E-09 -3.73811813E-04 -2.77277966E-04
 -1.50351903E-04  5.80495101E-05 -1.90851840E-09  1.07090404E-09  9.95089903E-01
  2.72827452E-02 -1.16979450E-03 -1.81162697E-04  1.70623742E-08 -9.41568999E-03
 -4.83460884E-04  6.42206085E-04 -1.95775912E-08 -1.59732696E-03 -1.55208077E-03
 -2.40630697E-03  1.81200953E-04 -3.52687218E-09 -4.65187688E-09 -2.29300417E-04
  4.89162015E-04  4.66064908E-05 -3.67902359E-06  5.71915741E-10 -8.82305984E-04
 -1.71329504E-03  1.58779435E-03  7.96646919E-09 -6.87530920E-04 -2.23698809E-04
  2.09070381E-04 -9.06387963E-05  7.92123175E-09 -4.83092984E-10  5.42958403E-04
 -2.29201045E-04  4.24645690E-05  9.63762872E-05  6.42744079E-10  3.08148399E-03
  3.04089835E-03  9.36535072E-04 -1.35912709E-08  1.54011842E-04  2.49469730E-04
 -7.48485333E-05  8.07111355E-05 -1.85878033E-09 -2.16804880E-10  8.61279898E-05
  2.82730947E-04  3.24215084E-05  5.62639408E-05  7.89486755E-10 -3.46859120E-03
  7.86284871E-04 -1.17568219E-03 -1.07687344E-08  1.33569252E-04  2.52546338E-04
  2.02319303E-04  1.05413398E-04  4.41103344E-10 -1.98127419E-09 -2.69976569E-04
 -7.27731811E-04 -7.06762226E-05  2.14445182E-05 -3.17360647E-04  1.92457763E-03
  1.24282133E-04  1.15151273E-03  9.95119081E-01  2.73443270E-02 -6.20057540E-04
 -2.35533532E-04 -1.50647058E-08 -1.11624068E-02  1.15167063E-03 -1.46237668E-03
  2.60993489E-08 -1.54039783E-03 -1.64205778E-03 -2.39272594E-03  1.78866166E-06
  6.08233905E-09 -3.73341153E-10 -3.29738830E-02 -1.03410959E-03 -1.05068329E-04
  2.00028415E-04 -1.95097743E-09  5.63994810E-03  4.11486013E-04 -2.21764186E-03
  1.51098703E-08 -2.01851093E-04 -3.51134251E-04 -2.41580317E-07  4.01121546E-05
 -1.18322510E-09  2.37862061E-09  1.09339212E-04  2.97771673E-04  1.28379522E-04
 -6.70490355E-05 -5.93036844E-10 -3.45667416E-03 -1.00807490E-03  1.41658272E-03
  3.47299443E-09  3.26621837E-04  1.12027152E-04  2.16922358E-04 -4.27120863E-05
  1.70111950E-09 -1.35052608E-09  1.86253528E-04 -2.09190734E-04  6.49635186E-05
  4.10209449E-05 -2.05615176E-09  2.79744758E-03  2.33740619E-03  1.49423797E-03
  7.99123381E-09  1.90347104E-04  9.62501111E-05 -8.15068789E-05 -1.32411203E-05
  1.08382667E-09  8.59867600E-10 -2.28171522E-04  3.74313119E-04  7.81386935E-05
 -1.83595078E-05 -1.93432154E-10 -6.47535116E-04  3.36541408E-04 -8.73854767E-04
 -1.63487384E-08 -3.20145500E-04 -3.80598059E-04  2.03480571E-04 -1.49428164E-04
 -4.20551058E-09 -6.49302907E-09 -1.26431807E-04 -2.57745812E-04 -2.87442740E-04
  1.60335830E-03 -4.24547082E-05  8.49222670E-05  1.09357996E-04  9.90598742E-04
 -6.10748678E-02  1.12588848E-01 -6.83233261E-02 -1.75822208E-03 -5.53269533E-07
  5.51791159E-02 -6.72470647E-03  9.21921536E-03 -1.83593720E-08  9.06777897E-03
  4.94578875E-03 -7.22968529E-03  3.18392783E-03  1.47502150E-07  3.47140185E-08
 -7.51756550E-02  1.41999833E-01 -6.91365465E-02 -5.19148227E-02  5.86039951E-07
  3.18057502E-02  1.05569053E-02  1.65086293E-02 -1.20664449E-07  1.30615986E-02
  2.57584411E-03 -8.72698257E-03  4.50686016E-03 -1.03359221E-07 -8.69895330E-08
 -1.44424845E-01  2.97601419E-01  4.11315110E-02 -5.11672692E-02 -8.00675815E-07
  3.10180706E-01  2.99970043E-02 -3.39429209E-02 -4.49352166E-07  1.06001681E-02
  1.25804652E-02 -1.06337507E-02 -4.69564686E-03 -4.56915136E-08 -4.01703151E-08
 -9.91157406E-02  1.91788458E-01  7.61028827E-02  6.20220519E-02 -2.39445499E-07
  2.72261865E-02 -3.11187300E-02 -1.38261216E-02  7.85715111E-08  7.54923151E-03
  1.27461919E-02 -1.20831112E-02  1.38706599E-04 -8.97358172E-08  4.68620718E-08
 -8.79820997E-02  1.76642774E-01 -2.75261715E-02  8.15169583E-02  6.17037564E-07
  1.79085263E-01 -1.36741948E-02  4.22766325E-02  3.21406808E-07  3.04421320E-03
  6.96638885E-03 -8.16682187E-03 -3.47927672E-03 -1.29281968E-08  1.48659936E-07
  6.37009661E-02  3.24652259E-03  1.32242976E-02  2.70242564E-04  1.84330936E-02
 -8.11967166E-03  2.50056160E-02 -1.19780832E-02 -7.16049592E-02  1.37431004E-01
 -6.61334490E-02 -7.96323337E-02 -7.58294847E-07  4.14230298E-02  1.93733493E-02
  2.89697833E-03  1.36874663E-07  1.11515404E-02  4.02314502E-03 -7.95808010E-03
  1.49420304E-02  1.86112229E-07  1.34770779E-07  3.32794897E-02 -6.53721897E-02
  8.72480771E-02 -3.22926599E-02 -2.59906359E-07 -9.57277391E-03 -1.08698622E-02
 -2.13735215E-02  6.29933521E-08 -1.50777250E-02  7.50590938E-03  3.95371487E-03
 -5.09754739E-03  1.06137128E-07 -2.68713161E-08  1.27194777E-01 -2.69152591E-01
  6.78325088E-03 -4.16264318E-02  7.47866369E-07 -3.00546848E-01  1.05395067E-03
 -1.99731418E-02  5.29189126E-07 -1.16995794E-02 -4.91895335E-03  6.83316807E-03
  4.13248790E-03 -3.22861921E-08  1.35775532E-07 -3.48867689E-02  6.85575459E-02
  1.10499530E-01 -1.29211721E-01 -5.94171884E-07  2.80213114E-02  2.27314199E-04
 -4.80553879E-03 -3.38452665E-08  2.22519142E-02 -1.68315697E-02 -3.81955008E-03
 -1.18001814E-02 -1.37182190E-07  5.17856214E-08 -1.48919353E-01  3.07324437E-01
 -1.30333114E-02  9.14229672E-02  9.20144669E-07  3.23971317E-01 -8.72132696E-04
  5.03527422E-02  5.39403713E-07  5.00764554E-03  5.10036864E-03 -1.05049035E-02
  1.86650581E-03  1.48029791E-08  1.89634014E-07 -9.64001166E-02 -4.35836448E-03
  2.65619608E-02 -1.54815405E-03 -1.82820480E-02  3.65349775E-03  8.04164668E-03
 -8.48033373E-04 -1.14981275E-01  2.24705594E-01 -2.07590649E-02  9.24423907E-02
 -7.44733893E-07  1.80599026E-01 -6.16547655E-03  1.68882412E-02 -1.11279267E-07
  2.92934958E-03  1.00562558E-02 -9.00283211E-03 -1.01300298E-02  1.35819306E-07
 -9.99781772E-08 -1.37679592E-01  2.71176269E-01  3.09746596E-02 -6.37020353E-02
  1.03431599E-06  1.83923459E-01  1.78925070E-02  6.37264868E-03 -6.72852489E-09
  2.12786106E-03  1.51980593E-02 -1.10597509E-02 -3.37668075E-03 -1.53237640E-08
 -1.76862304E-07  2.68696122E-02 -6.02136761E-02  1.61260056E-01  1.01757086E-01
 -9.92530007E-08 -6.16573282E-02  7.73329439E-02  3.58618404E-02 -1.60762498E-08
  1.14096533E-02 -1.43988235E-02  9.85629756E-05  2.24910490E-03 -1.91341621E-07
 -3.33942965E-08  1.11076117E-01 -2.26390400E-01  5.72783426E-03 -7.64668609E-03
  1.89188046E-07 -1.53628158E-01  9.12612267E-03  2.49560129E-03  6.14704947E-09
 -5.16502060E-03 -9.60310411E-03  1.04174028E-02  5.26362141E-03  9.29340650E-08
 -7.64215078E-08  2.91912130E-02 -6.26905141E-02  1.25728554E-01  1.92738752E-02
 -3.40174673E-08 -7.13653634E-02  3.70696766E-02  3.47114353E-03 -6.96203722E-08
 -5.25864676E-03  6.67247123E-03  2.59844333E-04  1.44610985E-02  1.19616564E-07
  2.36489968E-08 -4.08263490E-02 -2.52527136E-03  6.48337967E-02  1.47623534E-02
  8.12298252E-02  1.49716472E-02 -8.03083635E-02 -1.93926265E-02 -3.48430866E-02
  7.23937795E-02  1.67313851E-02 -1.95872393E-01 -3.36109594E-07  4.21843743E-02
  2.24870202E-02 -3.93176272E-02  1.13429313E-07  7.13565028E-03  1.22172647E-03
 -3.93865165E-03  1.47083585E-02  1.22388431E-07  2.44675692E-07  7.26533446E-02
 -1.42705767E-01 -4.16312763E-02  4.60639617E-02 -7.70494150E-07 -1.10978885E-01
 -2.56806301E-02 -1.93296935E-02 -3.33524213E-08  3.05926329E-03 -1.10267552E-02
  6.28863860E-03 -8.59391594E-03 -3.30010619E-09  1.64896836E-07 -4.94822370E-02
  1.07963077E-01 -1.87186790E-01  2.52457241E-01 -1.04363603E-06  1.41438985E-01
 -1.25499565E-01  1.47201966E-01 -6.39047712E-07  7.80518336E-03  3.30541013E-03
 -2.43050203E-03 -1.77477998E-02  2.90217166E-07 -2.87970005E-07  9.52288303E-02
 -1.97542131E-01  2.61109906E-02 -9.14109733E-03 -1.92605752E-07 -1.47533943E-01
  4.24163596E-02  3.80804513E-03 -1.01722979E-08 -6.24386232E-03 -5.36781296E-03
  9.06762897E-03 -1.38350315E-02  5.46194118E-08 -6.66716942E-08 -6.58268815E-02
  1.44407303E-01  1.74205078E-01 -3.66195277E-03  2.65462523E-07  1.74865475E-01
  7.33214620E-02 -2.65593291E-03  8.00923812E-08 -9.65798353E-04  6.93312855E-04
 -1.21628482E-03  1.63320671E-02  1.89912074E-07  6.38066151E-08  2.01748208E-01
  5.29908347E-02  5.45372051E-02  2.11079314E-02 -5.09930539E-02 -9.83612412E-03
 -9.39171099E-02 -2.95494937E-02 -1.13128993E-01  2.26444781E-01  9.81553967E-02
  1.58565502E-02  1.09957776E-07  1.96705459E-01  6.34723719E-02  9.05734154E-03
  2.88253045E-07  1.14244670E-02  3.85600801E-04 -8.22601815E-03 -8.72411784E-03
  7.99227726E-08 -8.92761844E-08  5.05801797E-02 -1.03621272E-01  1.49166556E-01
 -1.57468253E-01  3.07759384E-07 -5.73190865E-02  6.49298243E-03 -6.85885161E-02
  3.30917077E-07 -1.35384675E-02  1.83691749E-03  6.19042898E-03 -9.91907467E-03
  1.80308469E-07 -1.02387615E-07 -1.47950581E-03  2.15962162E-03 -1.90554633E-01
 -2.13833494E-01  1.20045318E-06 -1.27698425E-03 -1.07516571E-01 -1.20254533E-01
  7.85640568E-07 -8.82556974E-03  8.01301816E-03 -3.53815985E-04 -1.21381947E-03
  2.19211753E-07  1.07670862E-07 -3.02181919E-02  6.12915210E-02 -1.63042147E-01