
    -----------------------------------------------------------------------
          Psi4: An Open-Source Ab Initio Electronic Structure Package
                               Psi4 1.3.2 release

                         Git: Rev {HEAD} ecbda83 


    R. M. Parrish, L. A. Burns, D. G. A. Smith, A. C. Simmonett,
    A. E. DePrince III, E. G. Hohenstein, U. Bozkaya, A. Yu. Sokolov,
    R. Di Remigio, R. M. Richard, J. F. Gonthier, A. M. James,
    H. R. McAlexander, A. Kumar, M. Saitow, X. Wang, B. P. Pritchard,
    P. Verma, H. F. Schaefer III, K. Patkowski, R. A. King, E. F. Valeev,
    F. A. Evangelista, J. M. Turney, T. D. Crawford, and C. D. Sherrill,
    J. Chem. Theory Comput. 13(7) pp 3185--3197 (2017).
    (doi: 10.1021/acs.jctc.7b00174)


                         Additional Contributions by
    P. Kraus, H. Kruse, M. H. Lechner, M. C. Schieber, R. A. Shaw,
    A. Alenaizan, R. Galvelis, Z. L. Glick, S. Lehtola, and J. P. Misiewicz

    -----------------------------------------------------------------------


    Psi4 started on: Sunday, 08 November 2020 07:26PM

    Process ID: 104815
    Host:       node59.bme.utexas.edu
    PSIDATADIR: /home/xy3866/psi4conda/share/psi4
    Memory:     500.0 MiB
    Threads:    8
    
  ==> Input File <==

--------------------------------------------------------------------------
#psi4
#
memory 32 gb

molecule  {
0 1
  C       -0.0001220    -0.6981010     1.1356930
  C       -0.0001220     0.6980960     1.1356820
  N       -0.0001290     1.4176070     0.0000000
  C       -0.0001220     0.6980960    -1.1356820
  C       -0.0001220    -0.6981010    -1.1356930
  N        0.0001330    -1.4176010     0.0000000
  H       -0.1991650    -1.2583212     2.0686337
  H        0.0006130     1.2582660     2.0685540
  H        0.0006130     1.2582660    -2.0685540
  H        0.0008350    -1.2582580    -2.0685610
units angstrom
no_reorient  #important for SAPT in psi4, default
symmetry c1  #important for SAPT in psi4, default
}

set PROPERTIES_ORIGIN ["COM"]
properties('MP2/aug-cc-pvtz', properties = ['dipole'])
--------------------------------------------------------------------------

  Memory set to  29.802 GiB by Python driver.
    SCF Algorithm Type (re)set to DF.

*** tstart() called on node59.bme.utexas.edu
*** at Sun Nov  8 19:26:07 2020

   => Loading Basis Set <=

    Name: AUG-CC-PVTZ
    Role: ORBITAL
    Keyword: BASIS
    atoms 1-2, 4-5 entry C          line   235 file /home/xy3866/psi4conda/share/psi4/basis/aug-cc-pvtz.gbs 
    atoms 3, 6     entry N          line   281 file /home/xy3866/psi4conda/share/psi4/basis/aug-cc-pvtz.gbs 
    atoms 7-10     entry H          line    36 file /home/xy3866/psi4conda/share/psi4/basis/aug-cc-pvtz.gbs 


         ---------------------------------------------------------
                                   SCF
               by Justin Turney, Rob Parrish, Andy Simmonett
                          and Daniel G. A. Smith
                              RHF Reference
                        8 Threads,  30517 MiB Core
         ---------------------------------------------------------

  ==> Geometry <==

    Molecular point group: c1
    Full point group: C1

    Geometry (in Angstrom), charge = 0, multiplicity = 1:

       Center              X                  Y                   Z               Mass       
    ------------   -----------------  -----------------  -----------------  -----------------
         C            0.002432383449    -0.698099956102     1.135692084568    12.000000000000
         C            0.002432383449     0.698097043898     1.135681084568    12.000000000000
         N            0.002425383449     1.417608043898    -0.000000915432    14.003074004430
         C            0.002432383449     0.698097043898    -1.135682915432    12.000000000000
         C            0.002432383449    -0.698099956102    -1.135693915432    12.000000000000
         N            0.002687383449    -1.417599956102    -0.000000915432    14.003074004430
         H           -0.196610616551    -1.258320156102     2.068632784568     1.007825032230
         H            0.003167383449     1.258267043898     2.068553084568     1.007825032230
         H            0.003167383449     1.258267043898    -2.068554915432     1.007825032230
         H            0.003389383449    -1.258256956102    -2.068561915432     1.007825032230

  Running in c1 symmetry.

  Rotational constants: A =      0.21285  B =      0.19581  C =      0.10203 [cm^-1]
  Rotational constants: A =   6381.17456  B =   5870.12163  C =   3058.84713 [MHz]
  Nuclear repulsion =  207.816738461148361

  Charge       = 0
  Multiplicity = 1
  Electrons    = 42
  Nalpha       = 21
  Nbeta        = 21

  ==> Algorithm <==

  SCF Algorithm Type is DF.
  DIIS enabled.
  MOM disabled.
  Fractional occupation disabled.
  Guess Type is SAD.
  Energy threshold   = 1.00e-10
  Density threshold  = 1.00e-10
  Integral threshold = 0.00e+00

  ==> Primary Basis <==

  Basis Set: AUG-CC-PVTZ
    Blend: AUG-CC-PVTZ
    Number of shells: 120
    Number of basis function: 368
    Number of Cartesian functions: 430
    Spherical Harmonics?: true
    Max angular momentum: 3

   => Loading Basis Set <=

    Name: (AUG-CC-PVTZ AUX)
    Role: JKFIT
    Keyword: DF_BASIS_SCF
    atoms 1-2, 4-5 entry C          line   162 file /home/xy3866/psi4conda/share/psi4/basis/aug-cc-pvtz-jkfit.gbs 
    atoms 3, 6     entry N          line   224 file /home/xy3866/psi4conda/share/psi4/basis/aug-cc-pvtz-jkfit.gbs 
    atoms 7-10     entry H          line    70 file /home/xy3866/psi4conda/share/psi4/basis/aug-cc-pvtz-jkfit.gbs 

  ==> Pre-Iterations <==

   -------------------------------------------------------
    Irrep   Nso     Nmo     Nalpha   Nbeta   Ndocc  Nsocc
   -------------------------------------------------------
     A        368     368       0       0       0       0
   -------------------------------------------------------
    Total     368     368      21      21      21       0
   -------------------------------------------------------

  ==> Integral Setup <==

  DFHelper Memory: AOs need 0.850 GiB; user supplied 22.352 GiB. Using in-core AOs.

  ==> MemDFJK: Density-Fitted J/K Matrices <==

    J tasked:                   Yes
    K tasked:                   Yes
    wK tasked:                   No
    OpenMP threads:               8
    Memory [MiB]:             22888
    Algorithm:                 Core
    Schwarz Cutoff:           1E-12
    Mask sparsity (%):       0.6557
    Fitting Condition:        1E-10

   => Auxiliary Basis Set <=

  Basis Set: (AUG-CC-PVTZ AUX)
    Blend: AUG-CC-PVTZ-JKFIT
    Number of shells: 236
    Number of basis function: 808
    Number of Cartesian functions: 1006
    Spherical Harmonics?: true
    Max angular momentum: 4

  Minimum eigenvalue in the overlap matrix is 4.5101632178E-06.
  Using Symmetric Orthogonalization.

  SCF Guess: Superposition of Atomic Densities via on-the-fly atomic UHF.

  ==> Iterations <==

                           Total Energy        Delta E     RMS |[F,P]|

   @DF-RHF iter SAD:  -262.04670495763060   -2.62047e+02   0.00000e+00 
   @DF-RHF iter   1:  -262.65751599308385   -6.10811e-01   1.14018e-03 DIIS
   @DF-RHF iter   2:  -262.74988232116692   -9.23663e-02   4.95377e-04 DIIS
   @DF-RHF iter   3:  -262.76445641530768   -1.45741e-02   1.32870e-04 DIIS
   @DF-RHF iter   4:  -262.76589279820564   -1.43638e-03   4.00849e-05 DIIS
   @DF-RHF iter   5:  -262.76600484691414   -1.12049e-04   8.67387e-06 DIIS
   @DF-RHF iter   6:  -262.76601387336115   -9.02645e-06   2.80596e-06 DIIS
   @DF-RHF iter   7:  -262.76601533294576   -1.45958e-06   8.76299e-07 DIIS
   @DF-RHF iter   8:  -262.76601549995280   -1.67007e-07   2.24179e-07 DIIS
   @DF-RHF iter   9:  -262.76601551009742   -1.01446e-08   1.24590e-07 DIIS
   @DF-RHF iter  10:  -262.76601551257897   -2.48156e-09   4.32725e-08 DIIS
   @DF-RHF iter  11:  -262.76601551333744   -7.58462e-10   2.03102e-08 DIIS
   @DF-RHF iter  12:  -262.76601551347699   -1.39551e-10   1.01086e-08 DIIS
   @DF-RHF iter  13:  -262.76601551350092   -2.39311e-11   2.50214e-09 DIIS
   @DF-RHF iter  14:  -262.76601551350240   -1.47793e-12   7.21609e-10 DIIS
   @DF-RHF iter  15:  -262.76601551350359   -1.19371e-12   3.88792e-10 DIIS
   @DF-RHF iter  16:  -262.76601551350342    1.70530e-13   1.74280e-10 DIIS
   @DF-RHF iter  17:  -262.76601551350274    6.82121e-13   6.15548e-11 DIIS
  Energy and wave function converged.


  ==> Post-Iterations <==

    Orbital Energies [Eh]
    ---------------------

    Doubly Occupied:                                                      

       1A    -15.598845     2A    -15.598747     3A    -11.290143  
       4A    -11.289152     5A    -11.288350     6A    -11.287934  
       7A     -1.304238     8A     -1.217401     9A     -1.052779  
      10A     -0.903206    11A     -0.886342    12A     -0.724974  
      13A     -0.702905    14A     -0.676025    15A     -0.609760  
      16A     -0.573675    17A     -0.548149    18A     -0.502398  
      19A     -0.435377    20A     -0.416376    21A     -0.359732  

    Virtual:                                                              

      22A      0.028478    23A      0.034234    24A      0.039210  
      25A      0.048343    26A      0.059701    27A      0.085808  
      28A      0.090317    29A      0.094754    30A      0.095635  
      31A      0.102906    32A      0.104873    33A      0.106991  
      34A      0.110455    35A      0.129085    36A      0.130651  
      37A      0.131041    38A      0.134511    39A      0.147953  
      40A      0.152341    41A      0.176189    42A      0.180419  
      43A      0.195651    44A      0.216414    45A      0.228628  
      46A      0.235976    47A      0.238027    48A      0.238845  
      49A      0.247651    50A      0.257725    51A      0.270392  
      52A      0.272844    53A      0.277571    54A      0.294482  
      55A      0.303634    56A      0.306854    57A      0.312221  
      58A      0.333535    59A      0.348121    60A      0.357510  
      61A      0.368941    62A      0.373164    63A      0.378014  
      64A      0.382390    65A      0.386561    66A      0.411494  
      67A      0.417602    68A      0.419897    69A      0.424015  
      70A      0.436475    71A      0.443903    72A      0.446733  
      73A      0.452493    74A      0.460176    75A      0.469014  
      76A      0.477005    77A      0.488616    78A      0.500980  
      79A      0.506356    80A      0.509980    81A      0.513952  
      82A      0.526379    83A      0.534515    84A      0.542721  
      85A      0.566960    86A      0.587491    87A      0.600365  
      88A      0.602903    89A      0.609242    90A      0.620867  
      91A      0.639769    92A      0.659474    93A      0.664730  
      94A      0.671613    95A      0.674010    96A      0.680699  
      97A      0.701626    98A      0.717846    99A      0.731702  
     100A      0.738548   101A      0.748481   102A      0.754621  
     103A      0.762760   104A      0.778300   105A      0.784244  
     106A      0.813554   107A      0.820011   108A      0.825930  
     109A      0.843825   110A      0.853170   111A      0.871028  
     112A      0.874608   113A      0.882055   114A      0.897403  
     115A      0.902607   116A      0.926655   117A      0.926750  
     118A      0.939297   119A      0.949302   120A      0.963173  
     121A      0.966835   122A      0.973915   123A      0.981219  
     124A      0.991767   125A      0.993503   126A      0.998527  
     127A      1.008444   128A      1.019127   129A      1.030541  
     130A      1.036386   131A      1.049821   132A      1.053222  
     133A      1.071362   134A      1.081787   135A      1.092754  
     136A      1.114314   137A      1.126471   138A      1.133722  
     139A      1.141711   140A      1.154882   141A      1.159469  
     142A      1.164743   143A      1.167578   144A      1.179394  
     145A      1.187292   146A      1.197849   147A      1.230109  
     148A      1.243120   149A      1.246869   150A      1.250832  
     151A      1.282662   152A      1.286284   153A      1.294154  
     154A      1.308428   155A      1.325636   156A      1.382119  
     157A      1.405845   158A      1.438477   159A      1.445818  
     160A      1.456298   161A      1.474374   162A      1.499173  
     163A      1.503011   164A      1.531981   165A      1.540056  
     166A      1.544186   167A      1.577912   168A      1.594802  
     169A      1.599436   170A      1.617470   171A      1.618959  
     172A      1.652482   173A      1.656136   174A      1.674417  
     175A      1.691348   176A      1.700910   177A      1.708982  
     178A      1.721217   179A      1.744317   180A      1.778167  
     181A      1.802377   182A      1.838748   183A      1.850171  
     184A      1.863367   185A      1.871596   186A      1.879428  
     187A      1.899830   188A      1.907277   189A      1.911966  
     190A      1.948663   191A      1.957435   192A      1.964035  
     193A      1.979028   194A      1.989182   195A      2.037030  
     196A      2.041434   197A      2.070718   198A      2.092723  
     199A      2.098710   200A      2.110316   201A      2.117652  
     202A      2.120983   203A      2.152987   204A      2.156675  
     205A      2.169185   206A      2.189348   207A      2.223906  
     208A      2.241077   209A      2.251692   210A      2.266145  
     211A      2.269197   212A      2.302671   213A      2.384718  
     214A      2.408157   215A      2.444744   216A      2.455556  
     217A      2.499853   218A      2.516330   219A      2.520871  
     220A      2.547392   221A      2.557371   222A      2.577584  
     223A      2.632485   224A      2.687382   225A      2.703911  
     226A      2.715618   227A      2.720816   228A      2.753232  
     229A      2.826665   230A      2.870070   231A      2.945023  
     232A      2.954654   233A      2.999236   234A      3.035680  
     235A      3.053874   236A      3.094154   237A      3.178734  
     238A      3.209797   239A      3.224577   240A      3.251117  
     241A      3.254383   242A      3.280884   243A      3.320270  
     244A      3.331918   245A      3.344129   246A      3.409350  
     247A      3.414096   248A      3.439170   249A      3.440943  
     250A      3.454654   251A      3.463259   252A      3.496569  
     253A      3.516782   254A      3.543942   255A      3.570645  
     256A      3.589784   257A      3.614121   258A      3.629440  
     259A      3.662303   260A      3.683423   261A      3.688362  
     262A      3.698634   263A      3.757994   264A      3.787774  
     265A      3.811229   266A      3.836097   267A      3.846312  
     268A      3.864223   269A      3.881746   270A      3.888312  
     271A      3.912193   272A      3.943067   273A      3.967938  
     274A      3.990736   275A      4.014373   276A      4.030611  
     277A      4.052251   278A      4.057911   279A      4.077848  
     280A      4.082520   281A      4.096824   282A      4.106055  
     283A      4.135023   284A      4.165578   285A      4.185362  
     286A      4.219494   287A      4.240027   288A      4.254232  
     289A      4.284555   290A      4.297016   291A      4.337279  
     292A      4.365929   293A      4.371664   294A      4.425453  
     295A      4.473218   296A      4.500723   297A      4.517606  
     298A      4.545881   299A      4.606380   300A      4.660345  
     301A      4.710573   302A      4.729589   303A      4.761128  
     304A      4.779575   305A      4.803192   306A      4.819286  
     307A      4.821796   308A      4.839694   309A      4.865200  
     310A      4.894322   311A      4.901235   312A      4.954500  
     313A      5.010055   314A      5.056646   315A      5.074506  
     316A      5.087143   317A      5.114944   318A      5.120948  
     319A      5.137770   320A      5.157350   321A      5.239640  
     322A      5.256909   323A      5.286960   324A      5.298047  
     325A      5.397461   326A      5.402356   327A      5.464838  
     328A      5.497802   329A      5.525044   330A      5.539148  
     331A      5.544419   332A      5.602020   333A      5.623112  
     334A      5.627000   335A      5.661647   336A      5.738894  
     337A      5.759686   338A      5.767392   339A      5.806869  
     340A      5.833748   341A      5.870985   342A      5.884793  
     343A      5.891335   344A      5.911374   345A      5.944121  
     346A      5.982548   347A      6.067264   348A      6.125527  
     349A      6.253404   350A      6.380939   351A      6.492459  
     352A      6.513226   353A      6.533829   354A      6.550271  
     355A      6.703862   356A      6.722252   357A      6.818798  
     358A      6.853733   359A      6.891458   360A      6.995336  
     361A      7.110455   362A      7.499096   363A     14.635859  
     364A     16.613052   365A     17.255157   366A     17.659331  
     367A     18.062384   368A     18.135051  

    Final Occupation by Irrep:
              A 
    DOCC [    21 ]

  @DF-RHF Final Energy:  -262.76601551350274

   => Energetics <=

    Nuclear Repulsion Energy =            207.8167384611483612
    One-Electron Energy =                -766.6324905689855314
    Two-Electron Energy =                 296.0497365943344334
    Total Energy =                       -262.7660155135027367

Computation Completed

*** tstop() called on node59.bme.utexas.edu at Sun Nov  8 19:26:14 2020
Module time:
	user time   =      42.96 seconds =       0.72 minutes
	system time =       1.72 seconds =       0.03 minutes
	total time  =          7 seconds =       0.12 minutes
Total time:
	user time   =      42.96 seconds =       0.72 minutes
	system time =       1.72 seconds =       0.03 minutes
	total time  =          7 seconds =       0.12 minutes
   => Loading Basis Set <=

    Name: (AUG-CC-PVTZ AUX)
    Role: RIFIT
    Keyword: DF_BASIS_MP2
    atoms 1-2, 4-5 entry C          line   148 file /home/xy3866/psi4conda/share/psi4/basis/aug-cc-pvtz-ri.gbs 
    atoms 3, 6     entry N          line   206 file /home/xy3866/psi4conda/share/psi4/basis/aug-cc-pvtz-ri.gbs 
    atoms 7-10     entry H          line    30 file /home/xy3866/psi4conda/share/psi4/basis/aug-cc-pvtz-ri.gbs 


*** tstart() called on node59.bme.utexas.edu
*** at Sun Nov  8 19:26:14 2020


  //>>>>>>>>>>>>>>>>>>>>>>>>>>>>>>>>>>>//
  //               DFMP2               //
  //<<<<<<<<<<<<<<<<<<<<<<<<<<<<<<<<<<<//

	 --------------------------------------------------------
	                          DF-MP2                         
	      2nd-Order Density-Fitted Moller-Plesset Theory     
	              RMP2 Wavefunction,   8 Threads             
	                                                         
	        Rob Parrish, Justin Turney, Andy Simmonett,      
	           Ed Hohenstein, and C. David Sherrill          
	 --------------------------------------------------------

   => Auxiliary Basis Set <=

  Basis Set: (AUG-CC-PVTZ AUX)
    Blend: AUG-CC-PVTZ-RI
    Number of shells: 224
    Number of basis function: 820
    Number of Cartesian functions: 1036
    Spherical Harmonics?: true
    Max angular momentum: 4

	 --------------------------------------------------------
	                 NBF =   368, NAUX =   820
	 --------------------------------------------------------
	   CLASS    FOCC     OCC    AOCC    AVIR     VIR    FVIR
	   PAIRS       0      21      21     347     347       0
	 --------------------------------------------------------

  DFHelper Memory: AOs need 0.850 GiB; user supplied 22.352 GiB. Using in-core AOs.


         ------------------------------------------------------------
                                     CPHF                           
                                  Rob Parrish                       
         ------------------------------------------------------------

  ==> Geometry <==

    Molecular point group: c1
    Full point group: C1

    Geometry (in Angstrom), charge = 0, multiplicity = 1:

       Center              X                  Y                   Z               Mass       
    ------------   -----------------  -----------------  -----------------  -----------------
         C            0.002432383449    -0.698099956102     1.135692084568    12.000000000000
         C            0.002432383449     0.698097043898     1.135681084568    12.000000000000
         N            0.002425383449     1.417608043898    -0.000000915432    14.003074004430
         C            0.002432383449     0.698097043898    -1.135682915432    12.000000000000
         C            0.002432383449    -0.698099956102    -1.135693915432    12.000000000000
         N            0.002687383449    -1.417599956102    -0.000000915432    14.003074004430
         H           -0.196610616551    -1.258320156102     2.068632784568     1.007825032230
         H            0.003167383449     1.258267043898     2.068553084568     1.007825032230
         H            0.003167383449     1.258267043898    -2.068554915432     1.007825032230
         H            0.003389383449    -1.258256956102    -2.068561915432     1.007825032230

  Nuclear repulsion =  207.816738461148361
  Reference energy  = -262.766015513502737

  ==> Basis Set <==

  Basis Set: AUG-CC-PVTZ
    Blend: AUG-CC-PVTZ
    Number of shells: 120
    Number of basis function: 368
    Number of Cartesian functions: 430
    Spherical Harmonics?: true
    Max angular momentum: 3

  ==> CGRSolver (by Rob Parrish) <==

   Number of roots    =         1
   Preconditioning    =    JACOBI
   Convergence cutoff =     1E-06
   Maximum iterations =       100

  ==> CPHFRHamiltonian (by Rob Parrish) <== 

  ==> MemDFJK: Density-Fitted J/K Matrices <==

    J tasked:                   Yes
    K tasked:                   Yes
    wK tasked:                   No
    OpenMP threads:               8
    Memory [MiB]:             22888
    Algorithm:                 Core
    Schwarz Cutoff:           1E-12
    Mask sparsity (%):       0.6557
    Fitting Condition:        1E-10

   => Auxiliary Basis Set <=

  Basis Set: (AUG-CC-PVTZ AUX)
    Blend: AUG-CC-PVTZ-JKFIT
    Number of shells: 236
    Number of basis function: 808
    Number of Cartesian functions: 1006
    Spherical Harmonics?: true
    Max angular momentum: 4

  ==> CPHF Iterations <==

  => Iterations <=

             Iter  Converged  Remaining    Residual
  CGR           1          0          1   7.759E-02
  CGR           2          0          1   1.778E-02
  CGR           3          0          1   7.382E-03
  CGR           4          0          1   2.334E-03
  CGR           5          0          1   8.302E-04
  CGR           6          0          1   2.178E-04
  CGR           7          0          1   8.148E-05
  CGR           8          0          1   5.205E-05
  CGR           9          0          1   1.626E-05
  CGR          10          0          1   5.801E-06
  CGR          11          0          1   1.543E-06
  CGR          12          1          0   8.334E-07

    CGRSolver converged.

	-----------------------------------------------------------
	 ==================> DF-MP2 Energies <==================== 
	-----------------------------------------------------------
	 Reference Energy          =    -262.7660155135027367 [Eh]
	 Singles Energy            =      -0.0000000000000000 [Eh]
	 Same-Spin Energy          =      -0.2834777280046371 [Eh]
	 Opposite-Spin Energy      =      -0.8604711803772876 [Eh]
	 Correlation Energy        =      -1.1439489083819248 [Eh]
	 Total Energy              =    -263.9099644218846379 [Eh]
	-----------------------------------------------------------
	 ================> DF-SCS-MP2 Energies <================== 
	-----------------------------------------------------------
	 SCS Same-Spin Scale       =       0.3333333333333333 [-]
	 SCS Opposite-Spin Scale   =       1.2000000000000000 [-]
	 SCS Same-Spin Energy      =      -0.0944925760015457 [Eh]
	 SCS Opposite-Spin Energy  =      -1.0325654164527451 [Eh]
	 SCS Correlation Energy    =      -1.1270579924542907 [Eh]
	 SCS Total Energy          =    -263.8930735059570338 [Eh]
	-----------------------------------------------------------



Properties will be evaluated at   0.000000,   0.000000,  -0.000000 [a0]

Properties computed using the MP2 density matrix

  Nuclear Dipole Moment: [e a0]
     X:    -0.1752      Y:    -0.0000      Z:     0.0001

  Electronic Dipole Moment: [e a0]
     X:     0.1370      Y:     0.0051      Z:    -0.0107

  Dipole Moment: [e a0]
     X:    -0.0382      Y:     0.0050      Z:    -0.0106     Total:     0.0400

  Dipole Moment: [D]
     X:    -0.0972      Y:     0.0128      Z:    -0.0270     Total:     0.1017


*** tstop() called on node59.bme.utexas.edu at Sun Nov  8 19:26:32 2020
Module time:
	user time   =     123.61 seconds =       2.06 minutes
	system time =       3.71 seconds =       0.06 minutes
	total time  =         18 seconds =       0.30 minutes
Total time:
	user time   =     167.40 seconds =       2.79 minutes
	system time =       5.48 seconds =       0.09 minutes
	total time  =         25 seconds =       0.42 minutes

    Psi4 stopped on: Sunday, 08 November 2020 07:26PM
    Psi4 wall time for execution: 0:00:25.36

*** Psi4 exiting successfully. Buy a developer a beer!
