opt=Tight                                                               
Freq      RMP2-FC                                                     6-31G(d)            
Number of atoms                            I                9
Info1-9                                    I   N=           9
          18          18        1002           0           0         100
           6           2           1
Charge                                     I               -2
Multiplicity                               I                1
Number of electrons                        I               54
Number of alpha electrons                  I               27
Number of beta electrons                   I               27
Number of basis functions                  I              109
Number of independent functions            I              109
Number of point charges in /Mol/           I                0
Number of translation vectors              I                0
Atomic numbers                             I   N=           9
           8           8           8           8           6           6
           6           1           1
Nuclear charges                            R   N=           9
  8.00000000E+00  8.00000000E+00  8.00000000E+00  8.00000000E+00  6.00000000E+00
  6.00000000E+00  6.00000000E+00  1.00000000E+00  1.00000000E+00
Current cartesian coordinates              R   N=          27
 -3.85087200E+00 -1.63975136E+00  4.39656131E-03  2.58030829E+00 -2.29907521E+00
 -1.11680639E+00 -2.58029154E+00  2.29911850E+00 -1.11665631E+00  3.85082688E+00
  1.63978721E+00  4.34463850E-03  2.28247592E-05 -6.41789152E-05  1.78643550E+00
 -2.36194256E+00  2.36127256E-01  9.30765035E-02  2.36194626E+00 -2.36130824E-01
  9.30059915E-02 -1.72006210E-01 -1.68100238E+00  2.98126464E+00  1.72073992E-01
  1.68077582E+00  2.98139944E+00
Force Field                                I                0
Int Atom Types                             I   N=           9
           0           0           0           0           0           0
           0           0           0
MM charges                                 R   N=           9
  0.00000000E+00  0.00000000E+00  0.00000000E+00  0.00000000E+00  0.00000000E+00
  0.00000000E+00  0.00000000E+00  0.00000000E+00  0.00000000E+00
Integer atomic weights                     I   N=           9
          16          16          16          16          12          12
          12           1           1
Real atomic weights                        R   N=           9
  1.59949146E+01  1.59949146E+01  1.59949146E+01  1.59949146E+01  1.20000000E+01
  1.20000000E+01  1.20000000E+01  1.00782504E+00  1.00782504E+00
Atom fragment info                         I   N=           9
           0           0           0           0           0           0
           0           0           0
Atom residue num                           I   N=           9
           0           0           0           0           0           0
           0           0           0
Nuclear spins                              I   N=           9
           0           0           0           0           0           0
           0           1           1
Nuclear ZEff                               R   N=           9
 -5.60000000E+00 -5.60000000E+00 -5.60000000E+00 -5.60000000E+00 -3.60000000E+00
 -3.60000000E+00 -3.60000000E+00 -1.00000000E+00 -1.00000000E+00
Nuclear QMom                               R   N=           9
  0.00000000E+00  0.00000000E+00  0.00000000E+00  0.00000000E+00  0.00000000E+00
  0.00000000E+00  0.00000000E+00  0.00000000E+00  0.00000000E+00
Nuclear GFac                               R   N=           9
  0.00000000E+00  0.00000000E+00  0.00000000E+00  0.00000000E+00  0.00000000E+00
  0.00000000E+00  0.00000000E+00  2.79284600E+00  2.79284600E+00
MicOpt                                     I   N=           9
          -1          -1          -1          -1          -1          -1
          -1          -1          -1
Number of contracted shells                I               32
Number of primitive shells                 I               85
Pure/Cartesian d shells                    I                1
Pure/Cartesian f shells                    I                0
Highest angular momentum                   I                2
Largest degree of contraction              I                6
Shell types                                I   N=          32
           0          -1          -1           2           0          -1
          -1           2           0          -1          -1           2
           0          -1          -1           2           0          -1
          -1           2           0          -1          -1           2
           0          -1          -1           2           0           0
           0           0
Number of primitives per shell             I   N=          32
           6           3           1           1           6           3
           1           1           6           3           1           1
           6           3           1           1           6           3
           1           1           6           3           1           1
           6           3           1           1           3           1
           3           1
Shell to atom map                          I   N=          32
           1           1           1           1           2           2
           2           2           3           3           3           3
           4           4           4           4           5           5
           5           5           6           6           6           6
           7           7           7           7           8           8
           9           9
Primitive exponents                        R   N=          85
  5.48467166E+03  8.25234946E+02  1.88046958E+02  5.29645000E+01  1.68975704E+01
  5.79963534E+00  1.55396162E+01  3.59993359E+00  1.01376175E+00  2.70005823E-01
  8.00000000E-01  5.48467166E+03  8.25234946E+02  1.88046958E+02  5.29645000E+01
  1.68975704E+01  5.79963534E+00  1.55396162E+01  3.59993359E+00  1.01376175E+00
  2.70005823E-01  8.00000000E-01  5.48467166E+03  8.25234946E+02  1.88046958E+02
  5.29645000E+01  1.68975704E+01  5.79963534E+00  1.55396162E+01  3.59993359E+00
  1.01376175E+00  2.70005823E-01  8.00000000E-01  5.48467166E+03  8.25234946E+02
  1.88046958E+02  5.29645000E+01  1.68975704E+01  5.79963534E+00  1.55396162E+01
  3.59993359E+00  1.01376175E+00  2.70005823E-01  8.00000000E-01  3.04752488E+03
  4.57369518E+02  1.03948685E+02  2.92101553E+01  9.28666296E+00  3.16392696E+00
  7.86827235E+00  1.88128854E+00  5.44249258E-01  1.68714478E-01  8.00000000E-01
  3.04752488E+03  4.57369518E+02  1.03948685E+02  2.92101553E+01  9.28666296E+00
  3.16392696E+00  7.86827235E+00  1.88128854E+00  5.44249258E-01  1.68714478E-01
  8.00000000E-01  3.04752488E+03  4.57369518E+02  1.03948685E+02  2.92101553E+01
  9.28666296E+00  3.16392696E+00  7.86827235E+00  1.88128854E+00  5.44249258E-01
  1.68714478E-01  8.00000000E-01  1.87311370E+01  2.82539436E+00  6.40121692E-01
  1.61277759E-01  1.87311370E+01  2.82539436E+00  6.40121692E-01  1.61277759E-01
Contraction coefficients                   R   N=          85
  1.83107443E-03  1.39501722E-02  6.84450781E-02  2.32714336E-01  4.70192898E-01
  3.58520853E-01 -1.10777550E-01 -1.48026263E-01  1.13076702E+00  1.00000000E+00
  1.00000000E+00  1.83107443E-03  1.39501722E-02  6.84450781E-02  2.32714336E-01
  4.70192898E-01  3.58520853E-01 -1.10777550E-01 -1.48026263E-01  1.13076702E+00
  1.00000000E+00  1.00000000E+00  1.83107443E-03  1.39501722E-02  6.84450781E-02
  2.32714336E-01  4.70192898E-01  3.58520853E-01 -1.10777550E-01 -1.48026263E-01
  1.13076702E+00  1.00000000E+00  1.00000000E+00  1.83107443E-03  1.39501722E-02
  6.84450781E-02  2.32714336E-01  4.70192898E-01  3.58520853E-01 -1.10777550E-01
 -1.48026263E-01  1.13076702E+00  1.00000000E+00  1.00000000E+00  1.83473713E-03
  1.40373228E-02  6.88426223E-02  2.32184443E-01  4.67941348E-01  3.62311985E-01
 -1.19332420E-01 -1.60854152E-01  1.14345644E+00  1.00000000E+00  1.00000000E+00
  1.83473713E-03  1.40373228E-02  6.88426223E-02  2.32184443E-01  4.67941348E-01
  3.62311985E-01 -1.19332420E-01 -1.60854152E-01  1.14345644E+00  1.00000000E+00
  1.00000000E+00  1.83473713E-03  1.40373228E-02  6.88426223E-02  2.32184443E-01
  4.67941348E-01  3.62311985E-01 -1.19332420E-01 -1.60854152E-01  1.14345644E+00
  1.00000000E+00  1.00000000E+00  3.34946043E-02  2.34726953E-01  8.13757326E-01
  1.00000000E+00  3.34946043E-02  2.34726953E-01  8.13757326E-01  1.00000000E+00
P(S=P) Contraction coefficients            R   N=          85
  0.00000000E+00  0.00000000E+00  0.00000000E+00  0.00000000E+00  0.00000000E+00
  0.00000000E+00  7.08742682E-02  3.39752839E-01  7.27158577E-01  1.00000000E+00
  0.00000000E+00  0.00000000E+00  0.00000000E+00  0.00000000E+00  0.00000000E+00
  0.00000000E+00  0.00000000E+00  7.08742682E-02  3.39752839E-01  7.27158577E-01
  1.00000000E+00  0.00000000E+00  0.00000000E+00  0.00000000E+00  0.00000000E+00
  0.00000000E+00  0.00000000E+00  0.00000000E+00  7.08742682E-02  3.39752839E-01
  7.27158577E-01  1.00000000E+00  0.00000000E+00  0.00000000E+00  0.00000000E+00
  0.00000000E+00  0.00000000E+00  0.00000000E+00  0.00000000E+00  7.08742682E-02
  3.39752839E-01  7.27158577E-01  1.00000000E+00  0.00000000E+00  0.00000000E+00
  0.00000000E+00  0.00000000E+00  0.00000000E+00  0.00000000E+00  0.00000000E+00
  6.89990666E-02  3.16423961E-01  7.44308291E-01  1.00000000E+00  0.00000000E+00
  0.00000000E+00  0.00000000E+00  0.00000000E+00  0.00000000E+00  0.00000000E+00
  0.00000000E+00  6.89990666E-02  3.16423961E-01  7.44308291E-01  1.00000000E+00
  0.00000000E+00  0.00000000E+00  0.00000000E+00  0.00000000E+00  0.00000000E+00
  0.00000000E+00  0.00000000E+00  6.89990666E-02  3.16423961E-01  7.44308291E-01
  1.00000000E+00  0.00000000E+00  0.00000000E+00  0.00000000E+00  0.00000000E+00
  0.00000000E+00  0.00000000E+00  0.00000000E+00  0.00000000E+00  0.00000000E+00
Coordinates of each shell                  R   N=          96
 -3.85087200E+00 -1.63975136E+00  4.39656131E-03 -3.85087200E+00 -1.63975136E+00
  4.39656131E-03 -3.85087200E+00 -1.63975136E+00  4.39656131E-03 -3.85087200E+00
 -1.63975136E+00  4.39656131E-03  2.58030829E+00 -2.29907521E+00 -1.11680639E+00
  2.58030829E+00 -2.29907521E+00 -1.11680639E+00  2.58030829E+00 -2.29907521E+00
 -1.11680639E+00  2.58030829E+00 -2.29907521E+00 -1.11680639E+00 -2.58029154E+00
  2.29911850E+00 -1.11665631E+00 -2.58029154E+00  2.29911850E+00 -1.11665631E+00
 -2.58029154E+00  2.29911850E+00 -1.11665631E+00 -2.58029154E+00  2.29911850E+00
 -1.11665631E+00  3.85082688E+00  1.63978721E+00  4.34463850E-03  3.85082688E+00
  1.63978721E+00  4.34463850E-03  3.85082688E+00  1.63978721E+00  4.34463850E-03
  3.85082688E+00  1.63978721E+00  4.34463850E-03  2.28247592E-05 -6.41789152E-05
  1.78643550E+00  2.28247592E-05 -6.41789152E-05  1.78643550E+00  2.28247592E-05
 -6.41789152E-05  1.78643550E+00  2.28247592E-05 -6.41789152E-05  1.78643550E+00
 -2.36194256E+00  2.36127256E-01  9.30765035E-02 -2.36194256E+00  2.36127256E-01
  9.30765035E-02 -2.36194256E+00  2.36127256E-01  9.30765035E-02 -2.36194256E+00
  2.36127256E-01  9.30765035E-02  2.36194626E+00 -2.36130824E-01  9.30059915E-02
  2.36194626E+00 -2.36130824E-01  9.30059915E-02  2.36194626E+00 -2.36130824E-01
  9.30059915E-02  2.36194626E+00 -2.36130824E-01  9.30059915E-02 -1.72006210E-01
 -1.68100238E+00  2.98126464E+00 -1.72006210E-01 -1.68100238E+00  2.98126464E+00
  1.72073992E-01  1.68077582E+00  2.98139944E+00  1.72073992E-01  1.68077582E+00
  2.98139944E+00
Constraint Structure                       R   N=          27
 -3.85087200E+00 -1.63975136E+00  4.39656131E-03  2.58030829E+00 -2.29907521E+00
 -1.11680639E+00 -2.58029154E+00  2.29911850E+00 -1.11665631E+00  3.85082688E+00
  1.63978721E+00  4.34463850E-03  2.28247592E-05 -6.41789152E-05  1.78643550E+00
 -2.36194256E+00  2.36127256E-01  9.30765035E-02  2.36194626E+00 -2.36130824E-01
  9.30059915E-02 -1.72006210E-01 -1.68100238E+00  2.98126464E+00  1.72073992E-01
  1.68077582E+00  2.98139944E+00
Num ILSW                                   I              100
ILSW                                       I   N=         100
           0           1           0           0           2           0
           0           0           0           0           0          -1
           0           0           0           0           0           0
           0           0           0           0           1           0
           1           0           0           0           0           0
           0           0      100000           0          -1           0
           0           0           0           0           0           0
           0           0           0           1           1           0
           0           0           1           0           0           0
           0           0           4          40           0           0
           0           0           0           0           0           0
           0           0           0           0           0           0
           0           0           0           0           0           0
           0           0           0           0           0           0
           0           0           0           0           0           0
           0           0           0           0           0           0
           0           0           0           0
Num RLSW                                   I               40
RLSW                                       R   N=          40
  1.00000000E+00  1.00000000E+00  1.00000000E+00  1.00000000E+00  1.00000000E+00
  0.00000000E+00  0.00000000E+00  1.00000000E+00  0.00000000E+00  0.00000000E+00
  0.00000000E+00  0.00000000E+00  1.00000000E+00  0.00000000E+00  0.00000000E+00
  0.00000000E+00  0.00000000E+00  1.00000000E+00  0.00000000E+00  0.00000000E+00
  0.00000000E+00  0.00000000E+00  1.00000000E+00  0.00000000E+00  0.00000000E+00
  0.00000000E+00  0.00000000E+00  1.00000000E+00  0.00000000E+00  0.00000000E+00
  0.00000000E+00  0.00000000E+00  0.00000000E+00  0.00000000E+00  0.00000000E+00
  0.00000000E+00  0.00000000E+00  0.00000000E+00  1.00000000E+00  1.00000000E+00
MxBond                                     I                4
NBond                                      I   N=           9
           1           1           1           1           4           3
           3           1           1
IBond                                      I   N=          36
           6           0           0           0           7           0
           0           0           6           0           0           0
           7           0           0           0           6           7
           8           9           1           3           5           0
           2           4           5           0           5           0
           0           0           5           0           0           0
RBond                                      R   N=          36
  2.00000000E+00  0.00000000E+00  0.00000000E+00  0.00000000E+00  2.00000000E+00
  0.00000000E+00  0.00000000E+00  0.00000000E+00  2.00000000E+00  0.00000000E+00
  0.00000000E+00  0.00000000E+00  2.00000000E+00  0.00000000E+00  0.00000000E+00
  0.00000000E+00  1.00000000E+00  1.00000000E+00  1.00000000E+00  1.00000000E+00
  2.00000000E+00  2.00000000E+00  1.00000000E+00  0.00000000E+00  2.00000000E+00
  2.00000000E+00  1.00000000E+00  0.00000000E+00  1.00000000E+00  0.00000000E+00
  0.00000000E+00  0.00000000E+00  1.00000000E+00  0.00000000E+00  0.00000000E+00
  0.00000000E+00
Virial Ratio                               R      2.003019541666502E+00
SCF Energy                                 R     -4.144625195742401E+02
MP2 Energy                                 R     -4.155559355690820E+02
Total Energy                               R     -4.155559355690820E+02
Post-SCF wavefunction norm                 R      1.627896698816248E+00
RMS Force                                  R      1.624285088897337E-05
RMS Density                                R      1.252765695863198E-09
External E-field                           R   N=          35
  0.00000000E+00  0.00000000E+00  0.00000000E+00  0.00000000E+00  0.00000000E+00
  0.00000000E+00  0.00000000E+00  0.00000000E+00  0.00000000E+00  0.00000000E+00
  0.00000000E+00  0.00000000E+00  0.00000000E+00  0.00000000E+00  0.00000000E+00
  0.00000000E+00  0.00000000E+00  0.00000000E+00  0.00000000E+00  0.00000000E+00
  0.00000000E+00  0.00000000E+00  0.00000000E+00  0.00000000E+00  0.00000000E+00
  0.00000000E+00  0.00000000E+00  0.00000000E+00  0.00000000E+00  0.00000000E+00
  0.00000000E+00  0.00000000E+00  0.00000000E+00  0.00000000E+00  0.00000000E+00
IOpCl                                      I                0
IROHF                                      I                0
Alpha Orbital Energies                     R   N=         109
 -2.04563001E+01 -2.04562997E+01 -2.04545045E+01 -2.04545038E+01 -1.13011783E+01
 -1.13011659E+01 -1.11837845E+01 -1.32501718E+00 -1.31431985E+00 -1.21889006E+00
 -1.21656880E+00 -9.53118987E-01 -6.98846197E-01 -6.54397475E-01 -5.84793403E-01
 -5.82357075E-01 -5.81702854E-01 -5.48299712E-01 -5.09493104E-01 -5.00433595E-01
 -4.79845753E-01 -3.77001732E-01 -3.66180322E-01 -3.63981756E-01 -3.54423919E-01
 -3.51396321E-01 -3.42154549E-01  2.44398545E-01  2.89524335E-01  3.24221293E-01
  3.50202524E-01  4.39802708E-01  4.95063366E-01  5.30592532E-01  5.63492162E-01
  5.96440567E-01  6.09316430E-01  8.26578697E-01  8.55522040E-01  8.80489156E-01
  9.04280051E-01  9.05864439E-01  9.47108752E-01  9.73166406E-01  9.88825772E-01
  9.88864818E-01  1.05715538E+00  1.15194571E+00  1.15310331E+00  1.17099793E+00
  1.17409455E+00  1.21811813E+00  1.24632177E+00  1.31452969E+00  1.32967427E+00
  1.35363231E+00  1.38936687E+00  1.40913438E+00  1.41074185E+00  1.41920410E+00
  1.43458515E+00  1.48042578E+00  1.56450534E+00  1.67907823E+00  1.72651442E+00
  1.77185064E+00  1.78090928E+00  1.91945229E+00  1.94437219E+00  1.97940232E+00
  2.08729008E+00  2.12385787E+00  2.13407681E+00  2.18204732E+00  2.18515904E+00
  2.20197346E+00  2.21386094E+00  2.22685712E+00  2.24817647E+00  2.26147175E+00
  2.26817761E+00  2.32148769E+00  2.34502795E+00  2.36202292E+00  2.44994696E+00
  2.47284254E+00  2.55662460E+00  2.67607026E+00  2.69981281E+00  2.76675246E+00
  2.91729831E+00  2.94551522E+00  3.07808487E+00  3.08326827E+00  3.18543523E+00
  3.21783452E+00  3.31467461E+00  3.31771127E+00  3.35250691E+00  3.36521286E+00
  3.52939430E+00  3.53101483E+00  4.25435126E+00  4.38676298E+00  4.53360941E+00
  4.60051376E+00  4.82650128E+00  4.91798293E+00  5.06426770E+00
Alpha MO coefficients                      R   N=       11881
  9.06685151E-01  1.91356134E-02  7.03975583E-04  8.99740202E-04  3.96020293E-05
  3.87001321E-03 -1.02948885E-04 -8.93411495E-05 -1.38630747E-05 -3.54936442E-03
 -3.51318883E-03 -3.62155264E-03  8.15993640E-05  6.89342207E-05 -4.07328190E-05
  3.51497432E-03  7.10660740E-05  1.18708600E-05  9.01876884E-06 -3.87909860E-06
  3.20273905E-05 -1.43250134E-05 -9.84397937E-06 -3.21024107E-06 -1.00364015E-05
 -1.45745423E-06 -2.23220278E-05  2.40189053E-05  2.14164674E-05 -2.04749180E-05
 -8.25631155E-03 -1.91221835E-04  2.45657274E-05  2.36702152E-05  5.66203756E-06
  4.97953450E-05  1.90406933E-06 -5.87933005E-05  3.67803225E-05  1.49533991E-05
 -6.89774480E-06  4.17123605E-05 -6.08795622E-05  5.16519936E-05 -4.70712656E-05
 -4.08954954E-01 -8.63374343E-03  3.19178618E-04  4.05704314E-04 -1.80372566E-05
 -1.73038673E-03 -6.09813809E-05 -3.86885400E-05  6.82793217E-06  1.60266504E-03
  1.58036650E-03  1.63212704E-03 -3.68970099E-05  3.16988208E-05 -1.86252277E-05
 -6.98398176E-07  9.87255477E-06  4.15874933E-05  2.02388384E-05  3.22875745E-07
 -1.89466618E-07  1.83603900E-04 -5.28670964E-05  4.13158016E-05 -2.54851059E-05
 -5.10368974E-06 -5.38921856E-06 -1.53858064E-05 -2.50671749E-05 -2.87289561E-05
 -9.63629881E-06  4.38691580E-04 -8.83432402E-05 -1.12381762E-04  2.94672694E-06
 -1.30348216E-04  3.46739370E-04  1.92064401E-04  1.11394736E-04 -2.16289502E-04
 -3.65724848E-04 -5.86219693E-05 -2.60164240E-04  3.51955758E-06 -1.72012936E-06
  9.25019017E-06 -1.83910439E-04 -5.04369752E-05 -4.66300526E-05  2.76560721E-07
 -7.97838062E-05  2.14482698E-04  9.05335832E-05 -6.59363855E-05  1.08642659E-04
  1.73082843E-04  3.79248367E-05  1.17834342E-04  2.75569103E-06 -2.16918725E-06
  3.52429370E-06 -6.12466833E-05  3.84981135E-06 -6.83000547E-06  4.08949144E-01
  8.62674646E-03  3.15003451E-04  4.06008407E-04  1.75920852E-05  1.76841373E-03
 -2.44574593E-05 -4.27316453E-05 -5.38609586E-06 -1.59826470E-03 -1.59097943E-03
 -1.63549511E-03  3.66662780E-05  3.01756817E-05 -1.79902303E-05 -8.49271478E-03
 -2.08410175E-04 -2.36698158E-05 -2.55480894E-05  4.16098114E-06  1.11497679E-04
 -1.90979738E-05  7.76727473E-05  5.19356288E-05  1.12254392E-05 -1.20798346E-05
  3.77486859E-05 -6.47693472E-05 -5.37853239E-05  4.79252366E-05 -4.03967482E-03
 -1.09186497E-04  9.88625621E-06  1.31809566E-05  5.51618699E-07  1.04770638E-04
  2.37955730E-05 -5.17082178E-05  3.68023959E-05  1.77360397E-06 -1.00146837E-05
  1.35204679E-05 -3.26538847E-05  2.61398392E-05 -2.23721004E-05  9.06682533E-01
  1.91324585E-02 -7.02064480E-04 -8.99900425E-04  3.93909010E-05  3.88715943E-03
  8.64733412E-05  9.11689091E-05 -1.32130499E-05 -3.54738787E-03 -3.51797350E-03
 -3.62306333E-03  8.14986912E-05 -6.82478437E-05  4.04463483E-05 -1.84567029E-06
  2.60965620E-05 -1.57327718E-05 -7.65684111E-06  8.53476864E-07 -5.15960784E-07
 -6.94586034E-05  1.99936353E-05  1.09222942E-04 -6.73583446E-05 -1.34943418E-05
 -1.42431483E-05 -4.06727944E-05  9.48258259E-06  1.08696970E-05  3.06232643E-06
  2.18954235E-04 -2.38444533E-05 -5.68219017E-05  3.75458318E-06 -2.68137082E-04
  6.86284106E-05  8.07356505E-05  2.65411284E-05 -8.07968980E-05 -1.52687324E-04
 -9.09148108E-06 -1.16601596E-04 -1.75466961E-07  1.33223707E-06 -4.08275092E-06
  4.54498421E-04  7.63455286E-05  1.16980572E-04  4.76658369E-06 -2.87271734E-04
 -2.80943318E-04 -1.87655524E-04  9.36289016E-05 -2.03717062E-04 -3.56538877E-04
 -4.56168985E-05 -2.59603230E-04 -2.20124568E-06  1.35609684E-07  9.80748019E-06
 -7.96788308E-05  9.68428787E-06 -1.00261045E-04  7.74387268E-03  1.31627898E-04
  2.20115521E-05 -1.18041870E-05  1.70542732E-05  2.28800170E-04  4.74780270E-05
  7.46360399E-05  2.10099598E-05 -1.73037535E-06 -9.23171060E-05 -7.04928065E-05
  4.32924719E-05  4.89640881E-05  3.97618373E-05 -5.07803967E-01 -1.07427022E-02
  5.68396625E-05 -5.52948425E-04 -3.21371753E-04 -1.99992779E-03 -4.74174785E-05
  1.11926388E-04  6.69580793E-05  1.98924204E-03  1.95260909E-03  1.99888153E-03
 -1.86925169E-05  3.56176915E-05 -4.75991733E-05  8.55263141E-01  1.80796942E-02
  9.41165204E-05 -9.27708721E-04  5.42815546E-04  3.44468266E-03 -5.78305933E-05
  1.54951209E-04 -1.06344429E-04 -3.35881733E-03 -3.29335543E-03 -3.37619025E-03
  2.48009983E-05  6.10862403E-05 -7.92601603E-05 -4.44166951E-03 -8.98536517E-05
  1.56182924E-05 -6.62292402E-06 -1.04462107E-05 -5.31442775E-05 -4.10307687E-06
  3.11608000E-05 -9.22119769E-06 -2.68968692E-06  4.31159668E-05  3.24879698E-05
 -2.35484990E-05  2.88551310E-05  2.31544537E-05 -8.38486407E-07  5.95446307E-06
  4.15613352E-05 -2.38602110E-05  4.38040498E-06  1.30926971E-05  2.14729470E-04
 -7.88243779E-05  2.63229998E-05 -5.69282409E-06 -9.03334078E-06 -1.39367994E-05
  1.40707054E-05 -3.94324399E-05  3.29045537E-05 -1.41630704E-05  4.07490095E-04
 -2.23669282E-05  1.27073409E-04 -6.18519708E-05 -5.47550905E-07  2.82188145E-04
 -9.37237762E-05  1.80617332E-04 -6.43961730E-05 -4.05147371E-04 -1.64406547E-04
  1.41339031E-05 -1.25457743E-06  2.03980178E-04  1.48094106E-05 -2.24110397E-04
 -2.72987006E-05  8.02261666E-05  3.50961307E-05 -1.87017875E-04  2.19689510E-04
 -8.71821884E-05 -1.20320353E-04  5.13984459E-05  2.51253141E-04  1.10845887E-04
 -1.24850944E-05  3.69787566E-06  1.17461188E-04 -8.04910169E-06 -3.38929482E-05
  1.28201727E-05 -1.32207488E-05  4.92351559E-03  5.37013163E-05  7.74172945E-06
 -7.81226375E-06  9.45844780E-06  3.08588310E-04  9.56426076E-05  7.17842463E-05
  1.92661443E-05 -8.79562105E-06 -7.92377157E-05 -6.14179259E-05  3.02104839E-05
  2.95235735E-05  2.45596832E-05  8.55257437E-01  1.80647855E-02 -9.23697446E-05
  9.23747506E-04  5.44569769E-04  3.52775749E-03  3.38420566E-05 -1.18402643E-04
 -9.93581410E-05 -3.36801184E-03 -3.29845452E-03 -3.38659699E-03  1.75310862E-05
 -6.22848854E-05  7.82706361E-05  5.07794354E-01  1.07175911E-02  5.38843774E-05
 -5.46328986E-04  3.24248632E-04  2.13986398E-03 -7.01211961E-06  5.03738891E-05
 -5.51756280E-05 -2.00472100E-03 -1.96118784E-03 -2.01643040E-03  6.44145345E-06
  3.76320446E-05 -4.59323715E-05  8.02968848E-03  1.10158137E-04 -1.73344944E-05
  1.25092351E-05  1.64692629E-05  3.80461082E-04 -1.06695247E-04 -9.87580100E-05
  2.69731853E-05 -8.55452634E-06 -1.13756500E-04 -8.76673488E-05  4.72517063E-05
 -4.93608337E-05 -4.06010409E-05 -3.28986485E-06  2.33583241E-05 -1.05950096E-05
  6.08210919E-06  1.71884586E-05  5.13700481E-05 -5.47367857E-05  2.00899728E-05
  1.03289015E-04 -2.23370623E-05 -3.54300753E-05 -5.46823082E-05  5.51920036E-05
  1.00531932E-05 -8.38788385E-06  4.96015484E-06  2.79186643E-04  1.60021345E-05
  6.54662897E-05 -4.01316689E-05 -3.91650063E-04  5.86114604E-05  1.02349982E-05
  7.99281176E-05 -1.07352746E-05 -2.18176461E-04 -6.99885955E-05 -1.53952497E-07
 -1.00273556E-05  1.28745719E-04 -2.42510001E-06  4.40190165E-04 -3.34057468E-06
 -1.18308225E-04 -6.48491341E-05 -3.44115465E-04 -1.86545659E-04  3.58658516E-05
  1.56645135E-04 -4.02524478E-05 -3.85487957E-04 -1.40164604E-04  6.63379686E-06
  9.40585459E-06 -2.10692136E-04  1.20184400E-05 -8.97841128E-05  6.69788398E-06
 -9.50500105E-05 -1.48491274E-04  3.47780121E-04 -1.13038130E-05  1.35908001E-04
 -1.98877120E-05 -1.59233628E-03 -1.47536991E-04 -1.19199492E-03  1.77811485E-04
  1.02163908E-04 -1.61527417E-04  1.78528020E-04 -2.12107416E-04 -6.03250438E-05
  4.70287496E-05  1.99251629E-04 -3.87238242E-05 -2.56312805E-05 -1.09976994E-04
 -6.16572614E-06 -7.19088254E-04  6.15622598E-04  5.50010949E-04 -7.39699423E-05
  1.75941026E-05  2.76262618E-04 -3.34079712E-06  1.01394037E-04 -1.81683954E-05
  2.02519268E-04 -2.04638575E-04  4.94043997E-05 -2.79016068E-05 -1.14311910E-04
  7.66017084E-06  6.78515033E-04  6.26365334E-04  5.87321477E-04  6.15230522E-05
 -1.34986022E-05 -2.82476879E-04  5.58641981E-06 -1.02246938E-04 -2.04174851E-05
  2.09362639E-04  1.43977760E-04 -3.33125137E-04 -1.35310381E-05  1.31290892E-04
  1.88322594E-05  1.53120716E-03 -1.27375066E-04 -1.15253961E-03 -1.69586467E-04
 -9.97076641E-05  1.59842544E-04 -1.70015275E-04  2.04302864E-04 -5.83632347E-05
  4.53604317E-05  5.48631381E-05  6.52003907E-06 -9.26035575E-05 -2.56478613E-05
  1.32878577E-06  6.74456377E-05 -3.28494540E-03  1.13881396E-03 -1.85472260E-05
 -1.05024955E-05 -2.41705884E-06 -7.29972460E-06  6.89391740E-07 -1.87461792E-04
  2.87793194E-05  7.16388248E-01  1.88881789E-02  4.93439393E-05 -1.74866751E-05
 -1.23730876E-04 -7.34321341E-03 -3.78319287E-03 -8.41213064E-04 -1.51270472E-03
 -9.04209146E-04 -2.94980906E-04 -1.07753583E-03  3.86220765E-04  2.09025932E-04
 -3.33985169E-04 -6.92089954E-01 -1.82709827E-02  5.76480041E-05 -1.79187720E-05
  1.18250227E-04  7.23854554E-03 -3.72046139E-03 -8.40175062E-04  1.46428070E-03
  8.68765217E-04  2.77329565E-04  1.03192537E-03 -3.73579697E-04  2.00554814E-04
 -3.19673675E-04  1.20532104E-04  9.70730054E-05 -1.27217001E-04 -8.65190590E-05
 -1.28314320E-04  4.18545912E-04  6.47052854E-05  1.31413933E-04 -3.04330174E-05
 -1.74319900E-03 -5.80957105E-04 -1.12262284E-03  2.36365220E-04  6.96715382E-05
 -4.63825446E-05  2.43395666E-04 -2.22383755E-04 -5.56892619E-05  4.76602955E-05
 -1.59701507E-04  3.09671355E-04  6.63130102E-05  1.27460048E-04  4.35132801E-05
 -1.16071982E-03 -3.21991533E-04 -1.09052081E-03 -3.59376542E-04  1.18197007E-04
 -1.85008784E-04  6.42174615E-05 -2.65248753E-05  6.55432510E-05 -2.02023347E-04
 -1.52736357E-04  3.08135056E-04 -6.53940657E-05 -1.23589112E-04  4.32704640E-05
 -1.18475906E-03  3.00589592E-04  1.07088444E-03 -3.61670870E-04  1.18719678E-04
 -1.75387991E-04  6.40682563E-05 -2.30124535E-05 -6.48737086E-05  1.94905017E-04
 -1.33361958E-04  4.30292097E-04 -6.42726585E-05 -1.36025681E-04 -3.11031974E-05
 -1.79707824E-03  5.85673400E-04  1.16308631E-03  2.42381530E-04  7.31660132E-05
 -5.19381270E-05  2.49400434E-04 -2.29568810E-04  5.77367122E-05 -4.92584736E-05
  3.18060895E-03  3.78010974E-04  1.59683617E-06  4.40489740E-07  7.67902816E-05
  3.90880917E-03  5.66723855E-05 -1.95956701E-05 -1.07827010E-03 -6.08213755E-04
 -1.39839075E-04 -4.23351123E-04  3.95328186E-05  3.23962002E-06 -4.84738883E-07
  6.91928914E-01  1.75637156E-02 -2.41352634E-04  1.26176354E-05 -1.56636970E-04
 -2.90895909E-03 -1.75094928E-03 -2.00704337E-05 -1.37879532E-03 -1.01242503E-03
 -5.06799007E-04 -1.30257831E-03  3.59812760E-04  2.41985897E-04 -4.09486037E-04
  7.16232669E-01  1.82049073E-02  2.39502775E-04 -1.19986274E-05 -1.60823094E-04
 -3.16053444E-03  1.88037269E-03  4.91429224E-05 -1.43022832E-03 -1.04304560E-03
 -5.16684253E-04 -1.33894166E-03  3.72929171E-04 -2.49062298E-04  4.20778547E-04
 -1.95801299E-04  3.03795844E-04 -1.91531800E-04  3.06958303E-04 -5.09796509E-05
 -2.93851597E-04 -6.32239865E-05 -3.41893053E-05 -5.79535421E-06  9.51305136E-04
  1.10345038E-04  4.43611420E-04 -2.14226834E-04 -1.28721155E-04 -7.92884690E-05
 -2.40223217E-04  8.14848205E-05  5.88152251E-05 -6.18856803E-05 -7.95396146E-05
 -4.25565065E-04  4.60104698E-05 -4.65232750E-05 -5.98714642E-05  1.67405941E-03
  3.92289663E-05  5.52358771E-04  2.56989357E-04 -2.29130004E-04 -1.60493052E-04
 -2.83697848E-04  2.39141280E-05 -1.06393973E-04  1.17161865E-04 -7.95396930E-05
 -4.25564176E-04 -4.60096762E-05  4.65249548E-05 -5.98702075E-05  1.67406451E-03