
    -----------------------------------------------------------------------
          Psi4: An Open-Source Ab Initio Electronic Structure Package
                               Psi4 1.4a3.dev225 

                         Git: Rev {master} 7105e37 


    D. G. A. Smith, L. A. Burns, A. C. Simmonett, R. M. Parrish,
    M. C. Schieber, R. Galvelis, P. Kraus, H. Kruse, R. Di Remigio,
    A. Alenaizan, A. M. James, S. Lehtola, J. P. Misiewicz, M. Scheurer,
    R. A. Shaw, J. B. Schriber, Y. Xie, Z. L. Glick, D. A. Sirianni,
    J. S. O'Brien, J. M. Waldrop, A. Kumar, E. G. Hohenstein,
    B. P. Pritchard, B. R. Brooks, H. F. Schaefer III, A. Yu. Sokolov,
    K. Patkowski, A. E. DePrince III, U. Bozkaya, R. A. King,
    F. A. Evangelista, J. M. Turney, T. D. Crawford, C. D. Sherrill,
    J. Chem. Phys. 152(18) 184108 (2020). https://doi.org/10.1063/5.0006002

                            Additional Code Authors
    E. T. Seidl, C. L. Janssen, E. F. Valeev, M. L. Leininger,
    J. F. Gonthier, R. M. Richard, H. R. McAlexander, M. Saitow, X. Wang,
    P. Verma, and M. H. Lechner

             Previous Authors, Complete List of Code Contributors,
                       and Citations for Specific Modules
    https://github.com/psi4/psi4/blob/master/codemeta.json
    https://github.com/psi4/psi4/graphs/contributors
    http://psicode.org/psi4manual/master/introduction.html#citing-psifour

    -----------------------------------------------------------------------


    Psi4 started on: Sunday, 28 February 2021 12:35AM

    Process ID: 216962
    Host:       c403-114.stampede2.tacc.utexas.edu
    PSIDATADIR: /home1/07844/xy3866/miniconda3/envs/p4env/share/psi4
    Memory:     500.0 MiB
    Threads:    32
    
  ==> Input File <==

--------------------------------------------------------------------------
#psi4
#
memory 32 gb

molecule  {
0 1
  O        1.8881650     1.4432750    -0.0000100
  O       -3.1767040     0.9881070     0.0000170
  C       -0.5155700     0.0356770    -0.0000120
  C        0.8140500    -0.7053830     0.0000180
  C       -1.6970590    -0.9239890    -0.0000140
  C        2.0167370     0.2220750     0.0000010
  C        3.3799790    -0.4356510     0.0000020
  C       -3.0337740    -0.2274000    -0.0000030
  H       -0.5677084     0.6346135     0.7907920
  H       -0.5729310     0.6948780    -0.8704450
  H        0.8958950    -1.3682810    -0.8735520
  H        0.8958840    -1.3682250     0.8736320
  H       -1.6727150    -1.5924060     0.8735570
  H       -1.6727210    -1.5923950    -0.8735930
  H        3.4942430    -1.0743930    -0.8818600
  H        3.4942540    -1.0743610     0.8818860
  H        4.1535670     0.3330070    -0.0000160
  H       -3.9203830    -0.8957560    -0.0000150
units angstrom
no_reorient  #important for SAPT in psi4, default
symmetry c1  #important for SAPT in psi4, default
}

set PROPERTIES_ORIGIN ["COM"]
properties('MP2/aug-cc-pvtz', properties = ['dipole'])
--------------------------------------------------------------------------

  Memory set to  29.802 GiB by Python driver.
    SCF Algorithm Type (re)set to DF.

*** tstart() called on c403-114.stampede2.tacc.utexas.edu
*** at Sun Feb 28 00:35:30 2021

   => Loading Basis Set <=

    Name: AUG-CC-PVTZ
    Role: ORBITAL
    Keyword: BASIS
    atoms 1-2  entry O          line   331 file /home1/07844/xy3866/miniconda3/envs/p4env/share/psi4/basis/aug-cc-pvtz.gbs 
    atoms 3-8  entry C          line   239 file /home1/07844/xy3866/miniconda3/envs/p4env/share/psi4/basis/aug-cc-pvtz.gbs 
    atoms 9-18 entry H          line    40 file /home1/07844/xy3866/miniconda3/envs/p4env/share/psi4/basis/aug-cc-pvtz.gbs 


         ---------------------------------------------------------
                                   SCF
               by Justin Turney, Rob Parrish, Andy Simmonett
                          and Daniel G. A. Smith
                              RHF Reference
                       32 Threads,  30517 MiB Core
         ---------------------------------------------------------

  ==> Geometry <==

    Molecular point group: c1
    Full point group: C1

    Geometry (in Angstrom), charge = 0, multiplicity = 1:

       Center              X                  Y                   Z               Mass       
    ------------   -----------------  -----------------  -----------------  -----------------
         O            1.927395113944     1.380915500986     0.000693273151    15.994914619570
         O           -3.137473886056     0.925747500986     0.000720273151    15.994914619570
         C           -0.476339886056    -0.026682499014     0.000691273151    12.000000000000
         C            0.853280113944    -0.767742499014     0.000721273151    12.000000000000
         C           -1.657828886056    -0.986348499014     0.000689273151    12.000000000000
         C            2.055967113944     0.159715500986     0.000704273151    12.000000000000
         C            3.419209113944    -0.498010499014     0.000705273151    12.000000000000
         C           -2.994543886056    -0.289759499014     0.000700273151    12.000000000000
         H           -0.528478286056     0.572254000986     0.791495273151     1.007825032230
         H           -0.533700886056     0.632518500986    -0.869741726849     1.007825032230
         H            0.935125113944    -1.430640499014    -0.872848726849     1.007825032230
         H            0.935114113944    -1.430584499014     0.874335273151     1.007825032230
         H           -1.633484886056    -1.654765499014     0.874260273151     1.007825032230
         H           -1.633490886056    -1.654754499014    -0.872889726849     1.007825032230
         H            3.533473113944    -1.136752499014    -0.881156726849     1.007825032230
         H            3.533484113944    -1.136720499014     0.882589273151     1.007825032230
         H            4.192797113944     0.270647500986     0.000687273151     1.007825032230
         H           -3.881152886056    -0.958115499014     0.000688273151     1.007825032230

  Running in c1 symmetry.

  Rotational constants: A =      0.19316  B =      0.02668  C =      0.02385 [cm^-1]
  Rotational constants: A =   5790.78425  B =    799.97218  C =    714.87914 [MHz]
  Nuclear repulsion =  353.765625295187931

  Charge       = 0
  Multiplicity = 1
  Electrons    = 62
  Nalpha       = 31
  Nbeta        = 31

  ==> Algorithm <==

  SCF Algorithm Type is DF.
  DIIS enabled.
  MOM disabled.
  Fractional occupation disabled.
  Guess Type is SAD.
  Energy threshold   = 1.00e-10
  Density threshold  = 1.00e-10
  Integral threshold = 1.00e-12

  ==> Primary Basis <==

  Basis Set: AUG-CC-PVTZ
    Blend: AUG-CC-PVTZ
    Number of shells: 202
    Number of basis functions: 598
    Number of Cartesian functions: 690
    Spherical Harmonics?: true
    Max angular momentum: 3

   => Loading Basis Set <=

    Name: (AUG-CC-PVTZ AUX)
    Role: JKFIT
    Keyword: DF_BASIS_SCF
    atoms 1-2  entry O          line   286 file /home1/07844/xy3866/miniconda3/envs/p4env/share/psi4/basis/aug-cc-pvtz-jkfit.gbs 
    atoms 3-8  entry C          line   162 file /home1/07844/xy3866/miniconda3/envs/p4env/share/psi4/basis/aug-cc-pvtz-jkfit.gbs 
    atoms 9-18 entry H          line    70 file /home1/07844/xy3866/miniconda3/envs/p4env/share/psi4/basis/aug-cc-pvtz-jkfit.gbs 

  ==> Integral Setup <==

  DFHelper Memory: AOs need 3.215 GiB; user supplied 22.352 GiB. Using in-core AOs.

  ==> MemDFJK: Density-Fitted J/K Matrices <==

    J tasked:                   Yes
    K tasked:                   Yes
    wK tasked:                   No
    OpenMP threads:              32
    Memory [MiB]:             22888
    Algorithm:                 Core
    Schwarz Cutoff:           1E-12
    Mask sparsity (%):      11.5469
    Fitting Condition:        1E-10

   => Auxiliary Basis Set <=

  Basis Set: (AUG-CC-PVTZ AUX)
    Blend: AUG-CC-PVTZ-JKFIT
    Number of shells: 380
    Number of basis functions: 1292
    Number of Cartesian functions: 1598
    Spherical Harmonics?: true
    Max angular momentum: 4

  Minimum eigenvalue in the overlap matrix is 3.6557960596E-06.
  Reciprocal condition number of the overlap matrix is 1.8920611762E-07.
    Using symmetric orthogonalization.

  ==> Pre-Iterations <==

  SCF Guess: Superposition of Atomic Densities via on-the-fly atomic UHF (no occupation information).

   -------------------------
    Irrep   Nso     Nmo    
   -------------------------
     A        598     598 
   -------------------------
    Total     598     598
   -------------------------

  ==> Iterations <==

                           Total Energy        Delta E     RMS |[F,P]|

   @DF-RHF iter SAD:  -381.76890394540004   -3.81769e+02   0.00000e+00 
   @DF-RHF iter   1:  -382.56267520783371   -7.93771e-01   1.28491e-03 DIIS
   @DF-RHF iter   2:  -382.79581573846224   -2.33141e-01   8.05010e-04 DIIS
   @DF-RHF iter   3:  -382.87834130345198   -8.25256e-02   1.66861e-04 DIIS
   @DF-RHF iter   4:  -382.88442247327669   -6.08117e-03   6.45230e-05 DIIS
   @DF-RHF iter   5:  -382.88552931627072   -1.10684e-03   1.21484e-05 DIIS
   @DF-RHF iter   6:  -382.88560071825896   -7.14020e-05   5.50176e-06 DIIS
   @DF-RHF iter   7:  -382.88561260620168   -1.18879e-05   2.44282e-06 DIIS
   @DF-RHF iter   8:  -382.88561532364736   -2.71745e-06   7.79695e-07 DIIS
   @DF-RHF iter   9:  -382.88561566846118   -3.44814e-07   1.87101e-07 DIIS
   @DF-RHF iter  10:  -382.88561567920988   -1.07487e-08   9.13410e-08 DIIS
   @DF-RHF iter  11:  -382.88561568087977   -1.66989e-09   1.69163e-08 DIIS
   @DF-RHF iter  12:  -382.88561568096617   -8.64020e-11   4.67887e-09 DIIS
   @DF-RHF iter  13:  -382.88561568097396   -7.78755e-12   1.45183e-09 DIIS
   @DF-RHF iter  14:  -382.88561568097498   -1.02318e-12   5.97019e-10 DIIS
   @DF-RHF iter  15:  -382.88561568097452    4.54747e-13   1.85553e-10 DIIS
   @DF-RHF iter  16:  -382.88561568097418    3.41061e-13   7.69516e-11 DIIS
  Energy and wave function converged.


  ==> Post-Iterations <==

    Orbital Energies [Eh]
    ---------------------

    Doubly Occupied:                                                      

       1A    -20.560675     2A    -20.548965     3A    -11.338096  
       4A    -11.337152     5A    -11.250139     6A    -11.247301  
       7A    -11.240379     8A    -11.219124     9A     -1.385507  
      10A     -1.379623    11A     -1.101337    12A     -1.035809  
      13A     -0.983619    14A     -0.880223    15A     -0.781076  
      16A     -0.742880    17A     -0.675858    18A     -0.670215  
      19A     -0.657228    20A     -0.626280    21A     -0.615095  
      22A     -0.611469    23A     -0.571635    24A     -0.563515  
      25A     -0.518660    26A     -0.517263    27A     -0.507272  
      28A     -0.490783    29A     -0.486163    30A     -0.431094  
      31A     -0.412502  

    Virtual:                                                              

      32A      0.019935    33A      0.027079    34A      0.032558  
      35A      0.040818    36A      0.049711    37A      0.050386  
      38A      0.056470    39A      0.066394    40A      0.071824  
      41A      0.073675    42A      0.083761    43A      0.089386  
      44A      0.104583    45A      0.110121    46A      0.111421  
      47A      0.115366    48A      0.118729    49A      0.123726  
      50A      0.127157    51A      0.129281    52A      0.137592  
      53A      0.140731    54A      0.144340    55A      0.150529  
      56A      0.154041    57A      0.156701    58A      0.160066  
      59A      0.170500    60A      0.173664    61A      0.180344  
      62A      0.195266    63A      0.201990    64A      0.208243  
      65A      0.217658    66A      0.222928    67A      0.227698  
      68A      0.228962    69A      0.236157    70A      0.243774  
      71A      0.249154    72A      0.251591    73A      0.257532  
      74A      0.260766    75A      0.272230    76A      0.281570  
      77A      0.282328    78A      0.291227    79A      0.304943  
      80A      0.307024    81A      0.310996    82A      0.314281  
      83A      0.322185    84A      0.331058    85A      0.332544  
      86A      0.340799    87A      0.341196    88A      0.349425  
      89A      0.350647    90A      0.356647    91A      0.359225  
      92A      0.363501    93A      0.369993    94A      0.375335  
      95A      0.381986    96A      0.388527    97A      0.396395  
      98A      0.399416    99A      0.402546   100A      0.408699  
     101A      0.412859   102A      0.413512   103A      0.420787  
     104A      0.423039   105A      0.424877   106A      0.429843  
     107A      0.432773   108A      0.437716   109A      0.442483  
     110A      0.455169   111A      0.456132   112A      0.457797  
     113A      0.465312   114A      0.478520   115A      0.485800  
     116A      0.495292   117A      0.499682   118A      0.502309  
     119A      0.508709   120A      0.513283   121A      0.517792  
     122A      0.524056   123A      0.530746   124A      0.534377  
     125A      0.540476   126A      0.546211   127A      0.547130  
     128A      0.551055   129A      0.568055   130A      0.574676  
     131A      0.575267   132A      0.576431   133A      0.582050  
     134A      0.597412   135A      0.600633   136A      0.613901  
     137A      0.616140   138A      0.617625   139A      0.632972  
     140A      0.654383   141A      0.659641   142A      0.664652  
     143A      0.675886   144A      0.693453   145A      0.698300  
     146A      0.702237   147A      0.707476   148A      0.713806  
     149A      0.720641   150A      0.736604   151A      0.738748  
     152A      0.751782   153A      0.756472   154A      0.763593  
     155A      0.774951   156A      0.789389   157A      0.807481  
     158A      0.809673   159A      0.816404   160A      0.818272  
     161A      0.827168   162A      0.832646   163A      0.837347  
     164A      0.847015   165A      0.849777   166A      0.864349  
     167A      0.864431   168A      0.869185   169A      0.873849  
     170A      0.882151   171A      0.891142   172A      0.892880  
     173A      0.896994   174A      0.900962   175A      0.914368  
     176A      0.916433   177A      0.921379   178A      0.923448  
     179A      0.932088   180A      0.933155   181A      0.949279  
     182A      0.954887   183A      0.960752   184A      0.966693  
     185A      0.979287   186A      0.985812   187A      0.986848  
     188A      0.995310   189A      1.004876   190A      1.008245  
     191A      1.011765   192A      1.018628   193A      1.019953  
     194A      1.028087   195A      1.047070   196A      1.055184  
     197A      1.063254   198A      1.065695   199A      1.076451  
     200A      1.076940   201A      1.084534   202A      1.101626  
     203A      1.103214   204A      1.113635   205A      1.117348  
     206A      1.123122   207A      1.129551   208A      1.133685  
     209A      1.137212   210A      1.146757   211A      1.153559  
     212A      1.157885   213A      1.158697   214A      1.160541  
     215A      1.167223   216A      1.185805   217A      1.191102  
     218A      1.195003   219A      1.196281   220A      1.215597  
     221A      1.223423   222A      1.229665   223A      1.231176  
     224A      1.236288   225A      1.242842   226A      1.244125  
     227A      1.263467   228A      1.274522   229A      1.280916  
     230A      1.291866   231A      1.296476   232A      1.305281  
     233A      1.309211   234A      1.315878   235A      1.319748  
     236A      1.328139   237A      1.333506   238A      1.357297  
     239A      1.365958   240A      1.391410   241A      1.395262  
     242A      1.406272   243A      1.419965   244A      1.421386  
     245A      1.441586   246A      1.455848   247A      1.461554  
     248A      1.479399   249A      1.488521   250A      1.493946  
     251A      1.499159   252A      1.505088   253A      1.512640  
     254A      1.521976   255A      1.539428   256A      1.541909  
     257A      1.563943   258A      1.566818   259A      1.578280  
     260A      1.583998   261A      1.590707   262A      1.606264  
     263A      1.614748   264A      1.618414   265A      1.624568  
     266A      1.633613   267A      1.643596   268A      1.647059  
     269A      1.658562   270A      1.664692   271A      1.668108  
     272A      1.680214   273A      1.684886   274A      1.690930  
     275A      1.694398   276A      1.708276   277A      1.714124  
     278A      1.733816   279A      1.740493   280A      1.748531  
     281A      1.752288   282A      1.756723   283A      1.766147  
     284A      1.774114   285A      1.789700   286A      1.793757  
     287A      1.804591   288A      1.817704   289A      1.821500  
     290A      1.832167   291A      1.840265   292A      1.846614  
     293A      1.867506   294A      1.871633   295A      1.883877  
     296A      1.890423   297A      1.900620   298A      1.904878  
     299A      1.912678   300A      1.923468   301A      1.940114  
     302A      1.946851   303A      1.961288   304A      1.972832  
     305A      1.983439   306A      1.985615   307A      1.991405  
     308A      2.009427   309A      2.018859   310A      2.034500  
     311A      2.035925   312A      2.048095   313A      2.069929  
     314A      2.089722   315A      2.094861   316A      2.107768  
     317A      2.129441   318A      2.134382   319A      2.160986  
     320A      2.166623   321A      2.195715   322A      2.214247  
     323A      2.217415   324A      2.221222   325A      2.238325  
     326A      2.242025   327A      2.254325   328A      2.269101  
     329A      2.280212   330A      2.305992   331A      2.319315  
     332A      2.334677   333A      2.339163   334A      2.343460  
     335A      2.356183   336A      2.359008   337A      2.378147  
     338A      2.400607   339A      2.414732   340A      2.423759  
     341A      2.443647   342A      2.449202   343A      2.474508  
     344A      2.489120   345A      2.499011   346A      2.514510  
     347A      2.536859   348A      2.557368   349A      2.575239  
     350A      2.600551   351A      2.606593   352A      2.647131  
     353A      2.654350   354A      2.659583   355A      2.666419  
     356A      2.687488   357A      2.711021   358A      2.721306  
     359A      2.732879   360A      2.768828   361A      2.776218  
     362A      2.781645   363A      2.798302   364A      2.828650  
     365A      2.861900   366A      2.874647   367A      2.890261  
     368A      2.900092   369A      2.927061   370A      2.968369  
     371A      3.006143   372A      3.029459   373A      3.040300  
     374A      3.055403   375A      3.115069   376A      3.125556  
     377A      3.182340   378A      3.208628   379A      3.219228  
     380A      3.223337   381A      3.252705   382A      3.257885  
     383A      3.296152   384A      3.357396   385A      3.373782  
     386A      3.393224   387A      3.400306   388A      3.421757  
     389A      3.440821   390A      3.450579   391A      3.459589  
     392A      3.476185   393A      3.492094   394A      3.513850  
     395A      3.521629   396A      3.534463   397A      3.556598  
     398A      3.580151   399A      3.581530   400A      3.590470  
     401A      3.611913   402A      3.629045   403A      3.647922  
     404A      3.660097   405A      3.671970   406A      3.683364  
     407A      3.686021   408A      3.690592   409A      3.700414  
     410A      3.708989   411A      3.733209   412A      3.754294  
     413A      3.767762   414A      3.784999   415A      3.801170  
     416A      3.802476   417A      3.826947   418A      3.839746  
     419A      3.846162   420A      3.858573   421A      3.863624  
     422A      3.872048   423A      3.891050   424A      3.915572  
     425A      3.921615   426A      3.929306   427A      3.933401  
     428A      3.953762   429A      3.965683   430A      3.968058  
     431A      3.987412   432A      3.992629   433A      4.004111  
     434A      4.009990   435A      4.015521   436A      4.035503  
     437A      4.060606   438A      4.065921   439A      4.078614  
     440A      4.086446   441A      4.092564   442A      4.141091  
     443A      4.147768   444A      4.150591   445A      4.186417  
     446A      4.197619   447A      4.200944   448A      4.226746  
     449A      4.226996   450A      4.243213   451A      4.251699  
     452A      4.257220   453A      4.270190   454A      4.276460  
     455A      4.312874   456A      4.320124   457A      4.326929  
     458A      4.340865   459A      4.351280   460A      4.367369  
     461A      4.397067   462A      4.411979   463A      4.434989  
     464A      4.448188   465A      4.461006   466A      4.469342  
     467A      4.478582   468A      4.515014   469A      4.527125  
     470A      4.539986   471A      4.543344   472A      4.558809  
     473A      4.567750   474A      4.577335   475A      4.605018  
     476A      4.642177   477A      4.674397   478A      4.682943  
     479A      4.690156   480A      4.705473   481A      4.739141  
     482A      4.759208   483A      4.781123   484A      4.785965  
     485A      4.801208   486A      4.822788   487A      4.836102  
     488A      4.840191   489A      4.846118   490A      4.851650  
     491A      4.889664   492A      4.898706   493A      4.919389  
     494A      4.945453   495A      4.971758   496A      4.972692  
     497A      5.016153   498A      5.036793   499A      5.060129  
     500A      5.066270   501A      5.089255   502A      5.092306  
     503A      5.124027   504A      5.138147   505A      5.146952  
     506A      5.165966   507A      5.174586   508A      5.182324  
     509A      5.221234   510A      5.240050   511A      5.244264  
     512A      5.262441   513A      5.275413   514A      5.289817  
     515A      5.312455   516A      5.316173   517A      5.356010  
     518A      5.378073   519A      5.383670   520A      5.397250  
     521A      5.427517   522A      5.436696   523A      5.446902  
     524A      5.488552   525A      5.512600   526A      5.520376  
     527A      5.535429   528A      5.558286   529A      5.584453  
     530A      5.603857   531A      5.627607   532A      5.665935  
     533A      5.680950   534A      5.688496   535A      5.695338  
     536A      5.753121   537A      5.769428   538A      5.781599  
     539A      5.802510   540A      5.812831   541A      5.842188  
     542A      5.955136   543A      5.974981   544A      5.996887  
     545A      6.014557   546A      6.053457   547A      6.066344  
     548A      6.108238   549A      6.115735   550A      6.123145  
     551A      6.165880   552A      6.210069   553A      6.234925  
     554A      6.322572   555A      6.329645   556A      6.452909  
     557A      6.504355   558A      6.514375   559A      6.538213  
     560A      6.582669   561A      6.625639   562A      6.710486  
     563A      6.725348   564A      6.761766   565A      6.765385  
     566A      6.792129   567A      6.795321   568A      6.813035  
     569A      6.848785   570A      6.970713   571A      7.005986  
     572A      7.058390   573A      7.076252   574A      7.121878  
     575A      7.204136   576A      7.252942   577A      7.357923  
     578A      7.373966   579A      7.413035   580A      7.501297  
     581A      7.514351   582A      7.536768   583A      7.611967  
     584A      7.621598   585A      7.704151   586A      7.743468  
     587A      7.840025   588A      7.895036   589A      7.944735  
     590A      8.029472   591A     15.180111   592A     15.281542  
     593A     16.736457   594A     17.492734   595A     17.779428  
     596A     19.037751   597A     19.552755   598A     20.240836  

    Final Occupation by Irrep:
              A 
    DOCC [    31 ]

  @DF-RHF Final Energy:  -382.88561568097418

   => Energetics <=

    Nuclear Repulsion Energy =            353.7656252951879310
    One-Electron Energy =               -1222.5286143319913208
    Two-Electron Energy =                 485.8773733558292633
    Total Energy =                       -382.8856156809741833

Computation Completed

*** tstop() called on c403-114.stampede2.tacc.utexas.edu at Sun Feb 28 00:35:57 2021
Module time:
	user time   =     452.32 seconds =       7.54 minutes
	system time =      36.99 seconds =       0.62 minutes
	total time  =         27 seconds =       0.45 minutes
Total time:
	user time   =     452.32 seconds =       7.54 minutes
	system time =      36.99 seconds =       0.62 minutes
	total time  =         27 seconds =       0.45 minutes
   => Loading Basis Set <=

    Name: (AUG-CC-PVTZ AUX)
    Role: RIFIT
    Keyword: DF_BASIS_MP2
    atoms 1-2  entry O          line   264 file /home1/07844/xy3866/miniconda3/envs/p4env/share/psi4/basis/aug-cc-pvtz-ri.gbs 
    atoms 3-8  entry C          line   148 file /home1/07844/xy3866/miniconda3/envs/p4env/share/psi4/basis/aug-cc-pvtz-ri.gbs 
    atoms 9-18 entry H          line    30 file /home1/07844/xy3866/miniconda3/envs/p4env/share/psi4/basis/aug-cc-pvtz-ri.gbs 


*** tstart() called on c403-114.stampede2.tacc.utexas.edu
*** at Sun Feb 28 00:35:58 2021


  //>>>>>>>>>>>>>>>>>>>>>>>>>>>>>>>>>>>//
  //               DFMP2               //
  //<<<<<<<<<<<<<<<<<<<<<<<<<<<<<<<<<<<//

	 --------------------------------------------------------
	                          DF-MP2                         
	      2nd-Order Density-Fitted Moller-Plesset Theory     
	              RMP2 Wavefunction,  32 Threads             
	                                                         
	        Rob Parrish, Justin Turney, Andy Simmonett,      
	           Ed Hohenstein, and C. David Sherrill          
	 --------------------------------------------------------

   => Auxiliary Basis Set <=

  Basis Set: (AUG-CC-PVTZ AUX)
    Blend: AUG-CC-PVTZ-RI
    Number of shells: 364
    Number of basis functions: 1308
    Number of Cartesian functions: 1638
    Spherical Harmonics?: true
    Max angular momentum: 4

	 --------------------------------------------------------
	                 NBF =   598, NAUX =  1308
	 --------------------------------------------------------
	   CLASS    FOCC     OCC    AOCC    AVIR     VIR    FVIR
	   PAIRS       0      31      31     567     567       0
	 --------------------------------------------------------

  DFHelper Memory: AOs need 3.349 GiB; user supplied 22.352 GiB. Using in-core AOs.


         ------------------------------------------------------------
                                     CPHF                           
                                  Rob Parrish                       
         ------------------------------------------------------------

  ==> Geometry <==

    Molecular point group: c1
    Full point group: C1

    Geometry (in Angstrom), charge = 0, multiplicity = 1:

       Center              X                  Y                   Z               Mass       
    ------------   -----------------  -----------------  -----------------  -----------------
         O            1.927395113944     1.380915500986     0.000693273151    15.994914619570
         O           -3.137473886056     0.925747500986     0.000720273151    15.994914619570
         C           -0.476339886056    -0.026682499014     0.000691273151    12.000000000000
         C            0.853280113944    -0.767742499014     0.000721273151    12.000000000000
         C           -1.657828886056    -0.986348499014     0.000689273151    12.000000000000
         C            2.055967113944     0.159715500986     0.000704273151    12.000000000000
         C            3.419209113944    -0.498010499014     0.000705273151    12.000000000000
         C           -2.994543886056    -0.289759499014     0.000700273151    12.000000000000
         H           -0.528478286056     0.572254000986     0.791495273151     1.007825032230
         H           -0.533700886056     0.632518500986    -0.869741726849     1.007825032230
         H            0.935125113944    -1.430640499014    -0.872848726849     1.007825032230
         H            0.935114113944    -1.430584499014     0.874335273151     1.007825032230
         H           -1.633484886056    -1.654765499014     0.874260273151     1.007825032230
         H           -1.633490886056    -1.654754499014    -0.872889726849     1.007825032230
         H            3.533473113944    -1.136752499014    -0.881156726849     1.007825032230
         H            3.533484113944    -1.136720499014     0.882589273151     1.007825032230
         H            4.192797113944     0.270647500986     0.000687273151     1.007825032230
         H           -3.881152886056    -0.958115499014     0.000688273151     1.007825032230

  Nuclear repulsion =  353.765625295187931
  Reference energy  = -382.885615680974183

  ==> Basis Set <==

  Basis Set: AUG-CC-PVTZ
    Blend: AUG-CC-PVTZ
    Number of shells: 202
    Number of basis functions: 598
    Number of Cartesian functions: 690
    Spherical Harmonics?: true
    Max angular momentum: 3

  ==> CGRSolver (by Rob Parrish) <==

   Number of roots    =         1
   Preconditioning    =    JACOBI
   Convergence cutoff =     1E-06
   Maximum iterations =       100

  ==> CPHFRHamiltonian (by Rob Parrish) <== 

  ==> MemDFJK: Density-Fitted J/K Matrices <==

    J tasked:                   Yes
    K tasked:                   Yes
    wK tasked:                   No
    OpenMP threads:              32
    Memory [MiB]:             22888
    Algorithm:                 Core
    Schwarz Cutoff:           1E-12
    Mask sparsity (%):       7.6431
    Fitting Condition:        1E-10

   => Auxiliary Basis Set <=

  Basis Set: (AUG-CC-PVTZ AUX)
    Blend: AUG-CC-PVTZ-JKFIT
    Number of shells: 380
    Number of basis functions: 1292
    Number of Cartesian functions: 1598
    Spherical Harmonics?: true
    Max angular momentum: 4

  ==> CPHF Iterations <==

  => Iterations <=

             Iter  Converged  Remaining    Residual
  CGR           1          0          1   1.123E-01
  CGR           2          0          1   3.162E-02
  CGR           3          0          1   9.769E-03
  CGR           4          0          1   3.258E-03
  CGR           5          0          1   1.142E-03
  CGR           6          0          1   4.264E-04
  CGR           7          0          1   1.205E-04
  CGR           8          0          1   4.351E-05
  CGR           9          0          1   1.291E-05
  CGR          10          0          1   4.020E-06
  CGR          11          0          1   2.073E-06
  CGR          12          0          1   1.055E-06
  CGR          13          1          0   3.121E-07

    CGRSolver converged.

	-----------------------------------------------------------
	 ==================> DF-MP2 Energies <==================== 
	-----------------------------------------------------------
	 Reference Energy          =    -382.8856156809741833 [Eh]
	 Singles Energy            =      -0.0000000000000000 [Eh]
	 Same-Spin Energy          =      -0.3793790652558753 [Eh]
	 Opposite-Spin Energy      =      -1.2540522706249402 [Eh]
	 Correlation Energy        =      -1.6334313358808155 [Eh]
	 Total Energy              =    -384.5190470168549837 [Eh]
	-----------------------------------------------------------
	 ================> DF-SCS-MP2 Energies <================== 
	-----------------------------------------------------------
	 SCS Same-Spin Scale       =       0.3333333333333333 [-]
	 SCS Opposite-Spin Scale   =       1.2000000000000000 [-]
	 SCS Same-Spin Energy      =      -0.1264596884186251 [Eh]
	 SCS Opposite-Spin Energy  =      -1.5048627247499282 [Eh]
	 SCS Correlation Energy    =      -1.6313224131685533 [Eh]
	 SCS Total Energy          =    -384.5169380941427448 [Eh]
	-----------------------------------------------------------



Properties will be evaluated at  -0.000000,  -0.000000,   0.000000 [a0]

Properties computed using the MP2 density matrix

  Nuclear Dipole Moment: [e a0]
     X:     4.6062      Y:    -7.4202      Z:    -0.0680

  Electronic Dipole Moment: [e a0]
     X:    -4.1593      Y:     5.3967      Z:     0.0758

  Dipole Moment: [e a0]
     X:     0.4470      Y:    -2.0234      Z:     0.0077     Total:     2.0722

  Dipole Moment: [D]
     X:     1.1361      Y:    -5.1430      Z:     0.0197     Total:     5.2670


*** tstop() called on c403-114.stampede2.tacc.utexas.edu at Sun Feb 28 00:38:30 2021
Module time:
	user time   =    1299.07 seconds =      21.65 minutes
	system time =      52.76 seconds =       0.88 minutes
	total time  =        152 seconds =       2.53 minutes
Total time:
	user time   =    1752.26 seconds =      29.20 minutes
	system time =      89.77 seconds =       1.50 minutes
	total time  =        180 seconds =       3.00 minutes

    Psi4 stopped on: Sunday, 28 February 2021 12:38AM
    Psi4 wall time for execution: 0:03:00.82

*** Psi4 exiting successfully. Buy a developer a beer!
