
    -----------------------------------------------------------------------
          Psi4: An Open-Source Ab Initio Electronic Structure Package
                               Psi4 1.3.2 release

                         Git: Rev {HEAD} ecbda83 


    R. M. Parrish, L. A. Burns, D. G. A. Smith, A. C. Simmonett,
    A. E. DePrince III, E. G. Hohenstein, U. Bozkaya, A. Yu. Sokolov,
    R. Di Remigio, R. M. Richard, J. F. Gonthier, A. M. James,
    H. R. McAlexander, A. Kumar, M. Saitow, X. Wang, B. P. Pritchard,
    P. Verma, H. F. Schaefer III, K. Patkowski, R. A. King, E. F. Valeev,
    F. A. Evangelista, J. M. Turney, T. D. Crawford, and C. D. Sherrill,
    J. Chem. Theory Comput. 13(7) pp 3185--3197 (2017).
    (doi: 10.1021/acs.jctc.7b00174)


                         Additional Contributions by
    P. Kraus, H. Kruse, M. H. Lechner, M. C. Schieber, R. A. Shaw,
    A. Alenaizan, R. Galvelis, Z. L. Glick, S. Lehtola, and J. P. Misiewicz

    -----------------------------------------------------------------------


    Psi4 started on: Friday, 06 November 2020 11:31AM

    Process ID: 95984
    Host:       node96.bme.utexas.edu
    PSIDATADIR: /home/xy3866/psi4conda/share/psi4
    Memory:     500.0 MiB
    Threads:    8
    
  ==> Input File <==

--------------------------------------------------------------------------
#psi4
#
memory 32 gb

molecule  {
0 1
  P        2.6114510     0.0433530    -0.1897960
  O       -0.7415730    -0.5166550    -0.8759300
  O       -3.1471200     1.7525200     0.1857420
  O       -3.4791247    -0.5136866    -1.0016010
  O       -0.9262260    -1.6975490     1.1507850
  O        1.5012860     1.2233130    -0.3203930
  O        1.7414800    -1.2994450    -0.3567160
  O        2.9590140    -0.0653000     1.3909990
  O        3.7753660     0.2843820    -1.0654240
  C       -2.1786680     0.7692630     0.5423480
  C       -0.8949230     0.8134730    -0.3165700
  C       -2.7827930    -0.6059770     0.2231310
  C       -1.5369320    -1.4089660    -0.0835960
  C        0.3225300     1.1924080     0.5079200
  H       -1.9376650     0.8286140     1.6117160
  H       -1.0169450     1.4955040    -1.1629930
  H       -3.3413290    -1.0227480     1.0706890
  H       -1.7077950    -2.2947630    -0.7028010
  H        0.4416350     0.4968690     1.3430810
  H        0.1975530     2.2044650     0.9092850
  H       -2.8909940     2.6048820     0.5755830
  H       -4.0423210     0.2940670    -0.9260900
  H       -0.0419210    -2.0739930     0.9730340
  H        0.9072950    -1.0817680    -0.8531670
  H        3.8470510     0.3069850     1.5449930
units angstrom
no_reorient  #important for SAPT in psi4, default
symmetry c1  #important for SAPT in psi4, default
}

set PROPERTIES_ORIGIN ["COM"]
properties('MP2/aug-cc-pvtz', properties = ['dipole'])
--------------------------------------------------------------------------

  Memory set to  29.802 GiB by Python driver.
    SCF Algorithm Type (re)set to DF.

*** tstart() called on node96.bme.utexas.edu
*** at Fri Nov  6 11:31:53 2020

   => Loading Basis Set <=

    Name: AUG-CC-PVTZ
    Role: ORBITAL
    Keyword: BASIS
    atoms 1     entry P          line   820 file /home/xy3866/psi4conda/share/psi4/basis/aug-cc-pvtz.gbs 
    atoms 2-9   entry O          line   327 file /home/xy3866/psi4conda/share/psi4/basis/aug-cc-pvtz.gbs 
    atoms 10-14 entry C          line   235 file /home/xy3866/psi4conda/share/psi4/basis/aug-cc-pvtz.gbs 
    atoms 15-25 entry H          line    36 file /home/xy3866/psi4conda/share/psi4/basis/aug-cc-pvtz.gbs 


         ---------------------------------------------------------
                                   SCF
               by Justin Turney, Rob Parrish, Andy Simmonett
                          and Daniel G. A. Smith
                              RHF Reference
                        8 Threads,  30517 MiB Core
         ---------------------------------------------------------

  ==> Geometry <==

    Molecular point group: c1
    Full point group: C1

    Geometry (in Angstrom), charge = 0, multiplicity = 1:

       Center              X                  Y                   Z               Mass       
    ------------   -----------------  -----------------  -----------------  -----------------
         P            2.553639879777     0.048036990884    -0.166935557989    30.973761998420
         O           -0.799384120223    -0.511971009116    -0.853069557989    15.994914619570
         O           -3.204931120223     1.757203990884     0.208602442011    15.994914619570
         O           -3.536935820223    -0.509002609116    -0.978740557989    15.994914619570
         O           -0.984037120223    -1.692865009116     1.173645442011    15.994914619570
         O            1.443474879777     1.227996990884    -0.297532557989    15.994914619570
         O            1.683668879777    -1.294761009116    -0.333855557989    15.994914619570
         O            2.901202879777    -0.060616009116     1.413859442011    15.994914619570
         O            3.717554879777     0.289065990884    -1.042563557989    15.994914619570
         C           -2.236479120223     0.773946990884     0.565208442011    12.000000000000
         C           -0.952734120223     0.818156990884    -0.293709557989    12.000000000000
         C           -2.840604120223    -0.601293009116     0.245991442011    12.000000000000
         C           -1.594743120223    -1.404282009116    -0.060735557989    12.000000000000
         C            0.264718879777     1.197091990884     0.530780442011    12.000000000000
         H           -1.995476120223     0.833297990884     1.634576442011     1.007825032230
         H           -1.074756120223     1.500187990884    -1.140132557989     1.007825032230
         H           -3.399140120223    -1.018064009116     1.093549442011     1.007825032230
         H           -1.765606120223    -2.290079009116    -0.679940557989     1.007825032230
         H            0.383823879777     0.501552990884     1.365941442011     1.007825032230
         H            0.139741879777     2.209148990884     0.932145442011     1.007825032230
         H           -2.948805120223     2.609565990884     0.598443442011     1.007825032230
         H           -4.100132120223     0.298750990884    -0.903229557989     1.007825032230
         H           -0.099732120223    -2.069309009116     0.995894442011     1.007825032230
         H            0.849483879777    -1.077084009116    -0.830306557989     1.007825032230
         H            3.789239879777     0.311668990884     1.567853442011     1.007825032230

  Running in c1 symmetry.

  Rotational constants: A =      0.04565  B =      0.01194  C =      0.01102 [cm^-1]
  Rotational constants: A =   1368.48061  B =    357.81968  C =    330.29496 [MHz]
  Nuclear repulsion = 1217.450606562630810

  Charge       = 0
  Multiplicity = 1
  Electrons    = 120
  Nalpha       = 60
  Nbeta        = 60

  ==> Algorithm <==

  SCF Algorithm Type is DF.
  DIIS enabled.
  MOM disabled.
  Fractional occupation disabled.
  Guess Type is SAD.
  Energy threshold   = 1.00e-10
  Density threshold  = 1.00e-10
  Integral threshold = 0.00e+00

  ==> Primary Basis <==

  Basis Set: AUG-CC-PVTZ
    Blend: AUG-CC-PVTZ
    Number of shells: 297
    Number of basis function: 901
    Number of Cartesian functions: 1049
    Spherical Harmonics?: true
    Max angular momentum: 3

   => Loading Basis Set <=

    Name: (AUG-CC-PVTZ AUX)
    Role: JKFIT
    Keyword: DF_BASIS_SCF
    atoms 1     entry P          line   644 file /home/xy3866/psi4conda/share/psi4/basis/aug-cc-pvtz-jkfit.gbs 
    atoms 2-9   entry O          line   286 file /home/xy3866/psi4conda/share/psi4/basis/aug-cc-pvtz-jkfit.gbs 
    atoms 10-14 entry C          line   162 file /home/xy3866/psi4conda/share/psi4/basis/aug-cc-pvtz-jkfit.gbs 
    atoms 15-25 entry H          line    70 file /home/xy3866/psi4conda/share/psi4/basis/aug-cc-pvtz-jkfit.gbs 

  ==> Pre-Iterations <==

   -------------------------------------------------------
    Irrep   Nso     Nmo     Nalpha   Nbeta   Ndocc  Nsocc
   -------------------------------------------------------
     A        901     901       0       0       0       0
   -------------------------------------------------------
    Total     901     901      60      60      60       0
   -------------------------------------------------------

  ==> Integral Setup <==

  DFHelper Memory: AOs need 11.187 GiB; user supplied 22.352 GiB. Using in-core AOs.

  ==> MemDFJK: Density-Fitted J/K Matrices <==

    J tasked:                   Yes
    K tasked:                   Yes
    wK tasked:                   No
    OpenMP threads:               8
    Memory [MiB]:             22888
    Algorithm:                 Disk
    Schwarz Cutoff:           1E-12
    Mask sparsity (%):       9.6970
    Fitting Condition:        1E-10

   => Auxiliary Basis Set <=

  Basis Set: (AUG-CC-PVTZ AUX)
    Blend: AUG-CC-PVTZ-JKFIT
    Number of shells: 586
    Number of basis function: 2004
    Number of Cartesian functions: 2488
    Spherical Harmonics?: true
    Max angular momentum: 4

  Minimum eigenvalue in the overlap matrix is 1.2080463985E-06.
  Using Symmetric Orthogonalization.

  SCF Guess: Superposition of Atomic Densities via on-the-fly atomic UHF.

  ==> Iterations <==

                           Total Energy        Delta E     RMS |[F,P]|

   @DF-RHF iter SAD: -1135.06020929989404   -1.13506e+03   0.00000e+00 
   @DF-RHF iter   1: -1135.35842657347303   -2.98217e-01   1.14731e-03 DIIS
   @DF-RHF iter   2: -1135.69228721805712   -3.33861e-01   6.86060e-04 DIIS
   @DF-RHF iter   3: -1135.81433630029687   -1.22049e-01   1.03095e-04 DIIS
   @DF-RHF iter   4: -1135.81928876351935   -4.95246e-03   4.22707e-05 DIIS
   @DF-RHF iter   5: -1135.81992968630038   -6.40923e-04   1.01193e-05 DIIS
   @DF-RHF iter   6: -1135.81998273469503   -5.30484e-05   2.75562e-06 DIIS
   @DF-RHF iter   7: -1135.81998864340812   -5.90871e-06   1.00427e-06 DIIS
   @DF-RHF iter   8: -1135.81998932060378   -6.77196e-07   2.94895e-07 DIIS
   @DF-RHF iter   9: -1135.81998938872562   -6.81218e-08   8.48335e-08 DIIS
   @DF-RHF iter  10: -1135.81998939346431   -4.73869e-09   2.73678e-08 DIIS
   @DF-RHF iter  11: -1135.81998939397158   -5.07271e-10   7.77572e-09 DIIS
   @DF-RHF iter  12: -1135.81998939401660   -4.50200e-11   2.91001e-09 DIIS
   @DF-RHF iter  13: -1135.81998939401751   -9.09495e-13   8.38785e-10 DIIS
   @DF-RHF iter  14: -1135.81998939402069   -3.18323e-12   2.99153e-10 DIIS
   @DF-RHF iter  15: -1135.81998939401706    3.63798e-12   1.13166e-10 DIIS
   @DF-RHF iter  16: -1135.81998939401865   -1.59162e-12   4.26322e-11 DIIS
  Energy and wave function converged.


  ==> Post-Iterations <==

    Orbital Energies [Eh]
    ---------------------

    Doubly Occupied:                                                      

       1A    -80.114322     2A    -20.610653     3A    -20.604900  
       4A    -20.604293     5A    -20.601906     6A    -20.597746  
       7A    -20.593992     8A    -20.576537     9A    -20.514040  
      10A    -11.361380    11A    -11.321504    12A    -11.320276  
      13A    -11.316861    14A    -11.307561    15A     -7.629271  
      16A     -5.527691    17A     -5.527609    18A     -5.526110  
      19A     -1.462452    20A     -1.447698    21A     -1.410575  
      22A     -1.389981    23A     -1.377492    24A     -1.372908  
      25A     -1.366786    26A     -1.295375    27A     -1.082783  
      28A     -1.045730    29A     -0.945876    30A     -0.857162  
      31A     -0.840408    32A     -0.828121    33A     -0.771140  
      34A     -0.758468    35A     -0.747221    36A     -0.733192  
      37A     -0.716111    38A     -0.691920    39A     -0.685210  
      40A     -0.665418    41A     -0.651890    42A     -0.645648  
      43A     -0.631652    44A     -0.614268    45A     -0.600148  
      46A     -0.596143    47A     -0.581316    48A     -0.575916  
      49A     -0.568728    50A     -0.558328    51A     -0.542908  
      52A     -0.531177    53A     -0.525106    54A     -0.511657  
      55A     -0.488858    56A     -0.487821    57A     -0.474844  
      58A     -0.470338    59A     -0.465948    60A     -0.448699  

    Virtual:                                                              

      61A      0.015100    62A      0.029765    63A      0.030678  
      64A      0.034991    65A      0.043341    66A      0.048980  
      67A      0.051017    68A      0.054587    69A      0.060902  
      70A      0.067343    71A      0.080344    72A      0.087675  
      73A      0.092969    74A      0.095598    75A      0.103298  
      76A      0.105721    77A      0.107774    78A      0.111668  
      79A      0.116233    80A      0.120526    81A      0.123811  
      82A      0.127825    83A      0.130841    84A      0.136399  
      85A      0.139894    86A      0.143456    87A      0.150335  
      88A      0.154971    89A      0.160552    90A      0.163203  
      91A      0.167294    92A      0.173464    93A      0.180677  
      94A      0.182749    95A      0.185121    96A      0.193366  
      97A      0.204842    98A      0.208521    99A      0.214950  
     100A      0.218687   101A      0.224158   102A      0.225865  
     103A      0.233099   104A      0.240014   105A      0.244013  
     106A      0.246863   107A      0.247833   108A      0.252518  
     109A      0.255300   110A      0.257364   111A      0.262394  
     112A      0.265605   113A      0.267945   114A      0.271424  
     115A      0.274762   116A      0.276579   117A      0.280764  
     118A      0.282607   119A      0.286545   120A      0.291325  
     121A      0.294350   122A      0.297379   123A      0.299726  
     124A      0.303887   125A      0.308346   126A      0.311591  
     127A      0.314001   128A      0.316259   129A      0.325552  
     130A      0.327039   131A      0.336340   132A      0.344138  
     133A      0.347433   134A      0.350569   135A      0.356464  
     136A      0.364088   137A      0.366054   138A      0.370220  
     139A      0.376675   140A      0.379591   141A      0.382103  
     142A      0.388067   143A      0.390051   144A      0.397871  
     145A      0.402110   146A      0.403927   147A      0.407791  
     148A      0.408812   149A      0.411944   150A      0.426330  
     151A      0.429148   152A      0.432541   153A      0.434002  
     154A      0.440723   155A      0.442745   156A      0.447853  
     157A      0.454116   158A      0.457075   159A      0.459967  
     160A      0.462238   161A      0.463189   162A      0.468252  
     163A      0.474568   164A      0.478587   165A      0.480636  
     166A      0.485304   167A      0.486152   168A      0.491731  
     169A      0.493656   170A      0.499671   171A      0.504868  
     172A      0.509093   173A      0.513926   174A      0.515935  
     175A      0.523632   176A      0.527818   177A      0.532963  
     178A      0.534332   179A      0.539427   180A      0.542408  
     181A      0.546925   182A      0.553391   183A      0.555947  
     184A      0.559036   185A      0.560093   186A      0.564419  
     187A      0.574113   188A      0.575492   189A      0.580838  
     190A      0.583923   191A      0.588917   192A      0.596261  
     193A      0.601640   194A      0.604854   195A      0.606499  
     196A      0.611507   197A      0.622873   198A      0.625879  
     199A      0.629111   200A      0.636377   201A      0.641430  
     202A      0.644460   203A      0.649025   204A      0.653821  
     205A      0.655262   206A      0.664636   207A      0.670731  
     208A      0.677592   209A      0.687402   210A      0.690552  
     211A      0.693218   212A      0.701925   213A      0.706353  
     214A      0.707985   215A      0.716258   216A      0.724562  
     217A      0.729211   218A      0.736365   219A      0.742183  
     220A      0.751711   221A      0.761408   222A      0.762670  
     223A      0.768992   224A      0.774837   225A      0.780724  
     226A      0.789455   227A      0.792222   228A      0.799596  
     229A      0.806358   230A      0.816014   231A      0.822530  
     232A      0.825704   233A      0.848921   234A      0.852708  
     235A      0.855812   236A      0.861113   237A      0.872574  
     238A      0.874382   239A      0.883065   240A      0.884243  
     241A      0.893454   242A      0.894345   243A      0.902658  
     244A      0.905717   245A      0.911905   246A      0.913526  
     247A      0.917906   248A      0.924976   249A      0.935480  
     250A      0.943756   251A      0.944586   252A      0.950630  
     253A      0.954431   254A      0.957693   255A      0.962043  
     256A      0.968922   257A      0.971305   258A      0.978560  
     259A      0.983268   260A      0.987043   261A      0.990588  
     262A      1.001709   263A      1.007332   264A      1.011924  
     265A      1.016944   266A      1.020497   267A      1.024110  
     268A      1.026002   269A      1.029435   270A      1.032551  
     271A      1.041326   272A      1.043929   273A      1.051879  
     274A      1.057043   275A      1.059320   276A      1.062875  
     277A      1.069337   278A      1.077192   279A      1.083392  
     280A      1.085200   281A      1.087598   282A      1.092411  
     283A      1.096578   284A      1.101580   285A      1.104404  
     286A      1.106112   287A      1.112394   288A      1.121262  
     289A      1.122960   290A      1.127587   291A      1.133480  
     292A      1.134624   293A      1.142622   294A      1.149841  
     295A      1.159891   296A      1.166583   297A      1.173311  
     298A      1.175864   299A      1.178484   300A      1.183977  
     301A      1.186027   302A      1.190357   303A      1.196276  
     304A      1.201429   305A      1.207117   306A      1.209965  
     307A      1.216998   308A      1.221010   309A      1.230456  
     310A      1.233632   311A      1.246586   312A      1.256599  
     313A      1.258974   314A      1.263505   315A      1.265784  
     316A      1.269978   317A      1.280720   318A      1.287836  
     319A      1.290630   320A      1.302279   321A      1.309023  
     322A      1.314138   323A      1.315714   324A      1.325295  
     325A      1.333949   326A      1.336959   327A      1.343874  
     328A      1.348608   329A      1.355411   330A      1.363160  
     331A      1.370521   332A      1.372155   333A      1.379528  
     334A      1.391924   335A      1.404657   336A      1.411121  
     337A      1.412800   338A      1.424105   339A      1.434389  
     340A      1.437984   341A      1.440470   342A      1.448799  
     343A      1.459341   344A      1.461658   345A      1.466365  
     346A      1.470030   347A      1.483409   348A      1.490185  
     349A      1.491508   350A      1.503403   351A      1.509703  
     352A      1.517665   353A      1.528769   354A      1.533779  
     355A      1.537342   356A      1.541438   357A      1.547800  
     358A      1.551726   359A      1.560873   360A      1.564977  
     361A      1.574423   362A      1.576553   363A      1.581259  
     364A      1.590960   365A      1.595981   366A      1.598381  
     367A      1.612404   368A      1.617202   369A      1.624555  
     370A      1.627492   371A      1.637517   372A      1.650374  
     373A      1.653733   374A      1.656875   375A      1.674905  
     376A      1.678802   377A      1.682170   378A      1.694932  
     379A      1.697527   380A      1.703073   381A      1.713905  
     382A      1.717060   383A      1.720951   384A      1.728315  
     385A      1.734689   386A      1.738212   387A      1.743530  
     388A      1.748463   389A      1.757384   390A      1.766991  
     391A      1.773436   392A      1.779397   393A      1.786897  
     394A      1.796864   395A      1.799412   396A      1.807267  
     397A      1.817087   398A      1.818255   399A      1.824258  
     400A      1.828451   401A      1.838629   402A      1.841399  
     403A      1.854306   404A      1.857193   405A      1.861054  
     406A      1.872233   407A      1.877929   408A      1.891941  
     409A      1.900674   410A      1.908575   411A      1.910563  
     412A      1.921446   413A      1.922045   414A      1.927986  
     415A      1.941391   416A      1.942692   417A      1.946406  
     418A      1.957529   419A      1.971089   420A      1.975817  
     421A      1.980477   422A      1.980981   423A      1.999029  
     424A      2.003216   425A      2.010346   426A      2.015647  
     427A      2.017513   428A      2.037636   429A      2.041561  
     430A      2.047652   431A      2.050574   432A      2.060300  
     433A      2.068137   434A      2.075948   435A      2.090076  
     436A      2.095526   437A      2.101151   438A      2.104496  
     439A      2.113010   440A      2.119391   441A      2.121186  
     442A      2.132804   443A      2.141798   444A      2.152888  
     445A      2.157571   446A      2.164502   447A      2.169711  
     448A      2.185808   449A      2.188943   450A      2.190230  
     451A      2.212413   452A      2.223830   453A      2.237802  
     454A      2.248285   455A      2.251277   456A      2.257490  
     457A      2.263512   458A      2.272844   459A      2.285727  
     460A      2.295983   461A      2.301754   462A      2.306367  
     463A      2.323488   464A      2.333071   465A      2.341388  
     466A      2.346421   467A      2.355660   468A      2.372214  
     469A      2.391292   470A      2.393201   471A      2.400482  
     472A      2.402255   473A      2.409541   474A      2.421213  
     475A      2.429733   476A      2.444478   477A      2.450756  
     478A      2.465603   479A      2.471393   480A      2.480521  
     481A      2.489947   482A      2.495112   483A      2.505146  
     484A      2.515489   485A      2.523339   486A      2.529905  
     487A      2.534062   488A      2.545039   489A      2.556641  
     490A      2.567496   491A      2.574512   492A      2.577659  
     493A      2.586804   494A      2.596591   495A      2.600567  
     496A      2.615690   497A      2.624590   498A      2.627214  
     499A      2.642436   500A      2.653428   501A      2.661995  
     502A      2.671399   503A      2.682571   504A      2.685826  
     505A      2.691198   506A      2.700085   507A      2.708594  
     508A      2.720514   509A      2.720911   510A      2.730245  
     511A      2.743466   512A      2.753266   513A      2.764988  
     514A      2.780544   515A      2.783748   516A      2.788957  
     517A      2.799178   518A      2.812292   519A      2.827754  
     520A      2.834887   521A      2.847730   522A      2.854225  
     523A      2.868056   524A      2.879457   525A      2.884253  
     526A      2.886055   527A      2.893748   528A      2.899376  
     529A      2.931085   530A      2.935926   531A      2.951524  
     532A      2.964293   533A      2.967994   534A      2.969206  
     535A      2.982310   536A      2.985173   537A      2.990418  
     538A      3.004219   539A      3.028976   540A      3.033409  
     541A      3.037790   542A      3.048052   543A      3.069295  
     544A      3.070695   545A      3.087805   546A      3.094746  
     547A      3.102720   548A      3.105631   549A      3.116868  
     550A      3.124920   551A      3.131237   552A      3.147204  
     553A      3.157204   554A      3.160878   555A      3.174749  
     556A      3.176268   557A      3.195029   558A      3.204940  
     559A      3.209277   560A      3.231395   561A      3.239123  
     562A      3.245851   563A      3.254550   564A      3.257785  
     565A      3.277692   566A      3.279084   567A      3.293085  
     568A      3.304808   569A      3.312104   570A      3.328893  
     571A      3.342123   572A      3.344607   573A      3.358774  
     574A      3.366236   575A      3.381168   576A      3.393914  
     577A      3.402277   578A      3.424664   579A      3.439035  
     580A      3.447609   581A      3.471609   582A      3.483550  
     583A      3.510622   584A      3.518724   585A      3.525440  
     586A      3.535051   587A      3.551435   588A      3.564761  
     589A      3.590783   590A      3.595108   591A      3.616889  
     592A      3.652287   593A      3.658546   594A      3.671721  
     595A      3.685428   596A      3.704062   597A      3.727894  
     598A      3.742218   599A      3.752395   600A      3.764237  
     601A      3.784134   602A      3.799028   603A      3.810011  
     604A      3.828779   605A      3.835114   606A      3.846108  
     607A      3.853047   608A      3.873581   609A      3.901579  
     610A      3.909508   611A      3.919158   612A      3.924457  
     613A      3.928702   614A      3.942860   615A      3.962398  
     616A      3.977191   617A      3.990656   618A      4.009533  
     619A      4.024089   620A      4.026718   621A      4.034815  
     622A      4.046406   623A      4.050128   624A      4.076057  
     625A      4.085814   626A      4.094265   627A      4.113714  
     628A      4.119370   629A      4.122884   630A      4.150686  
     631A      4.162651   632A      4.170387   633A      4.186147  
     634A      4.194310   635A      4.199876   636A      4.209354  
     637A      4.229822   638A      4.242695   639A      4.258422  
     640A      4.262246   641A      4.269679   642A      4.276988  
     643A      4.291111   644A      4.313202   645A      4.320156  
     646A      4.325000   647A      4.334104   648A      4.347697  
     649A      4.362011   650A      4.372107   651A      4.385241  
     652A      4.393282   653A      4.404815   654A      4.417805  
     655A      4.420158   656A      4.436456   657A      4.439597  
     658A      4.446230   659A      4.460221   660A      4.464693  
     661A      4.479259   662A      4.500617   663A      4.507192  
     664A      4.513236   665A      4.529230   666A      4.537939  
     667A      4.561289   668A      4.565201   669A      4.571422  
     670A      4.590567   671A      4.598397   672A      4.603132  
     673A      4.611380   674A      4.632194   675A      4.653722  
     676A      4.656591   677A      4.670447   678A      4.675311  
     679A      4.691758   680A      4.709459   681A      4.716727  
     682A      4.725628   683A      4.734614   684A      4.741965  
     685A      4.766282   686A      4.781005   687A      4.789335  
     688A      4.804915   689A      4.811066   690A      4.828794  
     691A      4.835447   692A      4.849593   693A      4.854151  
     694A      4.882105   695A      4.882816   696A      4.916107  
     697A      4.921777   698A      4.929865   699A      4.942471  
     700A      4.950269   701A      4.979364   702A      4.994836  
     703A      5.009864   704A      5.022728   705A      5.037090  
     706A      5.047887   707A      5.063918   708A      5.077622  
     709A      5.092920   710A      5.102578   711A      5.112767  
     712A      5.115977   713A      5.144135   714A      5.147657  
     715A      5.162098   716A      5.173673   717A      5.183644  
     718A      5.209845   719A      5.220569   720A      5.236745  
     721A      5.260225   722A      5.264968   723A      5.277601  
     724A      5.293003   725A      5.298166   726A      5.316491  
     727A      5.331265   728A      5.340491   729A      5.354008  
     730A      5.360542   731A      5.372019   732A      5.390584  
     733A      5.395409   734A      5.416346   735A      5.424396  
     736A      5.429764   737A      5.439829   738A      5.454815  
     739A      5.468775   740A      5.490082   741A      5.494080  
     742A      5.506526   743A      5.524609   744A      5.532684  
     745A      5.539432   746A      5.568879   747A      5.587589  
     748A      5.594487   749A      5.626578   750A      5.634076  
     751A      5.639014   752A      5.680338   753A      5.694959  
     754A      5.716255   755A      5.724789   756A      5.749413  
     757A      5.770625   758A      5.779467   759A      5.804237  
     760A      5.809722   761A      5.821620   762A      5.838608  
     763A      5.844943   764A      5.872757   765A      5.891740  
     766A      5.933148   767A      5.944935   768A      5.976648  
     769A      6.014989   770A      6.032955   771A      6.073061  
     772A      6.110228   773A      6.172004   774A      6.218048  
     775A      6.276027   776A      6.317086   777A      6.373578  
     778A      6.397988   779A      6.411980   780A      6.471235  
     781A      6.484811   782A      6.537055   783A      6.657343  
     784A      6.687334   785A      6.710596   786A      6.728297  
     787A      6.738865   788A      6.754088   789A      6.775660  
     790A      6.788638   791A      6.825968   792A      6.836730  
     793A      6.844602   794A      6.853616   795A      6.860701  
     796A      6.866372   797A      6.884621   798A      6.889086  
     799A      6.914308   800A      6.925326   801A      6.934539  
     802A      6.942934   803A      6.957458   804A      6.968827  
     805A      6.973896   806A      6.988731   807A      6.997584  
     808A      7.007719   809A      7.027904   810A      7.031070  
     811A      7.036424   812A      7.062278   813A      7.087068  
     814A      7.107460   815A      7.119910   816A      7.140526  
     817A      7.149261   818A      7.172632   819A      7.180369  
     820A      7.199273   821A      7.220938   822A      7.235352  
     823A      7.254934   824A      7.260141   825A      7.274350  
     826A      7.302433   827A      7.308874   828A      7.326537  
     829A      7.328028   830A      7.345626   831A      7.358844  
     832A      7.363900   833A      7.376030   834A      7.379114  
     835A      7.406293   836A      7.406551   837A      7.422329  
     838A      7.429277   839A      7.435930   840A      7.452176  
     841A      7.463212   842A      7.483286   843A      7.488095  
     844A      7.506969   845A      7.520146   846A      7.544361  
     847A      7.553682   848A      7.561333   849A      7.599758  
     850A      7.604326   851A      7.623270   852A      7.632920  
     853A      7.639096   854A      7.670826   855A      7.675839  
     856A      7.699335   857A      7.707773   858A      7.731866  
     859A      7.737103   860A      7.777342   861A      7.813602  
     862A      7.830403   863A      7.842394   864A      7.857445  
     865A      7.875732   866A      7.907816   867A      7.924260  
     868A      7.946278   869A      7.963123   870A      8.006164  
     871A      8.028196   872A      8.066524   873A      8.082760  
     874A      8.110329   875A      8.113767   876A      8.130008  
     877A      8.204700   878A      8.279453   879A      8.325360  
     880A      8.343701   881A      8.357556   882A      8.402404  
     883A      8.506133   884A      8.531272   885A      8.642060  
     886A      8.706316   887A      8.764930   888A     11.108558  
     889A     12.835571   890A     15.182430   891A     15.685839  
     892A     16.192695   893A     16.645374   894A     16.723720  
     895A     17.042418   896A     17.792800   897A     18.825813  
     898A     18.972375   899A     19.504573   900A     20.094054  
     901A     20.452127  

    Final Occupation by Irrep:
              A 
    DOCC [    60 ]

  @DF-RHF Final Energy: -1135.81998939401865

   => Energetics <=

    Nuclear Repulsion Energy =           1217.4506065626308100
    One-Electron Energy =               -3988.3010561327450887
    Two-Electron Energy =                1635.0304601760958576
    Total Energy =                      -1135.8199893940186485

Computation Completed

*** tstop() called on node96.bme.utexas.edu at Fri Nov  6 11:36:53 2020
Module time:
	user time   =     834.93 seconds =      13.92 minutes
	system time =      78.56 seconds =       1.31 minutes
	total time  =        300 seconds =       5.00 minutes
Total time:
	user time   =     834.93 seconds =      13.92 minutes
	system time =      78.56 seconds =       1.31 minutes
	total time  =        300 seconds =       5.00 minutes
   => Loading Basis Set <=

    Name: (AUG-CC-PVTZ AUX)
    Role: RIFIT
    Keyword: DF_BASIS_MP2
    atoms 1     entry P          line   590 file /home/xy3866/psi4conda/share/psi4/basis/aug-cc-pvtz-ri.gbs 
    atoms 2-9   entry O          line   264 file /home/xy3866/psi4conda/share/psi4/basis/aug-cc-pvtz-ri.gbs 
    atoms 10-14 entry C          line   148 file /home/xy3866/psi4conda/share/psi4/basis/aug-cc-pvtz-ri.gbs 
    atoms 15-25 entry H          line    30 file /home/xy3866/psi4conda/share/psi4/basis/aug-cc-pvtz-ri.gbs 


*** tstart() called on node96.bme.utexas.edu
*** at Fri Nov  6 11:36:53 2020


  //>>>>>>>>>>>>>>>>>>>>>>>>>>>>>>>>>>>//
  //               DFMP2               //
  //<<<<<<<<<<<<<<<<<<<<<<<<<<<<<<<<<<<//

	 --------------------------------------------------------
	                          DF-MP2                         
	      2nd-Order Density-Fitted Moller-Plesset Theory     
	              RMP2 Wavefunction,   8 Threads             
	                                                         
	        Rob Parrish, Justin Turney, Andy Simmonett,      
	           Ed Hohenstein, and C. David Sherrill          
	 --------------------------------------------------------

   => Auxiliary Basis Set <=

  Basis Set: (AUG-CC-PVTZ AUX)
    Blend: AUG-CC-PVTZ-RI
    Number of shells: 555
    Number of basis function: 2031
    Number of Cartesian functions: 2564
    Spherical Harmonics?: true
    Max angular momentum: 4

	 --------------------------------------------------------
	                 NBF =   901, NAUX =  2031
	 --------------------------------------------------------
	   CLASS    FOCC     OCC    AOCC    AVIR     VIR    FVIR
	   PAIRS       0      60      60     841     841       0
	 --------------------------------------------------------

  DFHelper Memory: AOs need 11.187 GiB; user supplied 22.352 GiB. Using in-core AOs.


         ------------------------------------------------------------
                                     CPHF                           
                                  Rob Parrish                       
         ------------------------------------------------------------

  ==> Geometry <==

    Molecular point group: c1
    Full point group: C1

    Geometry (in Angstrom), charge = 0, multiplicity = 1:

       Center              X                  Y                   Z               Mass       
    ------------   -----------------  -----------------  -----------------  -----------------
         P            2.553639879777     0.048036990884    -0.166935557989    30.973761998420
         O           -0.799384120223    -0.511971009116    -0.853069557989    15.994914619570
         O           -3.204931120223     1.757203990884     0.208602442011    15.994914619570
         O           -3.536935820223    -0.509002609116    -0.978740557989    15.994914619570
         O           -0.984037120223    -1.692865009116     1.173645442011    15.994914619570
         O            1.443474879777     1.227996990884    -0.297532557989    15.994914619570
         O            1.683668879777    -1.294761009116    -0.333855557989    15.994914619570
         O            2.901202879777    -0.060616009116     1.413859442011    15.994914619570
         O            3.717554879777     0.289065990884    -1.042563557989    15.994914619570
         C           -2.236479120223     0.773946990884     0.565208442011    12.000000000000
         C           -0.952734120223     0.818156990884    -0.293709557989    12.000000000000
         C           -2.840604120223    -0.601293009116     0.245991442011    12.000000000000
         C           -1.594743120223    -1.404282009116    -0.060735557989    12.000000000000
         C            0.264718879777     1.197091990884     0.530780442011    12.000000000000
         H           -1.995476120223     0.833297990884     1.634576442011     1.007825032230
         H           -1.074756120223     1.500187990884    -1.140132557989     1.007825032230
         H           -3.399140120223    -1.018064009116     1.093549442011     1.007825032230
         H           -1.765606120223    -2.290079009116    -0.679940557989     1.007825032230
         H            0.383823879777     0.501552990884     1.365941442011     1.007825032230
         H            0.139741879777     2.209148990884     0.932145442011     1.007825032230
         H           -2.948805120223     2.609565990884     0.598443442011     1.007825032230
         H           -4.100132120223     0.298750990884    -0.903229557989     1.007825032230
         H           -0.099732120223    -2.069309009116     0.995894442011     1.007825032230
         H            0.849483879777    -1.077084009116    -0.830306557989     1.007825032230
         H            3.789239879777     0.311668990884     1.567853442011     1.007825032230

  Nuclear repulsion = 1217.450606562630810
  Reference energy  = -1135.819989394018648

  ==> Basis Set <==

  Basis Set: AUG-CC-PVTZ
    Blend: AUG-CC-PVTZ
    Number of shells: 297
    Number of basis function: 901
    Number of Cartesian functions: 1049
    Spherical Harmonics?: true
    Max angular momentum: 3

  ==> CGRSolver (by Rob Parrish) <==

   Number of roots    =         1
   Preconditioning    =    JACOBI
   Convergence cutoff =     1E-06
   Maximum iterations =       100

  ==> CPHFRHamiltonian (by Rob Parrish) <== 

  ==> MemDFJK: Density-Fitted J/K Matrices <==

    J tasked:                   Yes
    K tasked:                   Yes
    wK tasked:                   No
    OpenMP threads:               8
    Memory [MiB]:             22888
    Algorithm:                 Disk
    Schwarz Cutoff:           1E-12
    Mask sparsity (%):       9.6970
    Fitting Condition:        1E-10

   => Auxiliary Basis Set <=

  Basis Set: (AUG-CC-PVTZ AUX)
    Blend: AUG-CC-PVTZ-JKFIT
    Number of shells: 586
    Number of basis function: 2004
    Number of Cartesian functions: 2488
    Spherical Harmonics?: true
    Max angular momentum: 4

  ==> CPHF Iterations <==

  => Iterations <=

             Iter  Converged  Remaining    Residual
  CGR           1          0          1   8.085E-02
  CGR           2          0          1   1.894E-02
  CGR           3          0          1   7.408E-03
  CGR           4          0          1   2.289E-03
  CGR           5          0          1   7.697E-04
  CGR           6          0          1   2.239E-04
  CGR           7          0          1   7.802E-05
  CGR           8          0          1   2.799E-05
  CGR           9          0          1   9.319E-06
  CGR          10          0          1   2.974E-06
  CGR          11          1          0   9.484E-07

    CGRSolver converged.

	-----------------------------------------------------------
	 ==================> DF-MP2 Energies <==================== 
	-----------------------------------------------------------
	 Reference Energy          =   -1135.8199893940186485 [Eh]
	 Singles Energy            =      -0.0000000000000000 [Eh]
	 Same-Spin Energy          =      -0.8167314932949858 [Eh]
	 Opposite-Spin Energy      =      -2.4226241104557529 [Eh]
	 Correlation Energy        =      -3.2393556037507389 [Eh]
	 Total Energy              =   -1139.0593449977693581 [Eh]
	-----------------------------------------------------------
	 ================> DF-SCS-MP2 Energies <================== 
	-----------------------------------------------------------
	 SCS Same-Spin Scale       =       0.3333333333333333 [-]
	 SCS Opposite-Spin Scale   =       1.2000000000000000 [-]
	 SCS Same-Spin Energy      =      -0.2722438310983286 [Eh]
	 SCS Opposite-Spin Energy  =      -2.9071489325469035 [Eh]
	 SCS Correlation Energy    =      -3.1793927636452324 [Eh]
	 SCS Total Energy          =   -1138.9993821576638311 [Eh]
	-----------------------------------------------------------



Properties will be evaluated at   0.000000,   0.000000,   0.000000 [a0]

Properties computed using the MP2 density matrix

  Nuclear Dipole Moment: [e a0]
     X:   -11.9259      Y:     1.6485      Z:     4.4952

  Electronic Dipole Moment: [e a0]
     X:    10.4726      Y:    -0.7871      Z:    -2.8871

  Dipole Moment: [e a0]
     X:    -1.4533      Y:     0.8613      Z:     1.6081     Total:     2.3324

  Dipole Moment: [D]
     X:    -3.6938      Y:     2.1893      Z:     4.0874     Total:     5.9282


*** tstop() called on node96.bme.utexas.edu at Fri Nov  6 11:51:31 2020
Module time:
	user time   =    3637.16 seconds =      60.62 minutes
	system time =     153.14 seconds =       2.55 minutes
	total time  =        878 seconds =      14.63 minutes
Total time:
	user time   =    4473.19 seconds =      74.55 minutes
	system time =     231.74 seconds =       3.86 minutes
	total time  =       1178 seconds =      19.63 minutes

    Psi4 stopped on: Friday, 06 November 2020 11:51AM
    Psi4 wall time for execution: 0:19:38.85

*** Psi4 exiting successfully. Buy a developer a beer!
