
    -----------------------------------------------------------------------
          Psi4: An Open-Source Ab Initio Electronic Structure Package
                               Psi4 1.3.2 release

                         Git: Rev {HEAD} ecbda83 


    R. M. Parrish, L. A. Burns, D. G. A. Smith, A. C. Simmonett,
    A. E. DePrince III, E. G. Hohenstein, U. Bozkaya, A. Yu. Sokolov,
    R. Di Remigio, R. M. Richard, J. F. Gonthier, A. M. James,
    H. R. McAlexander, A. Kumar, M. Saitow, X. Wang, B. P. Pritchard,
    P. Verma, H. F. Schaefer III, K. Patkowski, R. A. King, E. F. Valeev,
    F. A. Evangelista, J. M. Turney, T. D. Crawford, and C. D. Sherrill,
    J. Chem. Theory Comput. 13(7) pp 3185--3197 (2017).
    (doi: 10.1021/acs.jctc.7b00174)


                         Additional Contributions by
    P. Kraus, H. Kruse, M. H. Lechner, M. C. Schieber, R. A. Shaw,
    A. Alenaizan, R. Galvelis, Z. L. Glick, S. Lehtola, and J. P. Misiewicz

    -----------------------------------------------------------------------


    Psi4 started on: Sunday, 08 November 2020 03:25AM

    Process ID: 47532
    Host:       node96.bme.utexas.edu
    PSIDATADIR: /home/xy3866/psi4conda/share/psi4
    Memory:     500.0 MiB
    Threads:    8
    
  ==> Input File <==

--------------------------------------------------------------------------
#psi4
#
memory 32 gb

molecule  {
0 1
  P        2.6114510     0.0433530    -0.1897960
  O       -0.7415730    -0.5166550    -0.8759300
  O       -3.1471200     1.7525200     0.1857420
  O       -3.5574290    -0.5524670    -0.9560380
  O       -0.9262260    -1.6975490     1.1507850
  O        1.5012860     1.2233130    -0.3203930
  O        1.7414800    -1.2994450    -0.3567160
  O        2.9590140    -0.0653000     1.3909990
  O        3.7753660     0.2843820    -1.0654240
  C       -2.1786680     0.7692630     0.5423480
  C       -0.8949230     0.8134730    -0.3165700
  C       -2.7827930    -0.6059770     0.2231310
  C       -1.5369320    -1.4089660    -0.0835960
  C        0.3225300     1.1924080     0.5079200
  H       -1.9376650     0.8286140     1.6117160
  H       -1.0169450     1.4955040    -1.1629930
  H       -3.2904270    -0.9847657     0.9934470
  H       -1.7077950    -2.2947630    -0.7028010
  H        0.4416350     0.4968690     1.3430810
  H        0.1975530     2.2044650     0.9092850
  H       -2.8909940     2.6048820     0.5755830
  H       -4.0423210     0.2940670    -0.9260900
  H       -0.0419210    -2.0739930     0.9730340
  H        0.9072950    -1.0817680    -0.8531670
  H        3.8470510     0.3069850     1.5449930
units angstrom
no_reorient  #important for SAPT in psi4, default
symmetry c1  #important for SAPT in psi4, default
}

set PROPERTIES_ORIGIN ["COM"]
properties('MP2/aug-cc-pvtz', properties = ['dipole'])
--------------------------------------------------------------------------

  Memory set to  29.802 GiB by Python driver.
    SCF Algorithm Type (re)set to DF.

*** tstart() called on node96.bme.utexas.edu
*** at Sun Nov  8 03:25:08 2020

   => Loading Basis Set <=

    Name: AUG-CC-PVTZ
    Role: ORBITAL
    Keyword: BASIS
    atoms 1     entry P          line   820 file /home/xy3866/psi4conda/share/psi4/basis/aug-cc-pvtz.gbs 
    atoms 2-9   entry O          line   327 file /home/xy3866/psi4conda/share/psi4/basis/aug-cc-pvtz.gbs 
    atoms 10-14 entry C          line   235 file /home/xy3866/psi4conda/share/psi4/basis/aug-cc-pvtz.gbs 
    atoms 15-25 entry H          line    36 file /home/xy3866/psi4conda/share/psi4/basis/aug-cc-pvtz.gbs 


         ---------------------------------------------------------
                                   SCF
               by Justin Turney, Rob Parrish, Andy Simmonett
                          and Daniel G. A. Smith
                              RHF Reference
                        8 Threads,  30517 MiB Core
         ---------------------------------------------------------

  ==> Geometry <==

    Molecular point group: c1
    Full point group: C1

    Geometry (in Angstrom), charge = 0, multiplicity = 1:

       Center              X                  Y                   Z               Mass       
    ------------   -----------------  -----------------  -----------------  -----------------
         P            2.558861924379     0.050567257009    -0.169765452202    30.973761998420
         O           -0.794162075621    -0.509440742991    -0.855899452202    15.994914619570
         O           -3.199709075621     1.759734257009     0.205772547798    15.994914619570
         O           -3.610018075621    -0.545252742991    -0.936007452202    15.994914619570
         O           -0.978815075621    -1.690334742991     1.170815547798    15.994914619570
         O            1.448696924379     1.230527257009    -0.300362452202    15.994914619570
         O            1.688890924379    -1.292230742991    -0.336685452202    15.994914619570
         O            2.906424924379    -0.058085742991     1.411029547798    15.994914619570
         O            3.722776924379     0.291596257009    -1.045393452202    15.994914619570
         C           -2.231257075621     0.776477257009     0.562378547798    12.000000000000
         C           -0.947512075621     0.820687257009    -0.296539452202    12.000000000000
         C           -2.835382075621    -0.598762742991     0.243161547798    12.000000000000
         C           -1.589521075621    -1.401751742991    -0.063565452202    12.000000000000
         C            0.269940924379     1.199622257009     0.527950547798    12.000000000000
         H           -1.990254075621     0.835828257009     1.631746547798     1.007825032230
         H           -1.069534075621     1.502718257009    -1.142962452202     1.007825032230
         H           -3.343016075621    -0.977551442991     1.013477547798     1.007825032230
         H           -1.760384075621    -2.287548742991    -0.682770452202     1.007825032230
         H            0.389045924379     0.504083257009     1.363111547798     1.007825032230
         H            0.144963924379     2.211679257009     0.929315547798     1.007825032230
         H           -2.943583075621     2.612096257009     0.595613547798     1.007825032230
         H           -4.094910075621     0.301281257009    -0.906059452202     1.007825032230
         H           -0.094510075621    -2.066778742991     0.993064547798     1.007825032230
         H            0.854705924379    -1.074553742991    -0.833136452202     1.007825032230
         H            3.794461924379     0.314199257009     1.565023547798     1.007825032230

  Running in c1 symmetry.

  Rotational constants: A =      0.04577  B =      0.01188  C =      0.01095 [cm^-1]
  Rotational constants: A =   1372.19219  B =    356.03526  C =    328.32782 [MHz]
  Nuclear repulsion = 1216.597103878756116

  Charge       = 0
  Multiplicity = 1
  Electrons    = 120
  Nalpha       = 60
  Nbeta        = 60

  ==> Algorithm <==

  SCF Algorithm Type is DF.
  DIIS enabled.
  MOM disabled.
  Fractional occupation disabled.
  Guess Type is SAD.
  Energy threshold   = 1.00e-10
  Density threshold  = 1.00e-10
  Integral threshold = 0.00e+00

  ==> Primary Basis <==

  Basis Set: AUG-CC-PVTZ
    Blend: AUG-CC-PVTZ
    Number of shells: 297
    Number of basis function: 901
    Number of Cartesian functions: 1049
    Spherical Harmonics?: true
    Max angular momentum: 3

   => Loading Basis Set <=

    Name: (AUG-CC-PVTZ AUX)
    Role: JKFIT
    Keyword: DF_BASIS_SCF
    atoms 1     entry P          line   644 file /home/xy3866/psi4conda/share/psi4/basis/aug-cc-pvtz-jkfit.gbs 
    atoms 2-9   entry O          line   286 file /home/xy3866/psi4conda/share/psi4/basis/aug-cc-pvtz-jkfit.gbs 
    atoms 10-14 entry C          line   162 file /home/xy3866/psi4conda/share/psi4/basis/aug-cc-pvtz-jkfit.gbs 
    atoms 15-25 entry H          line    70 file /home/xy3866/psi4conda/share/psi4/basis/aug-cc-pvtz-jkfit.gbs 

  ==> Pre-Iterations <==

   -------------------------------------------------------
    Irrep   Nso     Nmo     Nalpha   Nbeta   Ndocc  Nsocc
   -------------------------------------------------------
     A        901     901       0       0       0       0
   -------------------------------------------------------
    Total     901     901      60      60      60       0
   -------------------------------------------------------

  ==> Integral Setup <==

  DFHelper Memory: AOs need 11.185 GiB; user supplied 22.352 GiB. Using in-core AOs.

  ==> MemDFJK: Density-Fitted J/K Matrices <==

    J tasked:                   Yes
    K tasked:                   Yes
    wK tasked:                   No
    OpenMP threads:               8
    Memory [MiB]:             22888
    Algorithm:                 Disk
    Schwarz Cutoff:           1E-12
    Mask sparsity (%):       9.7159
    Fitting Condition:        1E-10

   => Auxiliary Basis Set <=

  Basis Set: (AUG-CC-PVTZ AUX)
    Blend: AUG-CC-PVTZ-JKFIT
    Number of shells: 586
    Number of basis function: 2004
    Number of Cartesian functions: 2488
    Spherical Harmonics?: true
    Max angular momentum: 4

  Minimum eigenvalue in the overlap matrix is 1.1839271273E-06.
  Using Symmetric Orthogonalization.

  SCF Guess: Superposition of Atomic Densities via on-the-fly atomic UHF.

  ==> Iterations <==

                           Total Energy        Delta E     RMS |[F,P]|

   @DF-RHF iter SAD: -1135.09880068820894   -1.13510e+03   0.00000e+00 
   @DF-RHF iter   1: -1135.35805565629448   -2.59255e-01   1.14573e-03 DIIS
   @DF-RHF iter   2: -1135.69146148892150   -3.33406e-01   6.82062e-04 DIIS
   @DF-RHF iter   3: -1135.81190061310144   -1.20439e-01   1.03771e-04 DIIS
   @DF-RHF iter   4: -1135.81684719598229   -4.94658e-03   4.23143e-05 DIIS
   @DF-RHF iter   5: -1135.81748810740532   -6.40911e-04   1.00373e-05 DIIS
   @DF-RHF iter   6: -1135.81753968601924   -5.15786e-05   2.77206e-06 DIIS
   @DF-RHF iter   7: -1135.81754547876699   -5.79275e-06   9.96520e-07 DIIS
   @DF-RHF iter   8: -1135.81754615729710   -6.78530e-07   2.89005e-07 DIIS
   @DF-RHF iter   9: -1135.81754622332301   -6.60259e-08   8.57403e-08 DIIS
   @DF-RHF iter  10: -1135.81754622806852   -4.74552e-09   2.75595e-08 DIIS
   @DF-RHF iter  11: -1135.81754622858512   -5.16593e-10   7.69330e-09 DIIS
   @DF-RHF iter  12: -1135.81754622862604   -4.09273e-11   2.87502e-09 DIIS
   @DF-RHF iter  13: -1135.81754622863627   -1.02318e-11   8.14543e-10 DIIS
   @DF-RHF iter  14: -1135.81754622863718   -9.09495e-13   2.85478e-10 DIIS
   @DF-RHF iter  15: -1135.81754622862900    8.18545e-12   1.10111e-10 DIIS
   @DF-RHF iter  16: -1135.81754622863809   -9.09495e-12   4.14595e-11 DIIS
  Energy and wave function converged.


  ==> Post-Iterations <==

    Orbital Energies [Eh]
    ---------------------

    Doubly Occupied:                                                      

       1A    -80.114820     2A    -20.611102     3A    -20.606078  
       4A    -20.604890     5A    -20.602849     6A    -20.598312  
       7A    -20.595092     8A    -20.573243     9A    -20.514488  
      10A    -11.361532    11A    -11.322670    12A    -11.321024  
      13A    -11.317729    14A    -11.295432    15A     -7.629770  
      16A     -5.528190    17A     -5.528108    18A     -5.526608  
      19A     -1.462907    20A     -1.448088    21A     -1.411218  
      22A     -1.390548    23A     -1.378051    24A     -1.373161  
      25A     -1.368393    26A     -1.295824    27A     -1.084828  
      28A     -1.050090    29A     -0.946711    30A     -0.858308  
      31A     -0.847081    32A     -0.834107    33A     -0.772189  
      34A     -0.759234    35A     -0.749586    36A     -0.736065  
      37A     -0.716769    38A     -0.692826    39A     -0.688045  
      40A     -0.667440    41A     -0.653555    42A     -0.648207  
      43A     -0.635301    44A     -0.615381    45A     -0.600794  
      46A     -0.597497    47A     -0.581854    48A     -0.577301  
      49A     -0.569509    50A     -0.559836    51A     -0.543365  
      52A     -0.532135    53A     -0.526784    54A     -0.511782  
      55A     -0.490458    56A     -0.488083    57A     -0.475236  
      58A     -0.471115    59A     -0.466867    60A     -0.451091  

    Virtual:                                                              

      61A      0.014816    62A      0.029582    63A      0.031075  
      64A      0.034802    65A      0.043405    66A      0.049045  
      67A      0.050928    68A      0.054559    69A      0.060828  
      70A      0.067396    71A      0.080198    72A      0.087424  
      73A      0.093010    74A      0.095304    75A      0.104016  
      76A      0.105871    77A      0.107477    78A      0.111639  
      79A      0.116536    80A      0.120470    81A      0.123491  
      82A      0.127759    83A      0.131155    84A      0.136625  
      85A      0.139845    86A      0.143114    87A      0.150280  
      88A      0.155055    89A      0.160529    90A      0.162925  
      91A      0.167519    92A      0.173222    93A      0.180313  
      94A      0.182597    95A      0.185443    96A      0.193531  
      97A      0.204635    98A      0.208409    99A      0.214907  
     100A      0.218637   101A      0.224347   102A      0.225658  
     103A      0.233007   104A      0.239649   105A      0.243546  
     106A      0.246901   107A      0.248292   108A      0.252152  
     109A      0.255263   110A      0.257449   111A      0.261778  
     112A      0.265233   113A      0.267675   114A      0.272022  
     115A      0.274453   116A      0.276077   117A      0.280331  
     118A      0.282177   119A      0.286157   120A      0.291233  
     121A      0.294490   122A      0.297725   123A      0.300268  
     124A      0.304129   125A      0.307453   126A      0.312447  
     127A      0.313714   128A      0.317052   129A      0.325348  
     130A      0.328023   131A      0.334982   132A      0.344400  
     133A      0.348075   134A      0.351040   135A      0.356701  
     136A      0.363487   137A      0.365984   138A      0.370333  
     139A      0.375691   140A      0.379731   141A      0.383538  
     142A      0.388136   143A      0.390541   144A      0.397474  
     145A      0.402887   146A      0.404165   147A      0.408498  
     148A      0.408828   149A      0.413220   150A      0.425757  
     151A      0.429073   152A      0.432391   153A      0.433514  
     154A      0.441570   155A      0.442928   156A      0.447815  
     157A      0.454556   158A      0.456109   159A      0.459824  
     160A      0.464353   161A      0.465597   162A      0.468416  
     163A      0.474552   164A      0.478533   165A      0.480364  
     166A      0.484932   167A      0.486408   168A      0.491019  
     169A      0.492748   170A      0.499178   171A      0.504405  
     172A      0.510562   173A      0.514546   174A      0.515624  
     175A      0.525294   176A      0.527029   177A      0.533115  
     178A      0.533589   179A      0.539456   180A      0.540919  
     181A      0.548368   182A      0.553636   183A      0.555793  
     184A      0.559290   185A      0.561165   186A      0.565090  
     187A      0.574226   188A      0.576344   189A      0.583015  
     190A      0.587394   191A      0.589902   192A      0.595388  
     193A      0.602825   194A      0.603887   195A      0.606113  
     196A      0.611965   197A      0.623619   198A      0.627032  
     199A      0.633543   200A      0.636117   201A      0.641702  
     202A      0.645238   203A      0.648224   204A      0.653548  
     205A      0.656797   206A      0.663622   207A      0.669311  
     208A      0.678535   209A      0.686664   210A      0.690433  
     211A      0.693748   212A      0.702164   213A      0.706754  
     214A      0.707221   215A      0.714284   216A      0.724671  
     217A      0.729050   218A      0.736012   219A      0.745712  
     220A      0.752009   221A      0.760934   222A      0.762874  
     223A      0.768557   224A      0.775634   225A      0.779727  
     226A      0.790177   227A      0.793687   228A      0.804057  
     229A      0.808953   230A      0.814816   231A      0.824041  
     232A      0.826495   233A      0.847952   234A      0.853606  
     235A      0.854630   236A      0.860263   237A      0.872328  
     238A      0.876216   239A      0.880719   240A      0.884558  
     241A      0.890758   242A      0.893392   243A      0.901165  
     244A      0.904288   245A      0.910666   246A      0.914324  
     247A      0.917334   248A      0.926529   249A      0.934758  
     250A      0.942219   251A      0.944368   252A      0.948040  
     253A      0.952948   254A      0.956761   255A      0.963538  
     256A      0.969777   257A      0.970635   258A      0.980314  
     259A      0.983118   260A      0.987489   261A      0.990995  
     262A      1.001559   263A      1.007520   264A      1.012546  
     265A      1.016984   266A      1.018408   267A      1.023545  
     268A      1.028031   269A      1.029198   270A      1.032367  
     271A      1.038396   272A      1.043195   273A      1.052473  
     274A      1.055626   275A      1.061205   276A      1.063829  
     277A      1.068129   278A      1.076202   279A      1.082711  
     280A      1.084878   281A      1.088444   282A      1.093473  
     283A      1.098266   284A      1.101348   285A      1.105538  
     286A      1.109127   287A      1.113917   288A      1.120844  
     289A      1.123535   290A      1.127729   291A      1.133717  
     292A      1.137444   293A      1.143720   294A      1.151325  
     295A      1.161991   296A      1.168962   297A      1.173725  
     298A      1.174788   299A      1.177765   300A      1.185738  
     301A      1.189724   302A      1.192068   303A      1.194973  
     304A      1.201737   305A      1.206646   306A      1.210425  
     307A      1.219491   308A      1.223680   309A      1.232160  
     310A      1.233829   311A      1.248861   312A      1.256078  
     313A      1.257931   314A      1.263691   315A      1.267396  
     316A      1.272220   317A      1.281858   318A      1.287481  
     319A      1.293975   320A      1.300921   321A      1.308981  
     322A      1.313234   323A      1.316936   324A      1.324704  
     325A      1.333901   326A      1.336040   327A      1.344765  
     328A      1.349287   329A      1.354674   330A      1.365028  
     331A      1.374892   332A      1.375957   333A      1.380975  
     334A      1.391438   335A      1.404830   336A      1.411355  
     337A      1.415401   338A      1.420513   339A      1.429490  
     340A      1.438887   341A      1.440596   342A      1.453519  
     343A      1.457913   344A      1.463971   345A      1.467836  
     346A      1.472522   347A      1.483397   348A      1.490562  
     349A      1.496667   350A      1.504510   351A      1.510466  
     352A      1.518800   353A      1.527844   354A      1.535383  
     355A      1.537986   356A      1.543686   357A      1.545696  
     358A      1.554683   359A      1.562565   360A      1.563032  
     361A      1.572757   362A      1.580354   363A      1.584442  
     364A      1.589309   365A      1.598001   366A      1.599395  
     367A      1.613239   368A      1.621299   369A      1.626213  
     370A      1.631641   371A      1.634641   372A      1.650950  
     373A      1.651549   374A      1.655210   375A      1.673376  
     376A      1.679295   377A      1.683723   378A      1.693484  
     379A      1.700310   380A      1.703663   381A      1.712836  
     382A      1.718187   383A      1.722960   384A      1.729480  
     385A      1.738814   386A      1.740548   387A      1.744308  
     388A      1.748269   389A      1.758067   390A      1.765428  
     391A      1.772202   392A      1.781260   393A      1.787940  
     394A      1.795053   395A      1.801464   396A      1.807854  
     397A      1.816427   398A      1.820764   399A      1.825611  
     400A      1.829956   401A      1.840378   402A      1.842911  
     403A      1.851120   404A      1.859166   405A      1.862938  
     406A      1.870298   407A      1.876590   408A      1.897459  
     409A      1.901610   410A      1.911060   411A      1.914726  
     412A      1.920262   413A      1.923653   414A      1.932001  
     415A      1.942785   416A      1.946009   417A      1.949243  
     418A      1.960370   419A      1.973691   420A      1.975400  
     421A      1.982537   422A      1.991323   423A      1.995625  
     424A      2.002307   425A      2.012901   426A      2.015704  
     427A      2.019997   428A      2.037823   429A      2.044452  
     430A      2.045845   431A      2.052159   432A      2.056303  
     433A      2.070679   434A      2.079293   435A      2.088603  
     436A      2.094838   437A      2.097858   438A      2.105989  
     439A      2.115987   440A      2.119384   441A      2.126160  
     442A      2.129580   443A      2.139898   444A      2.155353  
     445A      2.159477   446A      2.165860   447A      2.169238  
     448A      2.186849   449A      2.194271   450A      2.202120  
     451A      2.218461   452A      2.226648   453A      2.242130  
     454A      2.251129   455A      2.251795   456A      2.262243  
     457A      2.269204   458A      2.275776   459A      2.291826  
     460A      2.300548   461A      2.302780   462A      2.310979  
     463A      2.322551   464A      2.332924   465A      2.337433  
     466A      2.349574   467A      2.355226   468A      2.372022  
     469A      2.390171   470A      2.393760   471A      2.401161  
     472A      2.405052   473A      2.411379   474A      2.423774  
     475A      2.440115   476A      2.447843   477A      2.455415  
     478A      2.465575   479A      2.474900   480A      2.484496  
     481A      2.491423   482A      2.497227   483A      2.505731  
     484A      2.515942   485A      2.528037   486A      2.531231  
     487A      2.535652   488A      2.547042   489A      2.563311  
     490A      2.571827   491A      2.575058   492A      2.578592  
     493A      2.588491   494A      2.596949   495A      2.601605  
     496A      2.616423   497A      2.625668   498A      2.630321  
     499A      2.646505   500A      2.652484   501A      2.664847  
     502A      2.673042   503A      2.680526   504A      2.682685  
     505A      2.693283   506A      2.698798   507A      2.707394  
     508A      2.713844   509A      2.720704   510A      2.731812  
     511A      2.746176   512A      2.751448   513A      2.758847  
     514A      2.773692   515A      2.781491   516A      2.795475  
     517A      2.802145   518A      2.811368   519A      2.819657  
     520A      2.836404   521A      2.846221   522A      2.855176  
     523A      2.867115   524A      2.876979   525A      2.884355  
     526A      2.887827   527A      2.890794   528A      2.899227  
     529A      2.929131   530A      2.935783   531A      2.955026  
     532A      2.963026   533A      2.966041   534A      2.976099  
     535A      2.982615   536A      2.991017   537A      3.002865  
     538A      3.016782   539A      3.025280   540A      3.039284  
     541A      3.049503   542A      3.057107   543A      3.065854  
     544A      3.076978   545A      3.087741   546A      3.093069  
     547A      3.097212   548A      3.105202   549A      3.112014  
     550A      3.125222   551A      3.136008   552A      3.141144  
     553A      3.156244   554A      3.161021   555A      3.176410  
     556A      3.180639   557A      3.192657   558A      3.200259  
     559A      3.209166   560A      3.227363   561A      3.235264  
     562A      3.238596   563A      3.252123   564A      3.257693  
     565A      3.274361   566A      3.278846   567A      3.288348  
     568A      3.297455   569A      3.311056   570A      3.328869  
     571A      3.341687   572A      3.345653   573A      3.360454  
     574A      3.371111   575A      3.380972   576A      3.391196  
     577A      3.403396   578A      3.421482   579A      3.433624  
     580A      3.446579   581A      3.465651   582A      3.485346  
     583A      3.506670   584A      3.518377   585A      3.525997  
     586A      3.535947   587A      3.541588   588A      3.565802  
     589A      3.582031   590A      3.594935   591A      3.621085  
     592A      3.651539   593A      3.656615   594A      3.672932  
     595A      3.682153   596A      3.705521   597A      3.718918  
     598A      3.734140   599A      3.753513   600A      3.766687  
     601A      3.784104   602A      3.797501   603A      3.801669  
     604A      3.821069   605A      3.833425   606A      3.848488  
     607A      3.855735   608A      3.876526   609A      3.898844  
     610A      3.905101   611A      3.915806   612A      3.927766  
     613A      3.935719   614A      3.945615   615A      3.960343  
     616A      3.985704   617A      3.996853   618A      4.005589  
     619A      4.018668   620A      4.025728   621A      4.029407  
     622A      4.029844   623A      4.047892   624A      4.084362  
     625A      4.092113   626A      4.099733   627A      4.114337  
     628A      4.118421   629A      4.128575   630A      4.150608  
     631A      4.153984   632A      4.163518   633A      4.177941  
     634A      4.194554   635A      4.207239   636A      4.216083  
     637A      4.237627   638A      4.246602   639A      4.262657  
     640A      4.267148   641A      4.272295   642A      4.277510  
     643A      4.289258   644A      4.310663   645A      4.321354  
     646A      4.326452   647A      4.330406   648A      4.351045  
     649A      4.371734   650A      4.382056   651A      4.394764  
     652A      4.403545   653A      4.412537   654A      4.417311  
     655A      4.421227   656A      4.434214   657A      4.447003  
     658A      4.452684   659A      4.459396   660A      4.480217  
     661A      4.502673   662A      4.510558   663A      4.513202  
     664A      4.517737   665A      4.530562   666A      4.543808  
     667A      4.564806   668A      4.575538   669A      4.577620  
     670A      4.592782   671A      4.608446   672A      4.617110  
     673A      4.618917   674A      4.637836   675A      4.655351  
     676A      4.662454   677A      4.673890   678A      4.677220  
     679A      4.692155   680A      4.713569   681A      4.722345  
     682A      4.738947   683A      4.745558   684A      4.748221  
     685A      4.770889   686A      4.785530   687A      4.794512  
     688A      4.812232   689A      4.817454   690A      4.828725  
     691A      4.833174   692A      4.858158   693A      4.862381  
     694A      4.888256   695A      4.908201   696A      4.920174  
     697A      4.924594   698A      4.943956   699A      4.956815  
     700A      4.976180   701A      4.979799   702A      4.997695  
     703A      5.020624   704A      5.025684   705A      5.039735  
     706A      5.051476   707A      5.059228   708A      5.085753  
     709A      5.098631   710A      5.105081   711A      5.122869  
     712A      5.123888   713A      5.151898   714A      5.157273  
     715A      5.165910   716A      5.180739   717A      5.198052  
     718A      5.216298   719A      5.221723   720A      5.246649  
     721A      5.266250   722A      5.268875   723A      5.279355  
     724A      5.308961   725A      5.321241   726A      5.334302  
     727A      5.341941   728A      5.355929   729A      5.365647  
     730A      5.370407   731A      5.382940   732A      5.400791  
     733A      5.408826   734A      5.414365   735A      5.441993  
     736A      5.447775   737A      5.476395   738A      5.483148  
     739A      5.498708   740A      5.504753   741A      5.510216  
     742A      5.523104   743A      5.538357   744A      5.548369  
     745A      5.567350   746A      5.587064   747A      5.599959  
     748A      5.614158   749A      5.630755   750A      5.641044  
     751A      5.666493   752A      5.683130   753A      5.705890  
     754A      5.715869   755A      5.733395   756A      5.749607  
     757A      5.772003   758A      5.781658   759A      5.809156  
     760A      5.815570   761A      5.844393   762A      5.859727  
     763A      5.865083   764A      5.872209   765A      5.910928  
     766A      5.937766   767A      5.984547   768A      6.014806  
     769A      6.027533   770A      6.060382   771A      6.092438  
     772A      6.184034   773A      6.221558   774A      6.271625  
     775A      6.303453   776A      6.369950   777A      6.394808  
     778A      6.412518   779A      6.434793   780A      6.475346  
     781A      6.486703   782A      6.536251   783A      6.652854  
     784A      6.701657   785A      6.710566   786A      6.727031  
     787A      6.740534   788A      6.757450   789A      6.775365  
     790A      6.795935   791A      6.828296   792A      6.837190  
     793A      6.847527   794A      6.854593   795A      6.857465  
     796A      6.867955   797A      6.883981   798A      6.889303  
     799A      6.914529   800A      6.924795   801A      6.934160  
     802A      6.944881   803A      6.957768   804A      6.968453  
     805A      6.973437   806A      6.990887   807A      6.996043  
     808A      7.007778   809A      7.026463   810A      7.028759  
     811A      7.033605   812A      7.060287   813A      7.089434  
     814A      7.107343   815A      7.118515   816A      7.140322  
     817A      7.148224   818A      7.173777   819A      7.189814  
     820A      7.198449   821A      7.216991   822A      7.234664  
     823A      7.254573   824A      7.265887   825A      7.277225  
     826A      7.305174   827A      7.323284   828A      7.325746  
     829A      7.333946   830A      7.339693   831A      7.357590  
     832A      7.365428   833A      7.374394   834A      7.383324  
     835A      7.406368   836A      7.421056   837A      7.426762  
     838A      7.428835   839A      7.437813   840A      7.459721  
     841A      7.462654   842A      7.482945   843A      7.486265  
     844A      7.512600   845A      7.519471   846A      7.546888  
     847A      7.551684   848A      7.570169   849A      7.594052  
     850A      7.601711   851A      7.615101   852A      7.632713  
     853A      7.633334   854A      7.670137   855A      7.678777  
     856A      7.698570   857A      7.710423   858A      7.731004  
     859A      7.737303   860A      7.777604   861A      7.803164  
     862A      7.826287   863A      7.849220   864A      7.854520  
     865A      7.875604   866A      7.906343   867A      7.923640  
     868A      7.952380   869A      7.964304   870A      8.008554  
     871A      8.032822   872A      8.064500   873A      8.085301  
     874A      8.109024   875A      8.114366   876A      8.149545  
     877A      8.205748   878A      8.271405   879A      8.323726  
     880A      8.342030   881A      8.354642   882A      8.398286  
     883A      8.505744   884A      8.529513   885A      8.664785  
     886A      8.716208   887A      8.767696   888A     11.107345  
     889A     12.834616   890A     15.181977   891A     15.684536  
     892A     16.191020   893A     16.701223   894A     16.828701  
     895A     17.171609   896A     17.784242   897A     18.858577  
     898A     19.021225   899A     19.728592   900A     20.234643  
     901A     20.499924  

    Final Occupation by Irrep:
              A 
    DOCC [    60 ]

  @DF-RHF Final Energy: -1135.81754622863809

   => Energetics <=

    Nuclear Repulsion Energy =           1216.5971038787561156
    One-Electron Energy =               -3986.4701832765140352
    Two-Electron Energy =                1634.0555331691198262
    Total Energy =                      -1135.8175462286380935

Computation Completed

*** tstop() called on node96.bme.utexas.edu at Sun Nov  8 03:30:48 2020
Module time:
	user time   =     838.23 seconds =      13.97 minutes
	system time =      89.39 seconds =       1.49 minutes
	total time  =        340 seconds =       5.67 minutes
Total time:
	user time   =     838.23 seconds =      13.97 minutes
	system time =      89.39 seconds =       1.49 minutes
	total time  =        340 seconds =       5.67 minutes
   => Loading Basis Set <=

    Name: (AUG-CC-PVTZ AUX)
    Role: RIFIT
    Keyword: DF_BASIS_MP2
    atoms 1     entry P          line   590 file /home/xy3866/psi4conda/share/psi4/basis/aug-cc-pvtz-ri.gbs 
    atoms 2-9   entry O          line   264 file /home/xy3866/psi4conda/share/psi4/basis/aug-cc-pvtz-ri.gbs 
    atoms 10-14 entry C          line   148 file /home/xy3866/psi4conda/share/psi4/basis/aug-cc-pvtz-ri.gbs 
    atoms 15-25 entry H          line    30 file /home/xy3866/psi4conda/share/psi4/basis/aug-cc-pvtz-ri.gbs 


*** tstart() called on node96.bme.utexas.edu
*** at Sun Nov  8 03:30:49 2020


  //>>>>>>>>>>>>>>>>>>>>>>>>>>>>>>>>>>>//
  //               DFMP2               //
  //<<<<<<<<<<<<<<<<<<<<<<<<<<<<<<<<<<<//

	 --------------------------------------------------------
	                          DF-MP2                         
	      2nd-Order Density-Fitted Moller-Plesset Theory     
	              RMP2 Wavefunction,   8 Threads             
	                                                         
	        Rob Parrish, Justin Turney, Andy Simmonett,      
	           Ed Hohenstein, and C. David Sherrill          
	 --------------------------------------------------------

   => Auxiliary Basis Set <=

  Basis Set: (AUG-CC-PVTZ AUX)
    Blend: AUG-CC-PVTZ-RI
    Number of shells: 555
    Number of basis function: 2031
    Number of Cartesian functions: 2564
    Spherical Harmonics?: true
    Max angular momentum: 4

	 --------------------------------------------------------
	                 NBF =   901, NAUX =  2031
	 --------------------------------------------------------
	   CLASS    FOCC     OCC    AOCC    AVIR     VIR    FVIR
	   PAIRS       0      60      60     841     841       0
	 --------------------------------------------------------

  DFHelper Memory: AOs need 11.185 GiB; user supplied 22.352 GiB. Using in-core AOs.


         ------------------------------------------------------------
                                     CPHF                           
                                  Rob Parrish                       
         ------------------------------------------------------------

  ==> Geometry <==

    Molecular point group: c1
    Full point group: C1

    Geometry (in Angstrom), charge = 0, multiplicity = 1:

       Center              X                  Y                   Z               Mass       
    ------------   -----------------  -----------------  -----------------  -----------------
         P            2.558861924379     0.050567257009    -0.169765452202    30.973761998420
         O           -0.794162075621    -0.509440742991    -0.855899452202    15.994914619570
         O           -3.199709075621     1.759734257009     0.205772547798    15.994914619570
         O           -3.610018075621    -0.545252742991    -0.936007452202    15.994914619570
         O           -0.978815075621    -1.690334742991     1.170815547798    15.994914619570
         O            1.448696924379     1.230527257009    -0.300362452202    15.994914619570
         O            1.688890924379    -1.292230742991    -0.336685452202    15.994914619570
         O            2.906424924379    -0.058085742991     1.411029547798    15.994914619570
         O            3.722776924379     0.291596257009    -1.045393452202    15.994914619570
         C           -2.231257075621     0.776477257009     0.562378547798    12.000000000000
         C           -0.947512075621     0.820687257009    -0.296539452202    12.000000000000
         C           -2.835382075621    -0.598762742991     0.243161547798    12.000000000000
         C           -1.589521075621    -1.401751742991    -0.063565452202    12.000000000000
         C            0.269940924379     1.199622257009     0.527950547798    12.000000000000
         H           -1.990254075621     0.835828257009     1.631746547798     1.007825032230
         H           -1.069534075621     1.502718257009    -1.142962452202     1.007825032230
         H           -3.343016075621    -0.977551442991     1.013477547798     1.007825032230
         H           -1.760384075621    -2.287548742991    -0.682770452202     1.007825032230
         H            0.389045924379     0.504083257009     1.363111547798     1.007825032230
         H            0.144963924379     2.211679257009     0.929315547798     1.007825032230
         H           -2.943583075621     2.612096257009     0.595613547798     1.007825032230
         H           -4.094910075621     0.301281257009    -0.906059452202     1.007825032230
         H           -0.094510075621    -2.066778742991     0.993064547798     1.007825032230
         H            0.854705924379    -1.074553742991    -0.833136452202     1.007825032230
         H            3.794461924379     0.314199257009     1.565023547798     1.007825032230

  Nuclear repulsion = 1216.597103878756116
  Reference energy  = -1135.817546228638093

  ==> Basis Set <==

  Basis Set: AUG-CC-PVTZ
    Blend: AUG-CC-PVTZ
    Number of shells: 297
    Number of basis function: 901
    Number of Cartesian functions: 1049
    Spherical Harmonics?: true
    Max angular momentum: 3

  ==> CGRSolver (by Rob Parrish) <==

   Number of roots    =         1
   Preconditioning    =    JACOBI
   Convergence cutoff =     1E-06
   Maximum iterations =       100

  ==> CPHFRHamiltonian (by Rob Parrish) <== 

  ==> MemDFJK: Density-Fitted J/K Matrices <==

    J tasked:                   Yes
    K tasked:                   Yes
    wK tasked:                   No
    OpenMP threads:               8
    Memory [MiB]:             22888
    Algorithm:                 Disk
    Schwarz Cutoff:           1E-12
    Mask sparsity (%):       9.7159
    Fitting Condition:        1E-10

   => Auxiliary Basis Set <=

  Basis Set: (AUG-CC-PVTZ AUX)
    Blend: AUG-CC-PVTZ-JKFIT
    Number of shells: 586
    Number of basis function: 2004
    Number of Cartesian functions: 2488
    Spherical Harmonics?: true
    Max angular momentum: 4

  ==> CPHF Iterations <==

  => Iterations <=

             Iter  Converged  Remaining    Residual
  CGR           1          0          1   8.049E-02
  CGR           2          0          1   1.889E-02
  CGR           3          0          1   7.379E-03
  CGR           4          0          1   2.274E-03
  CGR           5          0          1   7.699E-04
  CGR           6          0          1   2.245E-04
  CGR           7          0          1   7.822E-05
  CGR           8          0          1   2.807E-05
  CGR           9          0          1   9.323E-06
  CGR          10          0          1   2.967E-06
  CGR          11          1          0   9.427E-07

    CGRSolver converged.

	-----------------------------------------------------------
	 ==================> DF-MP2 Energies <==================== 
	-----------------------------------------------------------
	 Reference Energy          =   -1135.8175462286380935 [Eh]
	 Singles Energy            =      -0.0000000000000000 [Eh]
	 Same-Spin Energy          =      -0.8160905268916446 [Eh]
	 Opposite-Spin Energy      =      -2.4210890128988867 [Eh]
	 Correlation Energy        =      -3.2371795397905312 [Eh]
	 Total Energy              =   -1139.0547257684286251 [Eh]
	-----------------------------------------------------------
	 ================> DF-SCS-MP2 Energies <================== 
	-----------------------------------------------------------
	 SCS Same-Spin Scale       =       0.3333333333333333 [-]
	 SCS Opposite-Spin Scale   =       1.2000000000000000 [-]
	 SCS Same-Spin Energy      =      -0.2720301756305482 [Eh]
	 SCS Opposite-Spin Energy  =      -2.9053068154786641 [Eh]
	 SCS Correlation Energy    =      -3.1773369911092124 [Eh]
	 SCS Total Energy          =   -1138.9948832197474076 [Eh]
	-----------------------------------------------------------



Properties will be evaluated at   0.000000,  -0.000000,  -0.000000 [a0]

Properties computed using the MP2 density matrix

  Nuclear Dipole Moment: [e a0]
     X:   -11.8293      Y:     1.7077      Z:     4.3963

  Electronic Dipole Moment: [e a0]
     X:    10.4552      Y:    -0.8106      Z:    -2.7933

  Dipole Moment: [e a0]
     X:    -1.3741      Y:     0.8971      Z:     1.6029     Total:     2.2940

  Dipole Moment: [D]
     X:    -3.4926      Y:     2.2803      Z:     4.0743     Total:     5.8308


*** tstop() called on node96.bme.utexas.edu at Sun Nov  8 03:45:13 2020
Module time:
	user time   =    3628.61 seconds =      60.48 minutes
	system time =     139.57 seconds =       2.33 minutes
	total time  =        864 seconds =      14.40 minutes
Total time:
	user time   =    4468.01 seconds =      74.47 minutes
	system time =     229.00 seconds =       3.82 minutes
	total time  =       1205 seconds =      20.08 minutes

    Psi4 stopped on: Sunday, 08 November 2020 03:45AM
    Psi4 wall time for execution: 0:20:06.68

*** Psi4 exiting successfully. Buy a developer a beer!
