
    -----------------------------------------------------------------------
          Psi4: An Open-Source Ab Initio Electronic Structure Package
                               Psi4 1.3.2 release

                         Git: Rev {HEAD} ecbda83 


    R. M. Parrish, L. A. Burns, D. G. A. Smith, A. C. Simmonett,
    A. E. DePrince III, E. G. Hohenstein, U. Bozkaya, A. Yu. Sokolov,
    R. Di Remigio, R. M. Richard, J. F. Gonthier, A. M. James,
    H. R. McAlexander, A. Kumar, M. Saitow, X. Wang, B. P. Pritchard,
    P. Verma, H. F. Schaefer III, K. Patkowski, R. A. King, E. F. Valeev,
    F. A. Evangelista, J. M. Turney, T. D. Crawford, and C. D. Sherrill,
    J. Chem. Theory Comput. 13(7) pp 3185--3197 (2017).
    (doi: 10.1021/acs.jctc.7b00174)


                         Additional Contributions by
    P. Kraus, H. Kruse, M. H. Lechner, M. C. Schieber, R. A. Shaw,
    A. Alenaizan, R. Galvelis, Z. L. Glick, S. Lehtola, and J. P. Misiewicz

    -----------------------------------------------------------------------


    Psi4 started on: Monday, 09 November 2020 10:15AM

    Process ID: 13394
    Host:       node59.bme.utexas.edu
    PSIDATADIR: /home/xy3866/psi4conda/share/psi4
    Memory:     500.0 MiB
    Threads:    8
    
  ==> Input File <==

--------------------------------------------------------------------------
#psi4
#
memory 32 gb

molecule  {
0 1
  N       -3.2235750     0.0000070     0.0001520
  C       -0.6037160    -0.0000080    -0.0000850
  C        0.0916120    -1.2188480    -0.0000380
  C        0.0915980     1.2188410    -0.0000380
  C        1.4853760    -1.2105100     0.0000370
  C        1.4853620     1.2105190     0.0000370
  C        2.1831530     0.0000080     0.0000710
  C       -2.0399480    -0.0000140    -0.0001810
  H       -0.4609944    -2.1546894    -0.1000690
  H       -0.4610240     2.1546760    -0.0000680
  H        2.0281230    -2.1522080     0.0000640
  H        2.0281000     2.1522220     0.0000650
  H        3.2702100     0.0000140     0.0001300
units angstrom
no_reorient  #important for SAPT in psi4, default
symmetry c1  #important for SAPT in psi4, default
}

set PROPERTIES_ORIGIN ["COM"]
properties('MP2/aug-cc-pvtz', properties = ['dipole'])
--------------------------------------------------------------------------

  Memory set to  29.802 GiB by Python driver.
    SCF Algorithm Type (re)set to DF.

*** tstart() called on node59.bme.utexas.edu
*** at Mon Nov  9 10:15:56 2020

   => Loading Basis Set <=

    Name: AUG-CC-PVTZ
    Role: ORBITAL
    Keyword: BASIS
    atoms 1    entry N          line   281 file /home/xy3866/psi4conda/share/psi4/basis/aug-cc-pvtz.gbs 
    atoms 2-8  entry C          line   235 file /home/xy3866/psi4conda/share/psi4/basis/aug-cc-pvtz.gbs 
    atoms 9-13 entry H          line    36 file /home/xy3866/psi4conda/share/psi4/basis/aug-cc-pvtz.gbs 


         ---------------------------------------------------------
                                   SCF
               by Justin Turney, Rob Parrish, Andy Simmonett
                          and Daniel G. A. Smith
                              RHF Reference
                        8 Threads,  30517 MiB Core
         ---------------------------------------------------------

  ==> Geometry <==

    Molecular point group: c1
    Full point group: C1

    Geometry (in Angstrom), charge = 0, multiplicity = 1:

       Center              X                  Y                   Z               Mass       
    ------------   -----------------  -----------------  -----------------  -----------------
         N           -3.161812091360     0.000007303412     0.001131162733    14.003074004430
         C           -0.541953091360    -0.000007696588     0.000894162733    12.000000000000
         C            0.153374908640    -1.218847696588     0.000941162733    12.000000000000
         C            0.153360908640     1.218841303412     0.000941162733    12.000000000000
         C            1.547138908640    -1.210509696588     0.001016162733    12.000000000000
         C            1.547124908640     1.210519303412     0.001016162733    12.000000000000
         C            2.244915908640     0.000008303412     0.001050162733    12.000000000000
         C           -1.978185091360    -0.000013696588     0.000798162733    12.000000000000
         H           -0.399231491360    -2.154689096588    -0.099089837267     1.007825032230
         H           -0.399261091360     2.154676303412     0.000911162733     1.007825032230
         H            2.089885908640    -2.152207696588     0.001043162733     1.007825032230
         H            2.089862908640     2.152222303412     0.001044162733     1.007825032230
         H            3.331972908640     0.000014303412     0.001109162733     1.007825032230

  Running in c1 symmetry.

  Rotational constants: A =      0.18830  B =      0.05119  C =      0.04025 [cm^-1]
  Rotational constants: A =   5645.00459  B =   1534.78648  C =   1206.75771 [MHz]
  Nuclear repulsion =  298.621163242555838

  Charge       = 0
  Multiplicity = 1
  Electrons    = 54
  Nalpha       = 27
  Nbeta        = 27

  ==> Algorithm <==

  SCF Algorithm Type is DF.
  DIIS enabled.
  MOM disabled.
  Fractional occupation disabled.
  Guess Type is SAD.
  Energy threshold   = 1.00e-10
  Density threshold  = 1.00e-10
  Integral threshold = 0.00e+00

  ==> Primary Basis <==

  Basis Set: AUG-CC-PVTZ
    Blend: AUG-CC-PVTZ
    Number of shells: 157
    Number of basis function: 483
    Number of Cartesian functions: 565
    Spherical Harmonics?: true
    Max angular momentum: 3

   => Loading Basis Set <=

    Name: (AUG-CC-PVTZ AUX)
    Role: JKFIT
    Keyword: DF_BASIS_SCF
    atoms 1    entry N          line   224 file /home/xy3866/psi4conda/share/psi4/basis/aug-cc-pvtz-jkfit.gbs 
    atoms 2-8  entry C          line   162 file /home/xy3866/psi4conda/share/psi4/basis/aug-cc-pvtz-jkfit.gbs 
    atoms 9-13 entry H          line    70 file /home/xy3866/psi4conda/share/psi4/basis/aug-cc-pvtz-jkfit.gbs 

  ==> Pre-Iterations <==

   -------------------------------------------------------
    Irrep   Nso     Nmo     Nalpha   Nbeta   Ndocc  Nsocc
   -------------------------------------------------------
     A        483     483       0       0       0       0
   -------------------------------------------------------
    Total     483     483      27      27      27       0
   -------------------------------------------------------

  ==> Integral Setup <==

  DFHelper Memory: AOs need 1.862 GiB; user supplied 22.352 GiB. Using in-core AOs.

  ==> MemDFJK: Density-Fitted J/K Matrices <==

    J tasked:                   Yes
    K tasked:                   Yes
    wK tasked:                   No
    OpenMP threads:               8
    Memory [MiB]:             22888
    Algorithm:                 Core
    Schwarz Cutoff:           1E-12
    Mask sparsity (%):       2.8908
    Fitting Condition:        1E-10

   => Auxiliary Basis Set <=

  Basis Set: (AUG-CC-PVTZ AUX)
    Blend: AUG-CC-PVTZ-JKFIT
    Number of shells: 310
    Number of basis function: 1062
    Number of Cartesian functions: 1323
    Spherical Harmonics?: true
    Max angular momentum: 4

  Minimum eigenvalue in the overlap matrix is 7.9676964751E-07.
  Using Symmetric Orthogonalization.

  SCF Guess: Superposition of Atomic Densities via on-the-fly atomic UHF.

  ==> Iterations <==

                           Total Energy        Delta E     RMS |[F,P]|

   @DF-RHF iter SAD:  -321.44264921378061   -3.21443e+02   0.00000e+00 
   @DF-RHF iter   1:  -322.35206211019567   -9.09413e-01   1.17659e-03 DIIS
   @DF-RHF iter   2:  -322.48595739351742   -1.33895e-01   6.91019e-04 DIIS
   @DF-RHF iter   3:  -322.53176027320859   -4.58029e-02   1.81880e-04 DIIS
   @DF-RHF iter   4:  -322.53546706829627   -3.70680e-03   7.99787e-05 DIIS
   @DF-RHF iter   5:  -322.53624284904527   -7.75781e-04   1.10861e-05 DIIS
   @DF-RHF iter   6:  -322.53626682551862   -2.39765e-05   3.55447e-06 DIIS
   @DF-RHF iter   7:  -322.53627057576205   -3.75024e-06   1.45516e-06 DIIS
   @DF-RHF iter   8:  -322.53627152198925   -9.46227e-07   6.93919e-07 DIIS
   @DF-RHF iter   9:  -322.53627188528992   -3.63301e-07   3.76196e-07 DIIS
   @DF-RHF iter  10:  -322.53627198593779   -1.00648e-07   1.56787e-07 DIIS
   @DF-RHF iter  11:  -322.53627200428298   -1.83452e-08   3.82087e-08 DIIS
   @DF-RHF iter  12:  -322.53627200485420   -5.71220e-10   1.47453e-08 DIIS
   @DF-RHF iter  13:  -322.53627200493702   -8.28209e-11   7.86543e-09 DIIS
   @DF-RHF iter  14:  -322.53627200496851   -3.14913e-11   3.95766e-09 DIIS
   @DF-RHF iter  15:  -322.53627200497817   -9.66338e-12   1.23536e-09 DIIS
   @DF-RHF iter  16:  -322.53627200497965   -1.47793e-12   3.00431e-10 DIIS
   @DF-RHF iter  17:  -322.53627200497993   -2.84217e-13   1.30621e-10 DIIS
   @DF-RHF iter  18:  -322.53627200497993    0.00000e+00   4.07205e-11 DIIS
  Energy and wave function converged.


  ==> Post-Iterations <==

    Orbital Energies [Eh]
    ---------------------

    Doubly Occupied:                                                      

       1A    -15.582085     2A    -11.294272     3A    -11.287019  
       4A    -11.275654     5A    -11.275304     6A    -11.270359  
       7A    -11.265057     8A    -11.264912     9A     -1.214918  
      10A     -1.179840    11A     -1.062641    12A     -1.047444  
      13A     -0.888171    14A     -0.859306    15A     -0.765604  
      16A     -0.700013    17A     -0.661215    18A     -0.637470  
      19A     -0.618569    20A     -0.566885    21A     -0.553036  
      22A     -0.535324    23A     -0.530356    24A     -0.476864  
      25A     -0.460106    26A     -0.366987    27A     -0.358329  

    Virtual:                                                              

      28A      0.020917    29A      0.029300    30A      0.035740  
      31A      0.048228    32A      0.051909    33A      0.058236  
      34A      0.074103    35A      0.082427    36A      0.083596  
      37A      0.091481    38A      0.099796    39A      0.102234  
      40A      0.103609    41A      0.107708    42A      0.109738  
      43A      0.120604    44A      0.125348    45A      0.131461  
      46A      0.131949    47A      0.137561    48A      0.138098  
      49A      0.146763    50A      0.148364    51A      0.149697  
      52A      0.157614    53A      0.163913    54A      0.172292  
      55A      0.178021    56A      0.197412    57A      0.209214  
      58A      0.210265    59A      0.224552    60A      0.228093  
      61A      0.235098    62A      0.240694    63A      0.247055  
      64A      0.250936    65A      0.258838    66A      0.263281  
      67A      0.266971    68A      0.268443    69A      0.281317  
      70A      0.294181    71A      0.298885    72A      0.300551  
      73A      0.302706    74A      0.310772    75A      0.311308  
      76A      0.325076    77A      0.328013    78A      0.332360  
      79A      0.336950    80A      0.343984    81A      0.356301  
      82A      0.364515    83A      0.367165    84A      0.388918  
      85A      0.395678    86A      0.401783    87A      0.412326  
      88A      0.421661    89A      0.423279    90A      0.425165  
      91A      0.435707    92A      0.438436    93A      0.444193  
      94A      0.452750    95A      0.455083    96A      0.458932  
      97A      0.460229    98A      0.468015    99A      0.473140  
     100A      0.482426   101A      0.483422   102A      0.494254  
     103A      0.494919   104A      0.501257   105A      0.509496  
     106A      0.511594   107A      0.515300   108A      0.521500  
     109A      0.526104   110A      0.531025   111A      0.533356  
     112A      0.578684   113A      0.579794   114A      0.590104  
     115A      0.598270   116A      0.611221   117A      0.612174  
     118A      0.617746   119A      0.621536   120A      0.623033  
     121A      0.638436   122A      0.641655   123A      0.652382  
     124A      0.668166   125A      0.674108   126A      0.679227  
     127A      0.681338   128A      0.694349   129A      0.703932  
     130A      0.715694   131A      0.722058   132A      0.728082  
     133A      0.731799   134A      0.741655   135A      0.767754  
     136A      0.770890   137A      0.775483   138A      0.786795  
     139A      0.803770   140A      0.816009   141A      0.825319  
     142A      0.834779   143A      0.837518   144A      0.857095  
     145A      0.858502   146A      0.862118   147A      0.866020  
     148A      0.870138   149A      0.877239   150A      0.881795  
     151A      0.884886   152A      0.889815   153A      0.897375  
     154A      0.910888   155A      0.915816   156A      0.917980  
     157A      0.922286   158A      0.946932   159A      0.960214  
     160A      0.964426   161A      0.973957   162A      0.985148  
     163A      0.989864   164A      0.993667   165A      1.008276  
     166A      1.015386   167A      1.023561   168A      1.027450  
     169A      1.034286   170A      1.041345   171A      1.050034  
     172A      1.063439   173A      1.067102   174A      1.070305  
     175A      1.072263   176A      1.079290   177A      1.084131  
     178A      1.087566   179A      1.127436   180A      1.131333  
     181A      1.133512   182A      1.141178   183A      1.150578  
     184A      1.158171   185A      1.162485   186A      1.175638  
     187A      1.176413   188A      1.180715   189A      1.186542  
     190A      1.199135   191A      1.199553   192A      1.207658  
     193A      1.212733   194A      1.216760   195A      1.219604  
     196A      1.234460   197A      1.242851   198A      1.246076  
     199A      1.252287   200A      1.279064   201A      1.286794  
     202A      1.308598   203A      1.327315   204A      1.337248  
     205A      1.344072   206A      1.349209   207A      1.356043  
     208A      1.370033   209A      1.379759   210A      1.390355  
     211A      1.413514   212A      1.426996   213A      1.436369  
     214A      1.447118   215A      1.459377   216A      1.462049  
     217A      1.486952   218A      1.494950   219A      1.503228  
     220A      1.517834   221A      1.530759   222A      1.552859  
     223A      1.585020   224A      1.594468   225A      1.619643  
     226A      1.624456   227A      1.630601   228A      1.638184  
     229A      1.652333   230A      1.656944   231A      1.676589  
     232A      1.689094   233A      1.725012   234A      1.729552  
     235A      1.734470   236A      1.747189   237A      1.769491  
     238A      1.779590   239A      1.795548   240A      1.809084  
     241A      1.809518   242A      1.811010   243A      1.814239  
     244A      1.818631   245A      1.846032   246A      1.846380  
     247A      1.867848   248A      1.879131   249A      1.882877  
     250A      1.890292   251A      1.898490   252A      1.926521  
     253A      1.931999   254A      1.954663   255A      1.958107  
     256A      1.976786   257A      1.991715   258A      1.996377  
     259A      2.008603   260A      2.018200   261A      2.021323  
     262A      2.044808   263A      2.055656   264A      2.056697  
     265A      2.067585   266A      2.094917   267A      2.098247  
     268A      2.107838   269A      2.116027   270A      2.122211  
     271A      2.154359   272A      2.173121   273A      2.199145  
     274A      2.204989   275A      2.219756   276A      2.263553  
     277A      2.274879   278A      2.281146   279A      2.321041  
     280A      2.326605   281A      2.338421   282A      2.349802  
     283A      2.352413   284A      2.358555   285A      2.376696  
     286A      2.389197   287A      2.408045   288A      2.414857  
     289A      2.424018   290A      2.446153   291A      2.477168  
     292A      2.517665   293A      2.528291   294A      2.548966  
     295A      2.555278   296A      2.561505   297A      2.589912  
     298A      2.698801   299A      2.699735   300A      2.724932  
     301A      2.739520   302A      2.752185   303A      2.761590  
     304A      2.783848   305A      2.876185   306A      2.903907  
     307A      2.952498   308A      2.987141   309A      3.082803  
     310A      3.095902   311A      3.131438   312A      3.153246  
     313A      3.164379   314A      3.185639   315A      3.193930  
     316A      3.273732   317A      3.276860   318A      3.282749  
     319A      3.293230   320A      3.310271   321A      3.333550  
     322A      3.338492   323A      3.356651   324A      3.362414  
     325A      3.377170   326A      3.407090   327A      3.422029  
     328A      3.429101   329A      3.437877   330A      3.440417  
     331A      3.460923   332A      3.485370   333A      3.507880  
     334A      3.518369   335A      3.519155   336A      3.540621  
     337A      3.544751   338A      3.567112   339A      3.576628  
     340A      3.582758   341A      3.595994   342A      3.618078  
     343A      3.619471   344A      3.622399   345A      3.632011  
     346A      3.664375   347A      3.696526   348A      3.707874  
     349A      3.726497   350A      3.730818   351A      3.753755  
     352A      3.768674   353A      3.784783   354A      3.814242  
     355A      3.817682   356A      3.831707   357A      3.843612  
     358A      3.851890   359A      3.862705   360A      3.871258  
     361A      3.905017   362A      3.911294   363A      3.919274  
     364A      3.936120   365A      3.955849   366A      3.969356  
     367A      3.976362   368A      3.987608   369A      4.003924  
     370A      4.008112   371A      4.018262   372A      4.048971  
     373A      4.062495   374A      4.066919   375A      4.099355  
     376A      4.107798   377A      4.119398   378A      4.146026  
     379A      4.153642   380A      4.165383   381A      4.193629  
     382A      4.234832   383A      4.248439   384A      4.264575  
     385A      4.269900   386A      4.273373   387A      4.305770  
     388A      4.331158   389A      4.338087   390A      4.353273  
     391A      4.366711   392A      4.368834   393A      4.378980  
     394A      4.382590   395A      4.398364   396A      4.403458  
     397A      4.415346   398A      4.435616   399A      4.445930  
     400A      4.452333   401A      4.495454   402A      4.575755  
     403A      4.582659   404A      4.638795   405A      4.664155  
     406A      4.683695   407A      4.693137   408A      4.709210  
     409A      4.732551   410A      4.741922   411A      4.754982  
     412A      4.756048   413A      4.851657   414A      4.854977  
     415A      4.874825   416A      4.911356   417A      4.932044  
     418A      4.947657   419A      4.965171   420A      5.019326  
     421A      5.021849   422A      5.029206   423A      5.032198  
     424A      5.047342   425A      5.050377   426A      5.084751  
     427A      5.090965   428A      5.109025   429A      5.116113  
     430A      5.119577   431A      5.124342   432A      5.129078  
     433A      5.155143   434A      5.228889   435A      5.243543  
     436A      5.251637   437A      5.284241   438A      5.306330  
     439A      5.323570   440A      5.353252   441A      5.376927  
     442A      5.391426   443A      5.396242   444A      5.429033  
     445A      5.459443   446A      5.535283   447A      5.622476  
     448A      5.630283   449A      5.632010   450A      5.700278  
     451A      5.709734   452A      5.762626   453A      5.777094  
     454A      5.821253   455A      5.842225   456A      5.913830  
     457A      5.932216   458A      6.057304   459A      6.077809  
     460A      6.153539   461A      6.175308   462A      6.218775  
     463A      6.266521   464A      6.308189   465A      6.382949  
     466A      6.521500   467A      6.533743   468A      6.567289  
     469A      6.674946   470A      6.762037   471A      6.829208  
     472A      6.986410   473A      7.025577   474A      7.171859  
     475A      7.359230   476A     15.532812   477A     15.962032  
     478A     16.658321   479A     18.476188   480A     18.538879  
     481A     19.599159   482A     19.821581   483A     20.244182  

    Final Occupation by Irrep:
              A 
    DOCC [    27 ]

  @DF-RHF Final Energy:  -322.53627200497993

   => Energetics <=

    Nuclear Repulsion Energy =            298.6211632425558378
    One-Electron Energy =               -1026.3193907140262127
    Two-Electron Energy =                 405.1619554664903831
    Total Energy =                       -322.5362720049799350

Computation Completed

*** tstop() called on node59.bme.utexas.edu at Mon Nov  9 10:16:09 2020
Module time:
	user time   =      87.74 seconds =       1.46 minutes
	system time =       2.85 seconds =       0.05 minutes
	total time  =         13 seconds =       0.22 minutes
Total time:
	user time   =      87.74 seconds =       1.46 minutes
	system time =       2.85 seconds =       0.05 minutes
	total time  =         13 seconds =       0.22 minutes
   => Loading Basis Set <=

    Name: (AUG-CC-PVTZ AUX)
    Role: RIFIT
    Keyword: DF_BASIS_MP2
    atoms 1    entry N          line   206 file /home/xy3866/psi4conda/share/psi4/basis/aug-cc-pvtz-ri.gbs 
    atoms 2-8  entry C          line   148 file /home/xy3866/psi4conda/share/psi4/basis/aug-cc-pvtz-ri.gbs 
    atoms 9-13 entry H          line    30 file /home/xy3866/psi4conda/share/psi4/basis/aug-cc-pvtz-ri.gbs 


*** tstart() called on node59.bme.utexas.edu
*** at Mon Nov  9 10:16:09 2020


  //>>>>>>>>>>>>>>>>>>>>>>>>>>>>>>>>>>>//
  //               DFMP2               //
  //<<<<<<<<<<<<<<<<<<<<<<<<<<<<<<<<<<<//

	 --------------------------------------------------------
	                          DF-MP2                         
	      2nd-Order Density-Fitted Moller-Plesset Theory     
	              RMP2 Wavefunction,   8 Threads             
	                                                         
	        Rob Parrish, Justin Turney, Andy Simmonett,      
	           Ed Hohenstein, and C. David Sherrill          
	 --------------------------------------------------------

   => Auxiliary Basis Set <=

  Basis Set: (AUG-CC-PVTZ AUX)
    Blend: AUG-CC-PVTZ-RI
    Number of shells: 294
    Number of basis function: 1078
    Number of Cartesian functions: 1363
    Spherical Harmonics?: true
    Max angular momentum: 4

	 --------------------------------------------------------
	                 NBF =   483, NAUX =  1078
	 --------------------------------------------------------
	   CLASS    FOCC     OCC    AOCC    AVIR     VIR    FVIR
	   PAIRS       0      27      27     456     456       0
	 --------------------------------------------------------

  DFHelper Memory: AOs need 1.862 GiB; user supplied 22.352 GiB. Using in-core AOs.


         ------------------------------------------------------------
                                     CPHF                           
                                  Rob Parrish                       
         ------------------------------------------------------------

  ==> Geometry <==

    Molecular point group: c1
    Full point group: C1

    Geometry (in Angstrom), charge = 0, multiplicity = 1:

       Center              X                  Y                   Z               Mass       
    ------------   -----------------  -----------------  -----------------  -----------------
         N           -3.161812091360     0.000007303412     0.001131162733    14.003074004430
         C           -0.541953091360    -0.000007696588     0.000894162733    12.000000000000
         C            0.153374908640    -1.218847696588     0.000941162733    12.000000000000
         C            0.153360908640     1.218841303412     0.000941162733    12.000000000000
         C            1.547138908640    -1.210509696588     0.001016162733    12.000000000000
         C            1.547124908640     1.210519303412     0.001016162733    12.000000000000
         C            2.244915908640     0.000008303412     0.001050162733    12.000000000000
         C           -1.978185091360    -0.000013696588     0.000798162733    12.000000000000
         H           -0.399231491360    -2.154689096588    -0.099089837267     1.007825032230
         H           -0.399261091360     2.154676303412     0.000911162733     1.007825032230
         H            2.089885908640    -2.152207696588     0.001043162733     1.007825032230
         H            2.089862908640     2.152222303412     0.001044162733     1.007825032230
         H            3.331972908640     0.000014303412     0.001109162733     1.007825032230

  Nuclear repulsion =  298.621163242555838
  Reference energy  = -322.536272004979935

  ==> Basis Set <==

  Basis Set: AUG-CC-PVTZ
    Blend: AUG-CC-PVTZ
    Number of shells: 157
    Number of basis function: 483
    Number of Cartesian functions: 565
    Spherical Harmonics?: true
    Max angular momentum: 3

  ==> CGRSolver (by Rob Parrish) <==

   Number of roots    =         1
   Preconditioning    =    JACOBI
   Convergence cutoff =     1E-06
   Maximum iterations =       100

  ==> CPHFRHamiltonian (by Rob Parrish) <== 

  ==> MemDFJK: Density-Fitted J/K Matrices <==

    J tasked:                   Yes
    K tasked:                   Yes
    wK tasked:                   No
    OpenMP threads:               8
    Memory [MiB]:             22888
    Algorithm:                 Core
    Schwarz Cutoff:           1E-12
    Mask sparsity (%):       2.8908
    Fitting Condition:        1E-10

   => Auxiliary Basis Set <=

  Basis Set: (AUG-CC-PVTZ AUX)
    Blend: AUG-CC-PVTZ-JKFIT
    Number of shells: 310
    Number of basis function: 1062
    Number of Cartesian functions: 1323
    Spherical Harmonics?: true
    Max angular momentum: 4

  ==> CPHF Iterations <==

  => Iterations <=

             Iter  Converged  Remaining    Residual
  CGR           1          0          1   8.746E-02
  CGR           2          0          1   3.414E-02
  CGR           3          0          1   1.811E-02
  CGR           4          0          1   1.159E-02
  CGR           5          0          1   3.706E-03
  CGR           6          0          1   1.330E-03
  CGR           7          0          1   5.524E-04
  CGR           8          0          1   3.349E-04
  CGR           9          0          1   1.238E-04
  CGR          10          0          1   3.617E-05
  CGR          11          0          1   1.219E-05
  CGR          12          0          1   2.832E-06
  CGR          13          1          0   6.903E-07

    CGRSolver converged.

	-----------------------------------------------------------
	 ==================> DF-MP2 Energies <==================== 
	-----------------------------------------------------------
	 Reference Energy          =    -322.5362720049799350 [Eh]
	 Singles Energy            =      -0.0000000000000000 [Eh]
	 Same-Spin Energy          =      -0.3530821797535716 [Eh]
	 Opposite-Spin Energy      =      -1.0915059513584435 [Eh]
	 Correlation Energy        =      -1.4445881311120150 [Eh]
	 Total Energy              =    -323.9808601360919624 [Eh]
	-----------------------------------------------------------
	 ================> DF-SCS-MP2 Energies <================== 
	-----------------------------------------------------------
	 SCS Same-Spin Scale       =       0.3333333333333333 [-]
	 SCS Opposite-Spin Scale   =       1.2000000000000000 [-]
	 SCS Same-Spin Energy      =      -0.1176940599178572 [Eh]
	 SCS Opposite-Spin Energy  =      -1.3098071416301322 [Eh]
	 SCS Correlation Energy    =      -1.4275012015479893 [Eh]
	 SCS Total Energy          =    -323.9637732065279465 [Eh]
	-----------------------------------------------------------



Properties will be evaluated at  -0.000000,   0.000000,   0.000000 [a0]

Properties computed using the MP2 density matrix

  Nuclear Dipole Moment: [e a0]
     X:     6.3026      Y:     0.0000      Z:    -0.0890

  Electronic Dipole Moment: [e a0]
     X:    -4.5216      Y:     0.0025      Z:     0.0631

  Dipole Moment: [e a0]
     X:     1.7811      Y:     0.0025      Z:    -0.0260     Total:     1.7813

  Dipole Moment: [D]
     X:     4.5271      Y:     0.0063      Z:    -0.0660     Total:     4.5275


*** tstop() called on node59.bme.utexas.edu at Mon Nov  9 10:16:52 2020
Module time:
	user time   =     292.63 seconds =       4.88 minutes
	system time =       6.95 seconds =       0.12 minutes
	total time  =         43 seconds =       0.72 minutes
Total time:
	user time   =     381.36 seconds =       6.36 minutes
	system time =       9.86 seconds =       0.16 minutes
	total time  =         56 seconds =       0.93 minutes

    Psi4 stopped on: Monday, 09 November 2020 10:16AM
    Psi4 wall time for execution: 0:00:56.27

*** Psi4 exiting successfully. Buy a developer a beer!
