
    -----------------------------------------------------------------------
          Psi4: An Open-Source Ab Initio Electronic Structure Package
                               Psi4 1.3.2 release

                         Git: Rev {HEAD} ecbda83 


    R. M. Parrish, L. A. Burns, D. G. A. Smith, A. C. Simmonett,
    A. E. DePrince III, E. G. Hohenstein, U. Bozkaya, A. Yu. Sokolov,
    R. Di Remigio, R. M. Richard, J. F. Gonthier, A. M. James,
    H. R. McAlexander, A. Kumar, M. Saitow, X. Wang, B. P. Pritchard,
    P. Verma, H. F. Schaefer III, K. Patkowski, R. A. King, E. F. Valeev,
    F. A. Evangelista, J. M. Turney, T. D. Crawford, and C. D. Sherrill,
    J. Chem. Theory Comput. 13(7) pp 3185--3197 (2017).
    (doi: 10.1021/acs.jctc.7b00174)


                         Additional Contributions by
    P. Kraus, H. Kruse, M. H. Lechner, M. C. Schieber, R. A. Shaw,
    A. Alenaizan, R. Galvelis, Z. L. Glick, S. Lehtola, and J. P. Misiewicz

    -----------------------------------------------------------------------


    Psi4 started on: Monday, 08 February 2021 03:44PM

    Process ID: 1914747
    Host:       node54.bme.utexas.edu
    PSIDATADIR: /home/xy3866/psi4conda/share/psi4
    Memory:     500.0 MiB
    Threads:    8
    
  ==> Input File <==

--------------------------------------------------------------------------
#psi4
#
memory 32 gb

molecule  {
0 1
  O        3.0945450    -0.5978990    -0.2227500
  N        0.8732720    -0.9469790     0.1890630
  C        0.1786250     1.7001670     0.9719610
  C        1.1438980     2.1917080    -0.1170310
  C       -0.8608580     0.7595260     0.4300750
  C        1.5465590     1.0555900    -1.0683300
  C       -0.4305652    -0.4276385    -0.0218124
  C        1.9260440    -0.2179400    -0.3394640
  C       -2.2011530     1.1304640     0.2820740
  C       -1.4377800    -1.4595290    -0.4043930
  C        1.1800400    -2.2400020     0.7973640
  C       -3.1574580     0.2247240    -0.1803460
  C       -2.7731680    -1.0742070    -0.5192260
  H       -0.3080960     2.5514800     1.4609130
  H        0.7541300     1.1728590     1.7431030
  H        0.6757450     2.9910460    -0.7037420
  H        2.0370980     2.6179610     0.3539850
  H        2.4176540     1.3419220    -1.6627910
  H        0.7204100     0.8435550    -1.7555650
  H       -2.5026250     2.1373940     0.5668430
  H       -1.1292290    -2.4616270    -0.6921390
  H        1.2028300    -3.0439780     0.0536200
  H        0.4229280    -2.4619330     1.5509630
  H        2.1652810    -2.1715440     1.2577890
  H       -4.1964680     0.5304710    -0.2745970
  H       -3.5107020    -1.7878430    -0.8784520
units angstrom
no_reorient  #important for SAPT in psi4, default
symmetry c1  #important for SAPT in psi4, default
}

set PROPERTIES_ORIGIN ["COM"]
properties('MP2/aug-cc-pvtz', properties = ['dipole'])
--------------------------------------------------------------------------

  Memory set to  29.802 GiB by Python driver.
    SCF Algorithm Type (re)set to DF.

*** tstart() called on node54.bme.utexas.edu
*** at Mon Feb  8 15:44:54 2021

   => Loading Basis Set <=

    Name: AUG-CC-PVTZ
    Role: ORBITAL
    Keyword: BASIS
    atoms 1     entry O          line   327 file /home/xy3866/psi4conda/share/psi4/basis/aug-cc-pvtz.gbs 
    atoms 2     entry N          line   281 file /home/xy3866/psi4conda/share/psi4/basis/aug-cc-pvtz.gbs 
    atoms 3-13  entry C          line   235 file /home/xy3866/psi4conda/share/psi4/basis/aug-cc-pvtz.gbs 
    atoms 14-26 entry H          line    36 file /home/xy3866/psi4conda/share/psi4/basis/aug-cc-pvtz.gbs 


         ---------------------------------------------------------
                                   SCF
               by Justin Turney, Rob Parrish, Andy Simmonett
                          and Daniel G. A. Smith
                              RHF Reference
                        8 Threads,  30517 MiB Core
         ---------------------------------------------------------

  ==> Geometry <==

    Molecular point group: c1
    Full point group: C1

    Geometry (in Angstrom), charge = 0, multiplicity = 1:

       Center              X                  Y                   Z               Mass       
    ------------   -----------------  -----------------  -----------------  -----------------
         O            3.084066127126    -0.593146480785    -0.211801759014    15.994914619570
         N            0.862793127126    -0.942226480785     0.200011240986    14.003074004430
         C            0.168146127126     1.704919519215     0.982909240986    12.000000000000
         C            1.133419127126     2.196460519215    -0.106082759014    12.000000000000
         C           -0.871336872874     0.764278519215     0.441023240986    12.000000000000
         C            1.536080127126     1.060342519215    -1.057381759014    12.000000000000
         C           -0.441044072874    -0.422885980785    -0.010864159014    12.000000000000
         C            1.915565127126    -0.213187480785    -0.328515759014    12.000000000000
         C           -2.211631872874     1.135216519215     0.293022240986    12.000000000000
         C           -1.448258872874    -1.454776480785    -0.393444759014    12.000000000000
         C            1.169561127126    -2.235249480785     0.808312240986    12.000000000000
         C           -3.167936872874     0.229476519215    -0.169397759014    12.000000000000
         C           -2.783646872874    -1.069454480785    -0.508277759014    12.000000000000
         H           -0.318574872874     2.556232519215     1.471861240986     1.007825032230
         H            0.743651127126     1.177611519215     1.754051240986     1.007825032230
         H            0.665266127126     2.995798519215    -0.692793759014     1.007825032230
         H            2.026619127126     2.622713519215     0.364933240986     1.007825032230
         H            2.407175127126     1.346674519215    -1.651842759014     1.007825032230
         H            0.709931127126     0.848307519215    -1.744616759014     1.007825032230
         H           -2.513103872874     2.142146519215     0.577791240986     1.007825032230
         H           -1.139707872874    -2.456874480785    -0.681190759014     1.007825032230
         H            1.192351127126    -3.039225480785     0.064568240986     1.007825032230
         H            0.412449127126    -2.457180480785     1.561911240986     1.007825032230
         H            2.154802127126    -2.166791480785     1.268737240986     1.007825032230
         H           -4.206946872874     0.535223519215    -0.263648759014     1.007825032230
         H           -3.521180872874    -1.783090480785    -0.867503759014     1.007825032230

  Running in c1 symmetry.

  Rotational constants: A =      0.04536  B =      0.02431  C =      0.01790 [cm^-1]
  Rotational constants: A =   1359.87321  B =    728.85336  C =    536.63875 [MHz]
  Nuclear repulsion =  797.983703994943426

  Charge       = 0
  Multiplicity = 1
  Electrons    = 94
  Nalpha       = 47
  Nbeta        = 47

  ==> Algorithm <==

  SCF Algorithm Type is DF.
  DIIS enabled.
  MOM disabled.
  Fractional occupation disabled.
  Guess Type is SAD.
  Energy threshold   = 1.00e-10
  Density threshold  = 1.00e-10
  Integral threshold = 0.00e+00

  ==> Primary Basis <==

  Basis Set: AUG-CC-PVTZ
    Blend: AUG-CC-PVTZ
    Number of shells: 299
    Number of basis function: 897
    Number of Cartesian functions: 1040
    Spherical Harmonics?: true
    Max angular momentum: 3

   => Loading Basis Set <=

    Name: (AUG-CC-PVTZ AUX)
    Role: JKFIT
    Keyword: DF_BASIS_SCF
    atoms 1     entry O          line   286 file /home/xy3866/psi4conda/share/psi4/basis/aug-cc-pvtz-jkfit.gbs 
    atoms 2     entry N          line   224 file /home/xy3866/psi4conda/share/psi4/basis/aug-cc-pvtz-jkfit.gbs 
    atoms 3-13  entry C          line   162 file /home/xy3866/psi4conda/share/psi4/basis/aug-cc-pvtz-jkfit.gbs 
    atoms 14-26 entry H          line    70 file /home/xy3866/psi4conda/share/psi4/basis/aug-cc-pvtz-jkfit.gbs 

  ==> Pre-Iterations <==

   -------------------------------------------------------
    Irrep   Nso     Nmo     Nalpha   Nbeta   Ndocc  Nsocc
   -------------------------------------------------------
     A        897     897       0       0       0       0
   -------------------------------------------------------
    Total     897     897      47      47      47       0
   -------------------------------------------------------

  ==> Integral Setup <==

  DFHelper Memory: AOs need 11.217 GiB; user supplied 22.352 GiB. Using in-core AOs.

  ==> MemDFJK: Density-Fitted J/K Matrices <==

    J tasked:                   Yes
    K tasked:                   Yes
    wK tasked:                   No
    OpenMP threads:               8
    Memory [MiB]:             22888
    Algorithm:                 Disk
    Schwarz Cutoff:           1E-12
    Mask sparsity (%):       6.0832
    Fitting Condition:        1E-10

   => Auxiliary Basis Set <=

  Basis Set: (AUG-CC-PVTZ AUX)
    Blend: AUG-CC-PVTZ-JKFIT
    Number of shells: 572
    Number of basis function: 1950
    Number of Cartesian functions: 2418
    Spherical Harmonics?: true
    Max angular momentum: 4

  Minimum eigenvalue in the overlap matrix is 3.9620695232E-07.
  Using Symmetric Orthogonalization.

  SCF Guess: Superposition of Atomic Densities via on-the-fly atomic UHF.

  ==> Iterations <==

                           Total Energy        Delta E     RMS |[F,P]|

   @DF-RHF iter SAD:  -553.54439896850158   -5.53544e+02   0.00000e+00 
   @DF-RHF iter   1:  -553.22785972459633    3.16539e-01   9.09415e-04 DIIS
   @DF-RHF iter   2:  -553.53818156444663   -3.10322e-01   4.70357e-04 DIIS
   @DF-RHF iter   3:  -553.61216131949311   -7.39798e-02   1.07101e-04 DIIS
   @DF-RHF iter   4:  -553.61770269582689   -5.54138e-03   4.89555e-05 DIIS
   @DF-RHF iter   5:  -553.61870186872466   -9.99173e-04   9.34460e-06 DIIS
   @DF-RHF iter   6:  -553.61877336246516   -7.14937e-05   4.90809e-06 DIIS
   @DF-RHF iter   7:  -553.61879003806962   -1.66756e-05   1.73661e-06 DIIS
   @DF-RHF iter   8:  -553.61879390915271   -3.87108e-06   8.21267e-07 DIIS
   @DF-RHF iter   9:  -553.61879475009368   -8.40941e-07   2.80385e-07 DIIS
   @DF-RHF iter  10:  -553.61879487578437   -1.25691e-07   9.44646e-08 DIIS
   @DF-RHF iter  11:  -553.61879488989530   -1.41109e-08   4.04581e-08 DIIS
   @DF-RHF iter  12:  -553.61879489246746   -2.57216e-09   1.94950e-08 DIIS
   @DF-RHF iter  13:  -553.61879489324679   -7.79323e-10   8.23506e-09 DIIS
   @DF-RHF iter  14:  -553.61879489338685   -1.40062e-10   3.79257e-09 DIIS
   @DF-RHF iter  15:  -553.61879489341641   -2.95586e-11   1.44285e-09 DIIS
   @DF-RHF iter  16:  -553.61879489342130   -4.88853e-12   6.73038e-10 DIIS
   @DF-RHF iter  17:  -553.61879489342186   -5.68434e-13   2.73964e-10 DIIS
   @DF-RHF iter  18:  -553.61879489342130    5.68434e-13   1.02947e-10 DIIS
   @DF-RHF iter  19:  -553.61879489341879    2.50111e-12   5.67407e-11 DIIS
  Energy and wave function converged.


  ==> Post-Iterations <==

    Orbital Energies [Eh]
    ---------------------

    Doubly Occupied:                                                      

       1A    -20.515955     2A    -15.593810     3A    -11.345983  
       4A    -11.285334     5A    -11.261228     6A    -11.253195  
       7A    -11.246320     8A    -11.245141     9A    -11.243322  
      10A    -11.242345    11A    -11.240031    12A    -11.236791  
      13A    -11.236044    14A     -1.372393    15A     -1.261502  
      16A     -1.155301    17A     -1.098603    18A     -1.036157  
      19A     -1.010452    20A     -0.979536    21A     -0.925307  
      22A     -0.864470    23A     -0.842447    24A     -0.798874  
      25A     -0.746843    26A     -0.691569    27A     -0.684634  
      28A     -0.668265    29A     -0.658406    30A     -0.621489  
      31A     -0.616722    32A     -0.607017    33A     -0.594890  
      34A     -0.580764    35A     -0.573967    36A     -0.553817  
      37A     -0.534635    38A     -0.523395    39A     -0.518589  
      40A     -0.509759    41A     -0.494514    42A     -0.485890  
      43A     -0.469272    44A     -0.419062    45A     -0.403030  
      46A     -0.341832    47A     -0.318392  

    Virtual:                                                              

      48A      0.024222    49A      0.028694    50A      0.033520  
      51A      0.035103    52A      0.043042    53A      0.045652  
      54A      0.051294    55A      0.051718    56A      0.058243  
      57A      0.062305    58A      0.066451    59A      0.073305  
      60A      0.082970    61A      0.085746    62A      0.093541  
      63A      0.094608    64A      0.100893    65A      0.103844  
      66A      0.107412    67A      0.111724    68A      0.115699  
      69A      0.117389    70A      0.120257    71A      0.121232  
      72A      0.124962    73A      0.132262    74A      0.133210  
      75A      0.135953    76A      0.138088    77A      0.139562  
      78A      0.143412    79A      0.148198    80A      0.149715  
      81A      0.150998    82A      0.153043    83A      0.157254  
      84A      0.159270    85A      0.167248    86A      0.170884  
      87A      0.171429    88A      0.175979    89A      0.176546  
      90A      0.180869    91A      0.188451    92A      0.193163  
      93A      0.197674    94A      0.199815    95A      0.204044  
      96A      0.214018    97A      0.216478    98A      0.228993  
      99A      0.233458   100A      0.237205   101A      0.241011  
     102A      0.250523   103A      0.253290   104A      0.256997  
     105A      0.259794   106A      0.262081   107A      0.268616  
     108A      0.269838   109A      0.274106   110A      0.278154  
     111A      0.280287   112A      0.285914   113A      0.291768  
     114A      0.297683   115A      0.299189   116A      0.302702  
     117A      0.310329   118A      0.313017   119A      0.315528  
     120A      0.318433   121A      0.323972   122A      0.325706  
     123A      0.327764   124A      0.332688   125A      0.336591  
     126A      0.340312   127A      0.342958   128A      0.344968  
     129A      0.351387   130A      0.352908   131A      0.360271  
     132A      0.361334   133A      0.365815   134A      0.371562  
     135A      0.373038   136A      0.375766   137A      0.380405  
     138A      0.386882   139A      0.392818   140A      0.400858  
     141A      0.403228   142A      0.407976   143A      0.412454  
     144A      0.413999   145A      0.418659   146A      0.420161  
     147A      0.424961   148A      0.428296   149A      0.429726  
     150A      0.434542   151A      0.441059   152A      0.447700  
     153A      0.448185   154A      0.452508   155A      0.457614  
     156A      0.459924   157A      0.461947   158A      0.466838  
     159A      0.467925   160A      0.472826   161A      0.476412  
     162A      0.478918   163A      0.484901   164A      0.488780  
     165A      0.492688   166A      0.496878   167A      0.498940  
     168A      0.504387   169A      0.504651   170A      0.506795  
     171A      0.511629   172A      0.514637   173A      0.515231  
     174A      0.519757   175A      0.525065   176A      0.528497  
     177A      0.531337   178A      0.536066   179A      0.538216  
     180A      0.539200   181A      0.542858   182A      0.546792  
     183A      0.552366   184A      0.553840   185A      0.557957  
     186A      0.560060   187A      0.564987   188A      0.568395  
     189A      0.578044   190A      0.580734   191A      0.584859  
     192A      0.592005   193A      0.595274   194A      0.601576  
     195A      0.603219   196A      0.609235   197A      0.609748  
     198A      0.610671   199A      0.614808   200A      0.625678  
     201A      0.628822   202A      0.633497   203A      0.636628  
     204A      0.641094   205A      0.642509   206A      0.650949  
     207A      0.655761   208A      0.660575   209A      0.665060  
     210A      0.669697   211A      0.675456   212A      0.682900  
     213A      0.686101   214A      0.693211   215A      0.697767  
     216A      0.699812   217A      0.705207   218A      0.714900  
     219A      0.716397   220A      0.723537   221A      0.729680  
     222A      0.732092   223A      0.736940   224A      0.746984  
     225A      0.753047   226A      0.755657   227A      0.762208  
     228A      0.766062   229A      0.776916   230A      0.779816  
     231A      0.786262   232A      0.793699   233A      0.798344  
     234A      0.800366   235A      0.807737   236A      0.811509  
     237A      0.814785   238A      0.820169   239A      0.827723  
     240A      0.831736   241A      0.835125   242A      0.840479  
     243A      0.848284   244A      0.855444   245A      0.863701  
     246A      0.866860   247A      0.869139   248A      0.872314  
     249A      0.875278   250A      0.879679   251A      0.890371  
     252A      0.894267   253A      0.896096   254A      0.902729  
     255A      0.906778   256A      0.908087   257A      0.912556  
     258A      0.920580   259A      0.923243   260A      0.925380  
     261A      0.928937   262A      0.933058   263A      0.943395  
     264A      0.946160   265A      0.949784   266A      0.952401  
     267A      0.960965   268A      0.964973   269A      0.969987  
     270A      0.976583   271A      0.979642   272A      0.984603  
     273A      0.989018   274A      0.994158   275A      0.996139  
     276A      1.001782   277A      1.005311   278A      1.009581  
     279A      1.017149   280A      1.027666   281A      1.030593  
     282A      1.035695   283A      1.037339   284A      1.042787  
     285A      1.044318   286A      1.053086   287A      1.057128  
     288A      1.062362   289A      1.063560   290A      1.071655  
     291A      1.074362   292A      1.081104   293A      1.087203  
     294A      1.089095   295A      1.092296   296A      1.094742  
     297A      1.097507   298A      1.105156   299A      1.107595  
     300A      1.109655   301A      1.116826   302A      1.122031  
     303A      1.124347   304A      1.132803   305A      1.135208  
     306A      1.136617   307A      1.138591   308A      1.151285  
     309A      1.155819   310A      1.159081   311A      1.165432  
     312A      1.167498   313A      1.174827   314A      1.180185  
     315A      1.183534   316A      1.187699   317A      1.191172  
     318A      1.196647   319A      1.198989   320A      1.206178  
     321A      1.210996   322A      1.213496   323A      1.220252  
     324A      1.231246   325A      1.235642   326A      1.237580  
     327A      1.238119   328A      1.241409   329A      1.250336  
     330A      1.255702   331A      1.260011   332A      1.267570  
     333A      1.273633   334A      1.276965   335A      1.281579  
     336A      1.283636   337A      1.286467   338A      1.291181  
     339A      1.297916   340A      1.303544   341A      1.306670  
     342A      1.312584   343A      1.317345   344A      1.335523  
     345A      1.341399   346A      1.349486   347A      1.352033  
     348A      1.359040   349A      1.362895   350A      1.375578  
     351A      1.378645   352A      1.387769   353A      1.393428  
     354A      1.403348   355A      1.410547   356A      1.412406  
     357A      1.413338   358A      1.416338   359A      1.430328  
     360A      1.434492   361A      1.444162   362A      1.450471  
     363A      1.459253   364A      1.465673   365A      1.472206  
     366A      1.474557   367A      1.485707   368A      1.490140  
     369A      1.492449   370A      1.500377   371A      1.503070  
     372A      1.511432   373A      1.516332   374A      1.519897  
     375A      1.528314   376A      1.530505   377A      1.537887  
     378A      1.546228   379A      1.555764   380A      1.564339  
     381A      1.567299   382A      1.571057   383A      1.580357  
     384A      1.585301   385A      1.588690   386A      1.591549  
     387A      1.601747   388A      1.610752   389A      1.615815  
     390A      1.620603   391A      1.628251   392A      1.631482  
     393A      1.637623   394A      1.647919   395A      1.654331  
     396A      1.657266   397A      1.661858   398A      1.666727  
     399A      1.670953   400A      1.678258   401A      1.687620  
     402A      1.691351   403A      1.699590   404A      1.707758  
     405A      1.714189   406A      1.722115   407A      1.730562  
     408A      1.734716   409A      1.736734   410A      1.743316  
     411A      1.749770   412A      1.753836   413A      1.762430  
     414A      1.768232   415A      1.773710   416A      1.774393  
     417A      1.782801   418A      1.795452   419A      1.799773  
     420A      1.806429   421A      1.807634   422A      1.814906  
     423A      1.827679   424A      1.830480   425A      1.835444  
     426A      1.844332   427A      1.848921   428A      1.856714  
     429A      1.858376   430A      1.868948   431A      1.874315  
     432A      1.876827   433A      1.880713   434A      1.885992  
     435A      1.889034   436A      1.891139   437A      1.902514  
     438A      1.903694   439A      1.918840   440A      1.928173  
     441A      1.933026   442A      1.945315   443A      1.955076  
     444A      1.957748   445A      1.961238   446A      1.965872  
     447A      1.979251   448A      1.982977   449A      1.993077  
     450A      2.000276   451A      2.004299   452A      2.012312  
     453A      2.020576   454A      2.031484   455A      2.033689  
     456A      2.043137   457A      2.050918   458A      2.054704  
     459A      2.061141   460A      2.064169   461A      2.068913  
     462A      2.078409   463A      2.081100   464A      2.086168  
     465A      2.093023   466A      2.102094   467A      2.111446  
     468A      2.117409   469A      2.121438   470A      2.134220  
     471A      2.141729   472A      2.145873   473A      2.163642  
     474A      2.169990   475A      2.175803   476A      2.177991  
     477A      2.192744   478A      2.193151   479A      2.203677  
     480A      2.211406   481A      2.220542   482A      2.231181  
     483A      2.235175   484A      2.240155   485A      2.241847  
     486A      2.257319   487A      2.259111   488A      2.262707  
     489A      2.271089   490A      2.277304   491A      2.301190  
     492A      2.307056   493A      2.307389   494A      2.318335  
     495A      2.323428   496A      2.333723   497A      2.340646  
     498A      2.348831   499A      2.358587   500A      2.362694  
     501A      2.373828   502A      2.385999   503A      2.390161  
     504A      2.405651   505A      2.406886   506A      2.417646  
     507A      2.427941   508A      2.437108   509A      2.442580  
     510A      2.448448   511A      2.470259   512A      2.473994  
     513A      2.475656   514A      2.495310   515A      2.497971  
     516A      2.507917   517A      2.519314   518A      2.529520  
     519A      2.531924   520A      2.543207   521A      2.563710  
     522A      2.577827   523A      2.590614   524A      2.592440  
     525A      2.605349   526A      2.618373   527A      2.626812  
     528A      2.640233   529A      2.644911   530A      2.654906  
     531A      2.668291   532A      2.680416   533A      2.692445  
     534A      2.696987   535A      2.710315   536A      2.717615  
     537A      2.735716   538A      2.740127   539A      2.758696  
     540A      2.773355   541A      2.788943   542A      2.801590  
     543A      2.816711   544A      2.826941   545A      2.839840  
     546A      2.841166   547A      2.864482   548A      2.884612  
     549A      2.910096   550A      2.928588   551A      2.932002  
     552A      2.950942   553A      2.963792   554A      2.981742  
     555A      3.004593   556A      3.036321   557A      3.064694  
     558A      3.075559   559A      3.094310   560A      3.111986  
     561A      3.147954   562A      3.169523   563A      3.185610  
     564A      3.190039   565A      3.213230   566A      3.221970  
     567A      3.235937   568A      3.264471   569A      3.278606  
     570A      3.285367   571A      3.324501   572A      3.339631  
     573A      3.347707   574A      3.351999   575A      3.394212  
     576A      3.402791   577A      3.416431   578A      3.429260  
     579A      3.444375   580A      3.453850   581A      3.472058  
     582A      3.480251   583A      3.481106   584A      3.483366  
     585A      3.507735   586A      3.510540   587A      3.520422  
     588A      3.530303   589A      3.534207   590A      3.543529  
     591A      3.548297   592A      3.560613   593A      3.569263  
     594A      3.579959   595A      3.595454   596A      3.607160  
     597A      3.613175   598A      3.624233   599A      3.629155  
     600A      3.637904   601A      3.645215   602A      3.651204  
     603A      3.657779   604A      3.661914   605A      3.672654  
     606A      3.675828   607A      3.683692   608A      3.703643  
     609A      3.712909   610A      3.718972   611A      3.727894  
     612A      3.739263   613A      3.748249   614A      3.749966  
     615A      3.762462   616A      3.771976   617A      3.781666  
     618A      3.796430   619A      3.804950   620A      3.808077  
     621A      3.820341   622A      3.832768   623A      3.844791  
     624A      3.849136   625A      3.854827   626A      3.860311  
     627A      3.865158   628A      3.871398   629A      3.879207  
     630A      3.884906   631A      3.893352   632A      3.903615  
     633A      3.910042   634A      3.916915   635A      3.923705  
     636A      3.939732   637A      3.947021   638A      3.951283  
     639A      3.958852   640A      3.964654   641A      3.969451  
     642A      3.973117   643A      3.975691   644A      3.980980  
     645A      3.983511   646A      4.000515   647A      4.002655  
     648A      4.003497   649A      4.014107   650A      4.025531  
     651A      4.032046   652A      4.041773   653A      4.050774  
     654A      4.061662   655A      4.063671   656A      4.074247  
     657A      4.081883   658A      4.084924   659A      4.093803  
     660A      4.101787   661A      4.104787   662A      4.124996  
     663A      4.130706   664A      4.135611   665A      4.143358  
     666A      4.146784   667A      4.154101   668A      4.162121  
     669A      4.177789   670A      4.189501   671A      4.194821  
     672A      4.202973   673A      4.213710   674A      4.220087  
     675A      4.227559   676A      4.242788   677A      4.253662  
     678A      4.259369   679A      4.264988   680A      4.268698  
     681A      4.278524   682A      4.296897   683A      4.300596  
     684A      4.316626   685A      4.325883   686A      4.326899  
     687A      4.332440   688A      4.340735   689A      4.353018  
     690A      4.360390   691A      4.372076   692A      4.375862  
     693A      4.380127   694A      4.383903   695A      4.390783  
     696A      4.406987   697A      4.413326   698A      4.415552  
     699A      4.420761   700A      4.436041   701A      4.436634  
     702A      4.452680   703A      4.465203   704A      4.474025  
     705A      4.479370   706A      4.486814   707A      4.492853  
     708A      4.516866   709A      4.525015   710A      4.529919  
     711A      4.533681   712A      4.554364   713A      4.561924  
     714A      4.566844   715A      4.576064   716A      4.589532  
     717A      4.599302   718A      4.606510   719A      4.612421  
     720A      4.631078   721A      4.644157   722A      4.648655  
     723A      4.674991   724A      4.678841   725A      4.685225  
     726A      4.697394   727A      4.714887   728A      4.720213  
     729A      4.723614   730A      4.741890   731A      4.752182  
     732A      4.762416   733A      4.772599   734A      4.779722  
     735A      4.800841   736A      4.807670   737A      4.824925  
     738A      4.833834   739A      4.840595   740A      4.852153  
     741A      4.859521   742A      4.880868   743A      4.887334  
     744A      4.894929   745A      4.906845   746A      4.917586  
     747A      4.942439   748A      4.944954   749A      4.958385  
     750A      4.968718   751A      4.980183   752A      4.990166  
     753A      4.996787   754A      5.009318   755A      5.021576  
     756A      5.032218   757A      5.036167   758A      5.056409  
     759A      5.069162   760A      5.076344   761A      5.082120  
     762A      5.092549   763A      5.105807   764A      5.112971  
     765A      5.128742   766A      5.134328   767A      5.146333  
     768A      5.153095   769A      5.163178   770A      5.166199  
     771A      5.171582   772A      5.179110   773A      5.188017  
     774A      5.201337   775A      5.204781   776A      5.231164  
     777A      5.241189   778A      5.248182   779A      5.262303  
     780A      5.266906   781A      5.271648   782A      5.295433  
     783A      5.296315   784A      5.314229   785A      5.323554  
     786A      5.327267   787A      5.345927   788A      5.365239  
     789A      5.385631   790A      5.399829   791A      5.406299  
     792A      5.421678   793A      5.423776   794A      5.447083  
     795A      5.452024   796A      5.459259   797A      5.467790  
     798A      5.486897   799A      5.505874   800A      5.513625  
     801A      5.530964   802A      5.541824   803A      5.556004  
     804A      5.588530   805A      5.594389   806A      5.612608  
     807A      5.623877   808A      5.631310   809A      5.642852  
     810A      5.647154   811A      5.650576   812A      5.692719  
     813A      5.704921   814A      5.713405   815A      5.724491  
     816A      5.735632   817A      5.744252   818A      5.771687  
     819A      5.776467   820A      5.803059   821A      5.813872  
     822A      5.833579   823A      5.863599   824A      5.884592  
     825A      5.909305   826A      5.941134   827A      5.951391  
     828A      5.991236   829A      5.996582   830A      6.030627  
     831A      6.050477   832A      6.057355   833A      6.103018  
     834A      6.122803   835A      6.149802   836A      6.157343  
     837A      6.176551   838A      6.200660   839A      6.218394  
     840A      6.229367   841A      6.256672   842A      6.265631  
     843A      6.282118   844A      6.299627   845A      6.312186  
     846A      6.316504   847A      6.354048   848A      6.405431  
     849A      6.417607   850A      6.455651   851A      6.479226  
     852A      6.554250   853A      6.575947   854A      6.603206  
     855A      6.609145   856A      6.640377   857A      6.699482  
     858A      6.745525   859A      6.776713   860A      6.817677  
     861A      6.825827   862A      6.846050   863A      6.863233  
     864A      6.880972   865A      6.920526   866A      6.975551  
     867A      6.988678   868A      7.015163   869A      7.039819  
     870A      7.061467   871A      7.093663   872A      7.122265  
     873A      7.126689   874A      7.224108   875A      7.268779  
     876A      7.298749   877A      7.346190   878A      7.536485  
     879A      7.559682   880A      7.686305   881A      7.794862  
     882A      7.839916   883A      8.036592   884A      8.102613  
     885A     16.247913   886A     16.274003   887A     16.938297  
     888A     17.351124   889A     18.241195   890A     18.770336  
     891A     18.915813   892A     19.436900   893A     19.717688  
     894A     20.551770   895A     20.684770   896A     21.509440  
     897A     22.576480  

    Final Occupation by Irrep:
              A 
    DOCC [    47 ]

  @DF-RHF Final Energy:  -553.61879489341879

   => Energetics <=

    Nuclear Repulsion Energy =            797.9837039949434256
    One-Electron Energy =               -2335.3904014387699135
    Two-Electron Energy =                 983.7879025504076935
    Total Energy =                       -553.6187948934187943

Computation Completed

*** tstop() called on node54.bme.utexas.edu at Mon Feb  8 15:48:29 2021
Module time:
	user time   =     865.52 seconds =      14.43 minutes
	system time =     125.47 seconds =       2.09 minutes
	total time  =        215 seconds =       3.58 minutes
Total time:
	user time   =     865.52 seconds =      14.43 minutes
	system time =     125.47 seconds =       2.09 minutes
	total time  =        215 seconds =       3.58 minutes
   => Loading Basis Set <=

    Name: (AUG-CC-PVTZ AUX)
    Role: RIFIT
    Keyword: DF_BASIS_MP2
    atoms 1     entry O          line   264 file /home/xy3866/psi4conda/share/psi4/basis/aug-cc-pvtz-ri.gbs 
    atoms 2     entry N          line   206 file /home/xy3866/psi4conda/share/psi4/basis/aug-cc-pvtz-ri.gbs 
    atoms 3-13  entry C          line   148 file /home/xy3866/psi4conda/share/psi4/basis/aug-cc-pvtz-ri.gbs 
    atoms 14-26 entry H          line    30 file /home/xy3866/psi4conda/share/psi4/basis/aug-cc-pvtz-ri.gbs 


*** tstart() called on node54.bme.utexas.edu
*** at Mon Feb  8 15:48:30 2021


  //>>>>>>>>>>>>>>>>>>>>>>>>>>>>>>>>>>>//
  //               DFMP2               //
  //<<<<<<<<<<<<<<<<<<<<<<<<<<<<<<<<<<<//

	 --------------------------------------------------------
	                          DF-MP2                         
	      2nd-Order Density-Fitted Moller-Plesset Theory     
	              RMP2 Wavefunction,   8 Threads             
	                                                         
	        Rob Parrish, Justin Turney, Andy Simmonett,      
	           Ed Hohenstein, and C. David Sherrill          
	 --------------------------------------------------------

   => Auxiliary Basis Set <=

  Basis Set: (AUG-CC-PVTZ AUX)
    Blend: AUG-CC-PVTZ-RI
    Number of shells: 546
    Number of basis function: 1976
    Number of Cartesian functions: 2483
    Spherical Harmonics?: true
    Max angular momentum: 4

	 --------------------------------------------------------
	                 NBF =   897, NAUX =  1976
	 --------------------------------------------------------
	   CLASS    FOCC     OCC    AOCC    AVIR     VIR    FVIR
	   PAIRS       0      47      47     850     850       0
	 --------------------------------------------------------

  DFHelper Memory: AOs need 11.217 GiB; user supplied 22.352 GiB. Using in-core AOs.


         ------------------------------------------------------------
                                     CPHF                           
                                  Rob Parrish                       
         ------------------------------------------------------------

  ==> Geometry <==

    Molecular point group: c1
    Full point group: C1

    Geometry (in Angstrom), charge = 0, multiplicity = 1:

       Center              X                  Y                   Z               Mass       
    ------------   -----------------  -----------------  -----------------  -----------------
         O            3.084066127126    -0.593146480785    -0.211801759014    15.994914619570
         N            0.862793127126    -0.942226480785     0.200011240986    14.003074004430
         C            0.168146127126     1.704919519215     0.982909240986    12.000000000000
         C            1.133419127126     2.196460519215    -0.106082759014    12.000000000000
         C           -0.871336872874     0.764278519215     0.441023240986    12.000000000000
         C            1.536080127126     1.060342519215    -1.057381759014    12.000000000000
         C           -0.441044072874    -0.422885980785    -0.010864159014    12.000000000000
         C            1.915565127126    -0.213187480785    -0.328515759014    12.000000000000
         C           -2.211631872874     1.135216519215     0.293022240986    12.000000000000
         C           -1.448258872874    -1.454776480785    -0.393444759014    12.000000000000
         C            1.169561127126    -2.235249480785     0.808312240986    12.000000000000
         C           -3.167936872874     0.229476519215    -0.169397759014    12.000000000000
         C           -2.783646872874    -1.069454480785    -0.508277759014    12.000000000000
         H           -0.318574872874     2.556232519215     1.471861240986     1.007825032230
         H            0.743651127126     1.177611519215     1.754051240986     1.007825032230
         H            0.665266127126     2.995798519215    -0.692793759014     1.007825032230
         H            2.026619127126     2.622713519215     0.364933240986     1.007825032230
         H            2.407175127126     1.346674519215    -1.651842759014     1.007825032230
         H            0.709931127126     0.848307519215    -1.744616759014     1.007825032230
         H           -2.513103872874     2.142146519215     0.577791240986     1.007825032230
         H           -1.139707872874    -2.456874480785    -0.681190759014     1.007825032230
         H            1.192351127126    -3.039225480785     0.064568240986     1.007825032230
         H            0.412449127126    -2.457180480785     1.561911240986     1.007825032230
         H            2.154802127126    -2.166791480785     1.268737240986     1.007825032230
         H           -4.206946872874     0.535223519215    -0.263648759014     1.007825032230
         H           -3.521180872874    -1.783090480785    -0.867503759014     1.007825032230

  Nuclear repulsion =  797.983703994943426
  Reference energy  = -553.618794893418794

  ==> Basis Set <==

  Basis Set: AUG-CC-PVTZ
    Blend: AUG-CC-PVTZ
    Number of shells: 299
    Number of basis function: 897
    Number of Cartesian functions: 1040
    Spherical Harmonics?: true
    Max angular momentum: 3

  ==> CGRSolver (by Rob Parrish) <==

   Number of roots    =         1
   Preconditioning    =    JACOBI
   Convergence cutoff =     1E-06
   Maximum iterations =       100

  ==> CPHFRHamiltonian (by Rob Parrish) <== 

  ==> MemDFJK: Density-Fitted J/K Matrices <==

    J tasked:                   Yes
    K tasked:                   Yes
    wK tasked:                   No
    OpenMP threads:               8
    Memory [MiB]:             22888
    Algorithm:                 Disk
    Schwarz Cutoff:           1E-12
    Mask sparsity (%):       6.0832
    Fitting Condition:        1E-10

   => Auxiliary Basis Set <=

  Basis Set: (AUG-CC-PVTZ AUX)
    Blend: AUG-CC-PVTZ-JKFIT
    Number of shells: 572
    Number of basis function: 1950
    Number of Cartesian functions: 2418
    Spherical Harmonics?: true
    Max angular momentum: 4

  ==> CPHF Iterations <==

  => Iterations <=

             Iter  Converged  Remaining    Residual
  CGR           1          0          1   1.162E-01
  CGR           2          0          1   3.462E-02
  CGR           3          0          1   1.540E-02
  CGR           4          0          1   5.978E-03
  CGR           5          0          1   2.587E-03
  CGR           6          0          1   1.277E-03
  CGR           7          0          1   4.799E-04
  CGR           8          0          1   1.774E-04
  CGR           9          0          1   5.760E-05
  CGR          10          0          1   1.549E-05
  CGR          11          0          1   5.229E-06
  CGR          12          0          1   1.914E-06
  CGR          13          1          0   8.621E-07

    CGRSolver converged.

	-----------------------------------------------------------
	 ==================> DF-MP2 Energies <==================== 
	-----------------------------------------------------------
	 Reference Energy          =    -553.6187948934187943 [Eh]
	 Singles Energy            =      -0.0000000000000000 [Eh]
	 Same-Spin Energy          =      -0.6040788802746544 [Eh]
	 Opposite-Spin Energy      =      -1.9046499385020046 [Eh]
	 Correlation Energy        =      -2.5087288187766590 [Eh]
	 Total Energy              =    -556.1275237121953978 [Eh]
	-----------------------------------------------------------
	 ================> DF-SCS-MP2 Energies <================== 
	-----------------------------------------------------------
	 SCS Same-Spin Scale       =       0.3333333333333333 [-]
	 SCS Opposite-Spin Scale   =       1.2000000000000000 [-]
	 SCS Same-Spin Energy      =      -0.2013596267582181 [Eh]
	 SCS Opposite-Spin Energy  =      -2.2855799262024052 [Eh]
	 SCS Correlation Energy    =      -2.4869395529606235 [Eh]
	 SCS Total Energy          =    -556.1057344463794152 [Eh]
	-----------------------------------------------------------



Properties will be evaluated at   0.000000,  -0.000000,   0.000000 [a0]

Properties computed using the MP2 density matrix

  Nuclear Dipole Moment: [e a0]
     X:    -1.2882      Y:     2.1763      Z:     1.0880

  Electronic Dipole Moment: [e a0]
     X:     0.0113      Y:    -1.9600      Z:    -0.9675

  Dipole Moment: [e a0]
     X:    -1.2769      Y:     0.2163      Z:     0.1205     Total:     1.3007

  Dipole Moment: [D]
     X:    -3.2457      Y:     0.5498      Z:     0.3063     Total:     3.3061


*** tstop() called on node54.bme.utexas.edu at Mon Feb  8 15:57:19 2021
Module time:
	user time   =    2983.60 seconds =      49.73 minutes
	system time =     246.88 seconds =       4.11 minutes
	total time  =        529 seconds =       8.82 minutes
Total time:
	user time   =    3849.34 seconds =      64.16 minutes
	system time =     372.35 seconds =       6.21 minutes
	total time  =        745 seconds =      12.42 minutes

    Psi4 stopped on: Monday, 08 February 2021 03:57PM
    Psi4 wall time for execution: 0:12:25.14

*** Psi4 exiting successfully. Buy a developer a beer!
