6826                                                                    
Freq      RMP2-FC                                                     6-31G(d)            
Number of atoms                            I               23
Info1-9                                    I   N=           9
          35          33        1002           0           0         100
           6           2           1
Charge                                     I                0
Multiplicity                               I                1
Number of electrons                        I               88
Number of alpha electrons                  I               44
Number of beta electrons                   I               44
Number of basis functions                  I              202
Number of independent functions            I              202
Number of point charges in /Mol/           I                0
Number of translation vectors              I                0
Atomic numbers                             I   N=          23
           8           8           7           6           6           6
           6           6           6           6           6           6
           1           1           1           1           1           1
           1           1           1           1           1
Nuclear charges                            R   N=          23
  8.00000000E+00  8.00000000E+00  7.00000000E+00  6.00000000E+00  6.00000000E+00
  6.00000000E+00  6.00000000E+00  6.00000000E+00  6.00000000E+00  6.00000000E+00
  6.00000000E+00  6.00000000E+00  1.00000000E+00  1.00000000E+00  1.00000000E+00
  1.00000000E+00  1.00000000E+00  1.00000000E+00  1.00000000E+00  1.00000000E+00
  1.00000000E+00  1.00000000E+00  1.00000000E+00
Current cartesian coordinates              R   N=          69
  4.69077994E+00  1.02141335E+00 -1.02229665E-01  2.97567991E+00 -2.87619214E+00
  1.69429907E-01 -2.11494195E+00 -3.19776548E+00 -2.85337101E-01 -2.07231322E+00
 -6.10230691E-01 -9.45893390E-02  2.39437974E-01  7.70276540E-01 -5.27664786E-02
 -4.34698644E+00  7.87132758E-01 -8.83881107E-02  1.98573532E-01  3.42227163E+00
  6.79851663E-02 -4.33768962E+00  3.40863716E+00  2.26601771E-02 -2.06272948E+00
  4.75088556E+00  7.70392586E-02  2.68583217E+00 -5.70051842E-01  1.93123285E-02
 -4.39509671E+00 -4.64599850E+00  1.39092362E-01  7.10878235E+00 -2.26575526E-01
 -1.25639669E-02 -6.14190543E+00 -2.03581843E-01 -1.30447598E-01  1.98554324E+00
  4.42589312E+00  1.21014859E-01 -4.34722941E-01 -4.04741493E+00  7.20955351E-02
 -6.13073152E+00  4.41520488E+00  3.61407002E-02 -2.05881886E+00  6.80164508E+00
  1.69903346E-01 -5.28737630E+00 -4.23004029E+00  1.96773228E+00 -3.89526120E+00
 -6.64615080E+00  9.17638955E-02 -5.78496341E+00 -4.30546415E+00 -1.35549731E+00
  7.31062146E+00 -1.52059742E+00 -1.60464815E+00  7.31404833E+00 -1.27855932E+00
  1.74859519E+00  8.48961817E+00  1.29357183E+00 -1.23583348E-01
Force Field                                I                0
Int Atom Types                             I   N=          23
           0           0           0           0           0           0
           0           0           0           0           0           0
           0           0           0           0           0           0
           0           0           0           0           0
MM charges                                 R   N=          23
  0.00000000E+00  0.00000000E+00  0.00000000E+00  0.00000000E+00  0.00000000E+00
  0.00000000E+00  0.00000000E+00  0.00000000E+00  0.00000000E+00  0.00000000E+00
  0.00000000E+00  0.00000000E+00  0.00000000E+00  0.00000000E+00  0.00000000E+00
  0.00000000E+00  0.00000000E+00  0.00000000E+00  0.00000000E+00  0.00000000E+00
  0.00000000E+00  0.00000000E+00  0.00000000E+00
Integer atomic weights                     I   N=          23
          16          16          14          12          12          12
          12          12          12          12          12          12
           1           1           1           1           1           1
           1           1           1           1           1
Real atomic weights                        R   N=          23
  1.59949146E+01  1.59949146E+01  1.40030740E+01  1.20000000E+01  1.20000000E+01
  1.20000000E+01  1.20000000E+01  1.20000000E+01  1.20000000E+01  1.20000000E+01
  1.20000000E+01  1.20000000E+01  1.00782504E+00  1.00782504E+00  1.00782504E+00
  1.00782504E+00  1.00782504E+00  1.00782504E+00  1.00782504E+00  1.00782504E+00
  1.00782504E+00  1.00782504E+00  1.00782504E+00
Atom fragment info                         I   N=          23
           0           0           0           0           0           0
           0           0           0           0           0           0
           0           0           0           0           0           0
           0           0           0           0           0
Atom residue num                           I   N=          23
           0           0           0           0           0           0
           0           0           0           0           0           0
           0           0           0           0           0           0
           0           0           0           0           0
Nuclear spins                              I   N=          23
           0           0           2           0           0           0
           0           0           0           0           0           0
           1           1           1           1           1           1
           1           1           1           1           1
Nuclear ZEff                               R   N=          23
 -5.60000000E+00 -5.60000000E+00 -4.55000000E+00 -3.60000000E+00 -3.60000000E+00
 -3.60000000E+00 -3.60000000E+00 -3.60000000E+00 -3.60000000E+00 -3.60000000E+00
 -3.60000000E+00 -3.60000000E+00 -1.00000000E+00 -1.00000000E+00 -1.00000000E+00
 -1.00000000E+00 -1.00000000E+00 -1.00000000E+00 -1.00000000E+00 -1.00000000E+00
 -1.00000000E+00 -1.00000000E+00 -1.00000000E+00
Nuclear QMom                               R   N=          23
  0.00000000E+00  0.00000000E+00  2.04400000E+00  0.00000000E+00  0.00000000E+00
  0.00000000E+00  0.00000000E+00  0.00000000E+00  0.00000000E+00  0.00000000E+00
  0.00000000E+00  0.00000000E+00  0.00000000E+00  0.00000000E+00  0.00000000E+00
  0.00000000E+00  0.00000000E+00  0.00000000E+00  0.00000000E+00  0.00000000E+00
  0.00000000E+00  0.00000000E+00  0.00000000E+00
Nuclear GFac                               R   N=          23
  0.00000000E+00  0.00000000E+00  4.03761000E-01  0.00000000E+00  0.00000000E+00
  0.00000000E+00  0.00000000E+00  0.00000000E+00  0.00000000E+00  0.00000000E+00
  0.00000000E+00  0.00000000E+00  2.79284600E+00  2.79284600E+00  2.79284600E+00
  2.79284600E+00  2.79284600E+00  2.79284600E+00  2.79284600E+00  2.79284600E+00
  2.79284600E+00  2.79284600E+00  2.79284600E+00
MicOpt                                     I   N=          23
          -1          -1          -1          -1          -1          -1
          -1          -1          -1          -1          -1          -1
          -1          -1          -1          -1          -1          -1
          -1          -1          -1          -1          -1
Number of contracted shells                I               70
Number of primitive shells                 I              176
Pure/Cartesian d shells                    I                1
Pure/Cartesian f shells                    I                0
Highest angular momentum                   I                2
Largest degree of contraction              I                6
Shell types                                I   N=          70
           0          -1          -1           2           0          -1
          -1           2           0          -1          -1           2
           0          -1          -1           2           0          -1
          -1           2           0          -1          -1           2
           0          -1          -1           2           0          -1
          -1           2           0          -1          -1           2
           0          -1          -1           2           0          -1
          -1           2           0          -1          -1           2
           0           0           0           0           0           0
           0           0           0           0           0           0
           0           0           0           0           0           0
           0           0           0           0
Number of primitives per shell             I   N=          70
           6           3           1           1           6           3
           1           1           6           3           1           1
           6           3           1           1           6           3
           1           1           6           3           1           1
           6           3           1           1           6           3
           1           1           6           3           1           1
           6           3           1           1           6           3
           1           1           6           3           1           1
           3           1           3           1           3           1
           3           1           3           1           3           1
           3           1           3           1           3           1
           3           1           3           1
Shell to atom map                          I   N=          70
           1           1           1           1           2           2
           2           2           3           3           3           3
           4           4           4           4           5           5
           5           5           6           6           6           6
           7           7           7           7           8           8
           8           8           9           9           9           9
          10          10          10          10          11          11
          11          11          12          12          12          12
          13          13          14          14          15          15
          16          16          17          17          18          18
          19          19          20          20          21          21
          22          22          23          23
Primitive exponents                        R   N=         176
  5.48467166E+03  8.25234946E+02  1.88046958E+02  5.29645000E+01  1.68975704E+01
  5.79963534E+00  1.55396162E+01  3.59993359E+00  1.01376175E+00  2.70005823E-01
  8.00000000E-01  5.48467166E+03  8.25234946E+02  1.88046958E+02  5.29645000E+01
  1.68975704E+01  5.79963534E+00  1.55396162E+01  3.59993359E+00  1.01376175E+00
  2.70005823E-01  8.00000000E-01  4.17351146E+03  6.27457911E+02  1.42902093E+02
  4.02343293E+01  1.28202129E+01  4.39043701E+00  1.16263619E+01  2.71627981E+00
  7.72218397E-01  2.12031498E-01  8.00000000E-01  3.04752488E+03  4.57369518E+02
  1.03948685E+02  2.92101553E+01  9.28666296E+00  3.16392696E+00  7.86827235E+00
  1.88128854E+00  5.44249258E-01  1.68714478E-01  8.00000000E-01  3.04752488E+03
  4.57369518E+02  1.03948685E+02  2.92101553E+01  9.28666296E+00  3.16392696E+00
  7.86827235E+00  1.88128854E+00  5.44249258E-01  1.68714478E-01  8.00000000E-01
  3.04752488E+03  4.57369518E+02  1.03948685E+02  2.92101553E+01  9.28666296E+00
  3.16392696E+00  7.86827235E+00  1.88128854E+00  5.44249258E-01  1.68714478E-01
  8.00000000E-01  3.04752488E+03  4.57369518E+02  1.03948685E+02  2.92101553E+01
  9.28666296E+00  3.16392696E+00  7.86827235E+00  1.88128854E+00  5.44249258E-01
  1.68714478E-01  8.00000000E-01  3.04752488E+03  4.57369518E+02  1.03948685E+02
  2.92101553E+01  9.28666296E+00  3.16392696E+00  7.86827235E+00  1.88128854E+00
  5.44249258E-01  1.68714478E-01  8.00000000E-01  3.04752488E+03  4.57369518E+02
  1.03948685E+02  2.92101553E+01  9.28666296E+00  3.16392696E+00  7.86827235E+00
  1.88128854E+00  5.44249258E-01  1.68714478E-01  8.00000000E-01  3.04752488E+03
  4.57369518E+02  1.03948685E+02  2.92101553E+01  9.28666296E+00  3.16392696E+00
  7.86827235E+00  1.88128854E+00  5.44249258E-01  1.68714478E-01  8.00000000E-01
  3.04752488E+03  4.57369518E+02  1.03948685E+02  2.92101553E+01  9.28666296E+00
  3.16392696E+00  7.86827235E+00  1.88128854E+00  5.44249258E-01  1.68714478E-01
  8.00000000E-01  3.04752488E+03  4.57369518E+02  1.03948685E+02  2.92101553E+01
  9.28666296E+00  3.16392696E+00  7.86827235E+00  1.88128854E+00  5.44249258E-01
  1.68714478E-01  8.00000000E-01  1.87311370E+01  2.82539436E+00  6.40121692E-01
  1.61277759E-01  1.87311370E+01  2.82539436E+00  6.40121692E-01  1.61277759E-01
  1.87311370E+01  2.82539436E+00  6.40121692E-01  1.61277759E-01  1.87311370E+01
  2.82539436E+00  6.40121692E-01  1.61277759E-01  1.87311370E+01  2.82539436E+00
  6.40121692E-01  1.61277759E-01  1.87311370E+01  2.82539436E+00  6.40121692E-01
  1.61277759E-01  1.87311370E+01  2.82539436E+00  6.40121692E-01  1.61277759E-01
  1.87311370E+01  2.82539436E+00  6.40121692E-01  1.61277759E-01  1.87311370E+01
  2.82539436E+00  6.40121692E-01  1.61277759E-01  1.87311370E+01  2.82539436E+00
  6.40121692E-01  1.61277759E-01  1.87311370E+01  2.82539436E+00  6.40121692E-01
  1.61277759E-01
Contraction coefficients                   R   N=         176
  1.83107443E-03  1.39501722E-02  6.84450781E-02  2.32714336E-01  4.70192898E-01
  3.58520853E-01 -1.10777550E-01 -1.48026263E-01  1.13076702E+00  1.00000000E+00
  1.00000000E+00  1.83107443E-03  1.39501722E-02  6.84450781E-02  2.32714336E-01
  4.70192898E-01  3.58520853E-01 -1.10777550E-01 -1.48026263E-01  1.13076702E+00
  1.00000000E+00  1.00000000E+00  1.83477216E-03  1.39946270E-02  6.85865518E-02
  2.32240873E-01  4.69069948E-01  3.60455199E-01 -1.14961182E-01 -1.69117479E-01
  1.14585195E+00  1.00000000E+00  1.00000000E+00  1.83473713E-03  1.40373228E-02
  6.88426223E-02  2.32184443E-01  4.67941348E-01  3.62311985E-01 -1.19332420E-01
 -1.60854152E-01  1.14345644E+00  1.00000000E+00  1.00000000E+00  1.83473713E-03
  1.40373228E-02  6.88426223E-02  2.32184443E-01  4.67941348E-01  3.62311985E-01
 -1.19332420E-01 -1.60854152E-01  1.14345644E+00  1.00000000E+00  1.00000000E+00
  1.83473713E-03  1.40373228E-02  6.88426223E-02  2.32184443E-01  4.67941348E-01
  3.62311985E-01 -1.19332420E-01 -1.60854152E-01  1.14345644E+00  1.00000000E+00
  1.00000000E+00  1.83473713E-03  1.40373228E-02  6.88426223E-02  2.32184443E-01
  4.67941348E-01  3.62311985E-01 -1.19332420E-01 -1.60854152E-01  1.14345644E+00
  1.00000000E+00  1.00000000E+00  1.83473713E-03  1.40373228E-02  6.88426223E-02
  2.32184443E-01  4.67941348E-01  3.62311985E-01 -1.19332420E-01 -1.60854152E-01
  1.14345644E+00  1.00000000E+00  1.00000000E+00  1.83473713E-03  1.40373228E-02
  6.88426223E-02  2.32184443E-01  4.67941348E-01  3.62311985E-01 -1.19332420E-01
 -1.60854152E-01  1.14345644E+00  1.00000000E+00  1.00000000E+00  1.83473713E-03
  1.40373228E-02  6.88426223E-02  2.32184443E-01  4.67941348E-01  3.62311985E-01
 -1.19332420E-01 -1.60854152E-01  1.14345644E+00  1.00000000E+00  1.00000000E+00
  1.83473713E-03  1.40373228E-02  6.88426223E-02  2.32184443E-01  4.67941348E-01
  3.62311985E-01 -1.19332420E-01 -1.60854152E-01  1.14345644E+00  1.00000000E+00
  1.00000000E+00  1.83473713E-03  1.40373228E-02  6.88426223E-02  2.32184443E-01
  4.67941348E-01  3.62311985E-01 -1.19332420E-01 -1.60854152E-01  1.14345644E+00
  1.00000000E+00  1.00000000E+00  3.34946043E-02  2.34726953E-01  8.13757326E-01
  1.00000000E+00  3.34946043E-02  2.34726953E-01  8.13757326E-01  1.00000000E+00
  3.34946043E-02  2.34726953E-01  8.13757326E-01  1.00000000E+00  3.34946043E-02
  2.34726953E-01  8.13757326E-01  1.00000000E+00  3.34946043E-02  2.34726953E-01
  8.13757326E-01  1.00000000E+00  3.34946043E-02  2.34726953E-01  8.13757326E-01
  1.00000000E+00  3.34946043E-02  2.34726953E-01  8.13757326E-01  1.00000000E+00
  3.34946043E-02  2.34726953E-01  8.13757326E-01  1.00000000E+00  3.34946043E-02
  2.34726953E-01  8.13757326E-01  1.00000000E+00  3.34946043E-02  2.34726953E-01
  8.13757326E-01  1.00000000E+00  3.34946043E-02  2.34726953E-01  8.13757326E-01
  1.00000000E+00
P(S=P) Contraction coefficients            R   N=         176
  0.00000000E+00  0.00000000E+00  0.00000000E+00  0.00000000E+00  0.00000000E+00
  0.00000000E+00  7.08742682E-02  3.39752839E-01  7.27158577E-01  1.00000000E+00
  0.00000000E+00  0.00000000E+00  0.00000000E+00  0.00000000E+00  0.00000000E+00
  0.00000000E+00  0.00000000E+00  7.08742682E-02  3.39752839E-01  7.27158577E-01
  1.00000000E+00  0.00000000E+00  0.00000000E+00  0.00000000E+00  0.00000000E+00
  0.00000000E+00  0.00000000E+00  0.00000000E+00  6.75797439E-02  3.23907296E-01
  7.40895140E-01  1.00000000E+00  0.00000000E+00  0.00000000E+00  0.00000000E+00
  0.00000000E+00  0.00000000E+00  0.00000000E+00  0.00000000E+00  6.89990666E-02
  3.16423961E-01  7.44308291E-01  1.00000000E+00  0.00000000E+00  0.00000000E+00
  0.00000000E+00  0.00000000E+00  0.00000000E+00  0.00000000E+00  0.00000000E+00
  6.89990666E-02  3.16423961E-01  7.44308291E-01  1.00000000E+00  0.00000000E+00
  0.00000000E+00  0.00000000E+00  0.00000000E+00  0.00000000E+00  0.00000000E+00
  0.00000000E+00  6.89990666E-02  3.16423961E-01  7.44308291E-01  1.00000000E+00
  0.00000000E+00  0.00000000E+00  0.00000000E+00  0.00000000E+00  0.00000000E+00
  0.00000000E+00  0.00000000E+00  6.89990666E-02  3.16423961E-01  7.44308291E-01
  1.00000000E+00  0.00000000E+00  0.00000000E+00  0.00000000E+00  0.00000000E+00
  0.00000000E+00  0.00000000E+00  0.00000000E+00  6.89990666E-02  3.16423961E-01
  7.44308291E-01  1.00000000E+00  0.00000000E+00  0.00000000E+00  0.00000000E+00
  0.00000000E+00  0.00000000E+00  0.00000000E+00  0.00000000E+00  6.89990666E-02
  3.16423961E-01  7.44308291E-01  1.00000000E+00  0.00000000E+00  0.00000000E+00
  0.00000000E+00  0.00000000E+00  0.00000000E+00  0.00000000E+00  0.00000000E+00
  6.89990666E-02  3.16423961E-01  7.44308291E-01  1.00000000E+00  0.00000000E+00
  0.00000000E+00  0.00000000E+00  0.00000000E+00  0.00000000E+00  0.00000000E+00
  0.00000000E+00  6.89990666E-02  3.16423961E-01  7.44308291E-01  1.00000000E+00
  0.00000000E+00  0.00000000E+00  0.00000000E+00  0.00000000E+00  0.00000000E+00
  0.00000000E+00  0.00000000E+00  6.89990666E-02  3.16423961E-01  7.44308291E-01
  1.00000000E+00  0.00000000E+00  0.00000000E+00  0.00000000E+00  0.00000000E+00
  0.00000000E+00  0.00000000E+00  0.00000000E+00  0.00000000E+00  0.00000000E+00
  0.00000000E+00  0.00000000E+00  0.00000000E+00  0.00000000E+00  0.00000000E+00
  0.00000000E+00  0.00000000E+00  0.00000000E+00  0.00000000E+00  0.00000000E+00
  0.00000000E+00  0.00000000E+00  0.00000000E+00  0.00000000E+00  0.00000000E+00
  0.00000000E+00  0.00000000E+00  0.00000000E+00  0.00000000E+00  0.00000000E+00
  0.00000000E+00  0.00000000E+00  0.00000000E+00  0.00000000E+00  0.00000000E+00
  0.00000000E+00  0.00000000E+00  0.00000000E+00  0.00000000E+00  0.00000000E+00
  0.00000000E+00  0.00000000E+00  0.00000000E+00  0.00000000E+00  0.00000000E+00
  0.00000000E+00
Coordinates of each shell                  R   N=         210
  4.69077994E+00  1.02141335E+00 -1.02229665E-01  4.69077994E+00  1.02141335E+00
 -1.02229665E-01  4.69077994E+00  1.02141335E+00 -1.02229665E-01  4.69077994E+00
  1.02141335E+00 -1.02229665E-01  2.97567991E+00 -2.87619214E+00  1.69429907E-01
  2.97567991E+00 -2.87619214E+00  1.69429907E-01  2.97567991E+00 -2.87619214E+00
  1.69429907E-01  2.97567991E+00 -2.87619214E+00  1.69429907E-01 -2.11494195E+00
 -3.19776548E+00 -2.85337101E-01 -2.11494195E+00 -3.19776548E+00 -2.85337101E-01
 -2.11494195E+00 -3.19776548E+00 -2.85337101E-01 -2.11494195E+00 -3.19776548E+00
 -2.85337101E-01 -2.07231322E+00 -6.10230691E-01 -9.45893390E-02 -2.07231322E+00
 -6.10230691E-01 -9.45893390E-02 -2.07231322E+00 -6.10230691E-01 -9.45893390E-02
 -2.07231322E+00 -6.10230691E-01 -9.45893390E-02  2.39437974E-01  7.70276540E-01
 -5.27664786E-02  2.39437974E-01  7.70276540E-01 -5.27664786E-02  2.39437974E-01
  7.70276540E-01 -5.27664786E-02  2.39437974E-01  7.70276540E-01 -5.27664786E-02
 -4.34698644E+00  7.87132758E-01 -8.83881107E-02 -4.34698644E+00  7.87132758E-01
 -8.83881107E-02 -4.34698644E+00  7.87132758E-01 -8.83881107E-02 -4.34698644E+00
  7.87132758E-01 -8.83881107E-02  1.98573532E-01  3.42227163E+00  6.79851663E-02
  1.98573532E-01  3.42227163E+00  6.79851663E-02  1.98573532E-01  3.42227163E+00
  6.79851663E-02  1.98573532E-01  3.42227163E+00  6.79851663E-02 -4.33768962E+00
  3.40863716E+00  2.26601771E-02 -4.33768962E+00  3.40863716E+00  2.26601771E-02
 -4.33768962E+00  3.40863716E+00  2.26601771E-02 -4.33768962E+00  3.40863716E+00
  2.26601771E-02 -2.06272948E+00  4.75088556E+00  7.70392586E-02 -2.06272948E+00
  4.75088556E+00  7.70392586E-02 -2.06272948E+00  4.75088556E+00  7.70392586E-02
 -2.06272948E+00  4.75088556E+00  7.70392586E-02  2.68583217E+00 -5.70051842E-01
  1.93123285E-02  2.68583217E+00 -5.70051842E-01  1.93123285E-02  2.68583217E+00
 -5.70051842E-01  1.93123285E-02  2.68583217E+00 -5.70051842E-01  1.93123285E-02
 -4.39509671E+00 -4.64599850E+00  1.39092362E-01 -4.39509671E+00 -4.64599850E+00
  1.39092362E-01 -4.39509671E+00 -4.64599850E+00  1.39092362E-01 -4.39509671E+00
 -4.64599850E+00  1.39092362E-01  7.10878235E+00 -2.26575526E-01 -1.25639669E-02
  7.10878235E+00 -2.26575526E-01 -1.25639669E-02  7.10878235E+00 -2.26575526E-01
 -1.25639669E-02  7.10878235E+00 -2.26575526E-01 -1.25639669E-02 -6.14190543E+00
 -2.03581843E-01 -1.30447598E-01 -6.14190543E+00 -2.03581843E-01 -1.30447598E-01
  1.98554324E+00  4.42589312E+00  1.21014859E-01  1.98554324E+00  4.42589312E+00
  1.21014859E-01 -4.34722941E-01 -4.04741493E+00  7.20955351E-02 -4.34722941E-01
 -4.04741493E+00  7.20955351E-02 -6.13073152E+00  4.41520488E+00  3.61407002E-02
 -6.13073152E+00  4.41520488E+00  3.61407002E-02 -2.05881886E+00  6.80164508E+00
  1.69903346E-01 -2.05881886E+00  6.80164508E+00  1.69903346E-01 -5.28737630E+00
 -4.23004029E+00  1.96773228E+00 -5.28737630E+00 -4.23004029E+00  1.96773228E+00
 -3.89526120E+00 -6.64615080E+00  9.17638955E-02 -3.89526120E+00 -6.64615080E+00
  9.17638955E-02 -5.78496341E+00 -4.30546415E+00 -1.35549731E+00 -5.78496341E+00
 -4.30546415E+00 -1.35549731E+00  7.31062146E+00 -1.52059742E+00 -1.60464815E+00
  7.31062146E+00 -1.52059742E+00 -1.60464815E+00  7.31404833E+00 -1.27855932E+00
  1.74859519E+00  7.31404833E+00 -1.27855932E+00  1.74859519E+00  8.48961817E+00
  1.29357183E+00 -1.23583348E-01  8.48961817E+00  1.29357183E+00 -1.23583348E-01
Constraint Structure                       R   N=          69
  4.69077994E+00  1.02141335E+00 -1.02229665E-01  2.97567991E+00 -2.87619214E+00
  1.69429907E-01 -2.11494195E+00 -3.19776548E+00 -2.85337101E-01 -2.07231322E+00
 -6.10230691E-01 -9.45893390E-02  2.39437974E-01  7.70276540E-01 -5.27664786E-02
 -4.34698644E+00  7.87132758E-01 -8.83881107E-02  1.98573532E-01  3.42227163E+00
  6.79851663E-02 -4.33768962E+00  3.40863716E+00  2.26601771E-02 -2.06272948E+00
  4.75088556E+00  7.70392586E-02  2.68583217E+00 -5.70051842E-01  1.93123285E-02
 -4.39509671E+00 -4.64599850E+00  1.39092362E-01  7.10878235E+00 -2.26575526E-01
 -1.25639669E-02 -6.14190543E+00 -2.03581843E-01 -1.30447598E-01  1.98554324E+00
  4.42589312E+00  1.21014859E-01 -4.34722941E-01 -4.04741493E+00  7.20955351E-02
 -6.13073152E+00  4.41520488E+00  3.61407002E-02 -2.05881886E+00  6.80164508E+00
  1.69903346E-01 -5.28737630E+00 -4.23004029E+00  1.96773228E+00 -3.89526120E+00
 -6.64615080E+00  9.17638955E-02 -5.78496341E+00 -4.30546415E+00 -1.35549731E+00
  7.31062146E+00 -1.52059742E+00 -1.60464815E+00  7.31404833E+00 -1.27855932E+00
  1.74859519E+00  8.48961817E+00  1.29357183E+00 -1.23583348E-01
Num ILSW                                   I              100
ILSW                                       I   N=         100
           0           1           0           0           2           0
           0           0           0           0           0          -1
           0           0           0           0           0           0
           0           0           0           0           1           0
           1           0           0           0           0           0
           0           0      100000           0          -1           0
           0           0           0           0           0           0
           0           0           0           1           1           0
           0           0           1           0           0           0
           0           0           4          40           0           0
           0           0           0           0           0           0
           0           0           0           0           0           0
           0           0           0           0           0           0
           0           0           0           0           0           0
           0           0           0           0           0           0
           0           0           0           0           0           0
           0           0           0           0
Num RLSW                                   I               40
RLSW                                       R   N=          40
  1.00000000E+00  1.00000000E+00  1.00000000E+00  1.00000000E+00  1.00000000E+00
  0.00000000E+00  0.00000000E+00  1.00000000E+00  0.00000000E+00  0.00000000E+00
  0.00000000E+00  0.00000000E+00  1.00000000E+00  0.00000000E+00  0.00000000E+00
  0.00000000E+00  0.00000000E+00  1.00000000E+00  0.00000000E+00  0.00000000E+00
  0.00000000E+00  0.00000000E+00  1.00000000E+00  0.00000000E+00  0.00000000E+00
  0.00000000E+00  0.00000000E+00  1.00000000E+00  0.00000000E+00  0.00000000E+00
  0.00000000E+00  0.00000000E+00  0.00000000E+00  0.00000000E+00  0.00000000E+00
  0.00000000E+00  0.00000000E+00  0.00000000E+00  1.00000000E+00  1.00000000E+00
MxBond                                     I                4
NBond                                      I   N=          23
           2           1           3           3           3           3
           3           3           3           3           4           4
           1           1           1           1           1           1
           1           1           1           1           1
IBond                                      I   N=          92
          10          12           0           0          10           0
           0           0           4          11          15           0
           3           5           6           0           4           7
          10           0           4           8          13           0
           5           9          14           0           6           9
          16           0           7           8          17           0
           1           2           5           0           3          18
          19          20           1          21          22          23
           6           0           0           0           7           0
           0           0           3           0           0           0
           8           0           0           0           9           0
           0           0          11           0           0           0
          11           0           0           0          11           0
           0           0          12           0           0           0
          12           0           0           0          12           0
           0           0
RBond                                      R   N=          92
  1.50000000E+00  1.00000000E+00  0.00000000E+00  0.00000000E+00  2.00000000E+00
  0.00000000E+00  0.00000000E+00  0.00000000E+00  1.00000000E+00  1.00000000E+00
  1.00000000E+00  0.00000000E+00  1.00000000E+00  1.50000000E+00  1.50000000E+00
  0.00000000E+00  1.50000000E+00  1.50000000E+00  1.00000000E+00  0.00000000E+00
  1.50000000E+00  1.50000000E+00  1.00000000E+00  0.00000000E+00  1.50000000E+00
  1.50000000E+00  1.00000000E+00  0.00000000E+00  1.50000000E+00  1.50000000E+00
  1.00000000E+00  0.00000000E+00  1.50000000E+00  1.50000000E+00  1.00000000E+00
  0.00000000E+00  1.50000000E+00  2.00000000E+00  1.00000000E+00  0.00000000E+00
  1.00000000E+00  1.00000000E+00  1.00000000E+00  1.00000000E+00  1.00000000E+00
  1.00000000E+00  1.00000000E+00  1.00000000E+00  1.00000000E+00  0.00000000E+00
  0.00000000E+00  0.00000000E+00  1.00000000E+00  0.00000000E+00  0.00000000E+00
  0.00000000E+00  1.00000000E+00  0.00000000E+00  0.00000000E+00  0.00000000E+00
  1.00000000E+00  0.00000000E+00  0.00000000E+00  0.00000000E+00  1.00000000E+00
  0.00000000E+00  0.00000000E+00  0.00000000E+00  1.00000000E+00  0.00000000E+00
  0.00000000E+00  0.00000000E+00  1.00000000E+00  0.00000000E+00  0.00000000E+00
  0.00000000E+00  1.00000000E+00  0.00000000E+00  0.00000000E+00  0.00000000E+00
  1.00000000E+00  0.00000000E+00  0.00000000E+00  0.00000000E+00  1.00000000E+00
  0.00000000E+00  0.00000000E+00  0.00000000E+00  1.00000000E+00  0.00000000E+00
  0.00000000E+00  0.00000000E+00
Virial Ratio                               R      2.002515709568526E+00
SCF Energy                                 R     -5.514034436738805E+02
MP2 Energy                                 R     -5.530651335171103E+02
Total Energy                               R     -5.530651335171103E+02
Post-SCF wavefunction norm                 R      1.763197001332191E+00
RMS Force                                  R      3.362072961511828E-07
RMS Density                                R      1.205794519378083E-09
External E-field                           R   N=          35
  0.00000000E+00  0.00000000E+00  0.00000000E+00  0.00000000E+00  0.00000000E+00
  0.00000000E+00  0.00000000E+00  0.00000000E+00  0.00000000E+00  0.00000000E+00
  0.00000000E+00  0.00000000E+00  0.00000000E+00  0.00000000E+00  0.00000000E+00
  0.00000000E+00  0.00000000E+00  0.00000000E+00  0.00000000E+00  0.00000000E+00
  0.00000000E+00  0.00000000E+00  0.00000000E+00  0.00000000E+00  0.00000000E+00