050_H2S Gaussian SP Calculation on node35.bme.utexas.edu                
Freq      RMP2-FC                                                     6-31G(d)            
Number of atoms                            I                3
Info1-9                                    I   N=           9
          14          13        1002           0           0         100
           6           2           1
Charge                                     I                0
Multiplicity                               I                1
Number of electrons                        I               18
Number of alpha electrons                  I                9
Number of beta electrons                   I                9
Number of basis functions                  I               23
Number of independent functions            I               23
Number of point charges in /Mol/           I                0
Number of translation vectors              I                0
Atomic numbers                             I   N=           3
          16           1           1
Nuclear charges                            R   N=           3
  1.60000000E+01  1.00000000E+00  1.00000000E+00
Current cartesian coordinates              R   N=           9
  3.69778549E-32  2.95822839E-31  1.92967337E-01 -1.77493704E-30  1.84154563E+00
 -1.54373870E+00 -2.25524296E-16 -1.84154563E+00 -1.54373870E+00
Force Field                                I                0
Int Atom Types                             I   N=           3
           0           0           0
MM charges                                 R   N=           3
  0.00000000E+00  0.00000000E+00  0.00000000E+00
Integer atomic weights                     I   N=           3
          32           1           1
Real atomic weights                        R   N=           3
  3.19720718E+01  1.00782504E+00  1.00782504E+00
Atom fragment info                         I   N=           3
           0           0           0
Atom residue num                           I   N=           3
           0           0           0
Nuclear spins                              I   N=           3
           0           1           1
Nuclear ZEff                               R   N=           3
 -1.36000000E+01 -1.00000000E+00 -1.00000000E+00
Nuclear QMom                               R   N=           3
  0.00000000E+00  0.00000000E+00  0.00000000E+00
Nuclear GFac                               R   N=           3
  0.00000000E+00  2.79284600E+00  2.79284600E+00
MicOpt                                     I   N=           3
          -1          -1          -1
Number of contracted shells                I                9
Number of primitive shells                 I               25
Pure/Cartesian d shells                    I                1
Pure/Cartesian f shells                    I                0
Highest angular momentum                   I                2
Largest degree of contraction              I                6
Shell types                                I   N=           9
           0          -1          -1          -1           2           0
           0           0           0
Number of primitives per shell             I   N=           9
           6           6           3           1           1           3
           1           3           1
Shell to atom map                          I   N=           9
           1           1           1           1           1           2
           2           3           3
Primitive exponents                        R   N=          25
  2.19171000E+04  3.30149000E+03  7.54146000E+02  2.12711000E+02  6.79896000E+01
  2.30515000E+01  4.23735000E+02  1.00710000E+02  3.21599000E+01  1.18079000E+01
  4.63110000E+00  1.87025000E+00  2.61584000E+00  9.22167000E-01  3.41287000E-01
  1.17167000E-01  6.50000000E-01  1.87311370E+01  2.82539436E+00  6.40121692E-01
  1.61277759E-01  1.87311370E+01  2.82539436E+00  6.40121692E-01  1.61277759E-01
Contraction coefficients                   R   N=          25
  1.86924085E-03  1.42303065E-02  6.96962317E-02  2.38487108E-01  4.83307220E-01
  3.38074154E-01 -2.37677050E-03 -3.16930067E-02 -1.13317024E-01  5.60900118E-02
  5.92255124E-01  4.55006095E-01 -2.50373114E-01  6.69567631E-02  1.05450627E+00
  1.00000000E+00  1.00000000E+00  3.34946043E-02  2.34726953E-01  8.13757326E-01
  1.00000000E+00  3.34946043E-02  2.34726953E-01  8.13757326E-01  1.00000000E+00
P(S=P) Contraction coefficients            R   N=          25
  0.00000000E+00  0.00000000E+00  0.00000000E+00  0.00000000E+00  0.00000000E+00
  0.00000000E+00  4.06100998E-03  3.06812999E-02  1.30451999E-01  3.27204999E-01
  4.52850998E-01  2.56041999E-01 -1.45104895E-02  3.10262776E-01  7.54482456E-01
  1.00000000E+00  0.00000000E+00  0.00000000E+00  0.00000000E+00  0.00000000E+00
  0.00000000E+00  0.00000000E+00  0.00000000E+00  0.00000000E+00  0.00000000E+00
Coordinates of each shell                  R   N=          27
  2.46519033E-32  1.97215226E-31  1.92967337E-01  2.46519033E-32  1.97215226E-31
  1.92967337E-01  2.46519033E-32  1.97215226E-31  1.92967337E-01  2.46519033E-32
  1.97215226E-31  1.92967337E-01  2.46519033E-32  1.97215226E-31  1.92967337E-01
 -1.38050658E-30  1.84154563E+00 -1.54373870E+00 -1.38050658E-30  1.84154563E+00
 -1.54373870E+00 -2.25524296E-16 -1.84154563E+00 -1.54373870E+00 -2.25524296E-16
 -1.84154563E+00 -1.54373870E+00
Constraint Structure                       R   N=           9
  2.46519033E-32  1.97215226E-31  1.92967337E-01 -1.38050658E-30  1.84154563E+00
 -1.54373870E+00 -2.25524296E-16 -1.84154563E+00 -1.54373870E+00
Num ILSW                                   I              100
ILSW                                       I   N=         100
           0           1           0           0           2           0
           0           0           0           0           0          -1
           0           0           0           0           0           0
           0           0           0           0           1           0
           1           0           0           0           0           0
           0           0      100000           0          -1           0
           0           0           0           0           0           0
           0           0           0           1           1           0
           0           0           1           0           0           0
           0           0           4          40           0           0
           0           0           0           0           0           0
           0           0           0           0           0           0
           0           0           0           0           0           0
           0           0           0           0           0           0
           0           0           0           0           0           0
           0           0           0           0           0           0
           0           0           0           0
Num RLSW                                   I               40
RLSW                                       R   N=          40
  1.00000000E+00  1.00000000E+00  1.00000000E+00  1.00000000E+00  1.00000000E+00
  0.00000000E+00  0.00000000E+00  1.00000000E+00  0.00000000E+00  0.00000000E+00
  0.00000000E+00  0.00000000E+00  1.00000000E+00  0.00000000E+00  0.00000000E+00
  0.00000000E+00  0.00000000E+00  1.00000000E+00  0.00000000E+00  0.00000000E+00
  0.00000000E+00  0.00000000E+00  1.00000000E+00  0.00000000E+00  0.00000000E+00
  0.00000000E+00  0.00000000E+00  1.00000000E+00  0.00000000E+00  0.00000000E+00
  0.00000000E+00  0.00000000E+00  0.00000000E+00  0.00000000E+00  0.00000000E+00
  0.00000000E+00  0.00000000E+00  0.00000000E+00  1.00000000E+00  1.00000000E+00
MxBond                                     I                2
NBond                                      I   N=           3
           2           1           1
IBond                                      I   N=           6
           2           3           1           0           1           0
RBond                                      R   N=           6
  1.00000000E+00  1.00000000E+00  1.00000000E+00  0.00000000E+00  1.00000000E+00
  0.00000000E+00
Virial Ratio                               R      2.000293326699474E+00
SCF Energy                                 R     -3.986671059655473E+02
MP2 Energy                                 R     -3.987884132848450E+02
Total Energy                               R     -3.987884132848450E+02
Post-SCF wavefunction norm                 R      1.448917740162593E+00
RMS Force                                  R      6.517729829884748E-07
RMS Density                                R      6.478097884918489E-10
External E-field                           R   N=          35
  0.00000000E+00  0.00000000E+00  0.00000000E+00  0.00000000E+00  0.00000000E+00
  0.00000000E+00  0.00000000E+00  0.00000000E+00  0.00000000E+00  0.00000000E+00
  0.00000000E+00  0.00000000E+00  0.00000000E+00  0.00000000E+00  0.00000000E+00
  0.00000000E+00  0.00000000E+00  0.00000000E+00  0.00000000E+00  0.00000000E+00
  0.00000000E+00  0.00000000E+00  0.00000000E+00  0.00000000E+00  0.00000000E+00
  0.00000000E+00  0.00000000E+00  0.00000000E+00  0.00000000E+00  0.00000000E+00
  0.00000000E+00  0.00000000E+00  0.00000000E+00  0.00000000E+00  0.00000000E+00
IOpCl                                      I                0
IROHF                                      I                0
Alpha Orbital Energies                     R   N=          23
 -9.19522188E+01 -8.96599963E+00 -6.64897279E+00 -6.64774124E+00 -6.64487746E+00
 -9.85168023E-01 -5.96010828E-01 -4.98979843E-01 -3.84004591E-01  1.68551452E-01
  2.07044606E-01  4.83529315E-01  4.86883770E-01  5.13901600E-01  5.35925793E-01
  8.97104261E-01  9.86112280E-01  1.00829032E+00  1.02299724E+00  1.02859611E+00
  1.31935980E+00  1.51936051E+00  4.28707719E+00
Alpha MO coefficients                      R   N=         529
  9.96256258E-01  1.42574956E-02  0.00000000E+00  0.00000000E+00 -8.14770661E-05
 -1.99052397E-02  0.00000000E+00  0.00000000E+00  8.18616527E-05  2.91832329E-03
  0.00000000E+00  0.00000000E+00 -3.12944789E-04  6.87943946E-03  6.89616949E-03
  6.89148076E-03  0.00000000E+00  0.00000000E+00  0.00000000E+00  1.57770206E-04
 -4.14769283E-04  1.57770206E-04 -4.14769283E-04 -2.81774196E-01  1.03017221E+00
  0.00000000E+00  0.00000000E+00 -6.03464174E-03  2.46609024E-02  0.00000000E+00
  0.00000000E+00 -1.32638736E-03 -8.40967196E-03  0.00000000E+00  0.00000000E+00
  1.87075018E-03 -1.82335118E-03 -1.28509595E-03 -1.42007303E-03  0.00000000E+00
  0.00000000E+00  0.00000000E+00 -4.71647513E-04  2.06428656E-03 -4.71647513E-04
  2.06428656E-03  0.00000000E+00  0.00000000E+00  0.00000000E+00  9.93011257E-01
  0.00000000E+00  0.00000000E+00  0.00000000E+00  2.32117122E-02  0.00000000E+00
  0.00000000E+00  0.00000000E+00 -6.41123755E-03  0.00000000E+00  0.00000000E+00
  0.00000000E+00  0.00000000E+00  0.00000000E+00  0.00000000E+00 -1.06625848E-03
 -9.82870622E-04  1.50713603E-03  9.82870622E-04 -1.50713603E-03 -1.98224144E-03
  7.50879868E-03  0.00000000E+00  0.00000000E+00  9.93266599E-01 -4.89351380E-03
  0.00000000E+00  0.00000000E+00  2.22929343E-02  2.55480026E-03  0.00000000E+00
  0.00000000E+00 -6.31264241E-03  1.65985222E-03  1.27901085E-03  4.76060567E-04
  0.00000000E+00  0.00000000E+00  0.00000000E+00  7.37531086E-04 -1.67713219E-03
  7.37531086E-04 -1.67713219E-03  0.00000000E+00  0.00000000E+00  9.93910933E-01
  0.00000000E+00  0.00000000E+00  0.00000000E+00  2.02108541E-02  0.00000000E+00
  0.00000000E+00  0.00000000E+00 -4.65945613E-03  0.00000000E+00  0.00000000E+00
  0.00000000E+00  0.00000000E+00  0.00000000E+00  0.00000000E+00 -4.80924670E-04
  0.00000000E+00  0.00000000E+00  0.00000000E+00  0.00000000E+00  0.00000000E+00
  6.86748214E-02 -3.18417539E-01  0.00000000E+00  0.00000000E+00  4.80492867E-02
  6.20225180E-01  0.00000000E+00  0.00000000E+00 -1.13604176E-01  2.57745067E-01
  0.00000000E+00  0.00000000E+00 -1.60902228E-02 -1.55952441E-02  2.87544496E-02
  2.63470476E-02  0.00000000E+00  0.00000000E+00  0.00000000E+00  1.43023637E-01
  4.86128225E-02  1.43023637E-01  4.86128225E-02  0.00000000E+00  0.00000000E+00
  0.00000000E+00 -2.01186502E-01  0.00000000E+00  0.00000000E+00  0.00000000E+00
  5.12716484E-01  0.00000000E+00  0.00000000E+00  0.00000000E+00  1.05047192E-01
  0.00000000E+00  0.00000000E+00  0.00000000E+00  0.00000000E+00  0.00000000E+00
  0.00000000E+00 -1.03907316E-01  2.40896764E-01  2.36209135E-01 -2.40896764E-01
 -2.36209135E-01  2.94574835E-02 -1.38073484E-01  0.00000000E+00  0.00000000E+00
 -2.19032778E-01  3.13724987E-01  0.00000000E+00  0.00000000E+00  5.67682992E-01
  3.17021029E-01  0.00000000E+00  0.00000000E+00  2.14683726E-01  3.63803909E-02
 -2.30266873E-02 -3.83196019E-02  0.00000000E+00  0.00000000E+00  0.00000000E+00
 -1.57571425E-01 -1.83470227E-01 -1.57571425E-01 -1.83470227E-01  0.00000000E+00
  0.00000000E+00 -2.58825778E-01  0.00000000E+00  0.00000000E+00  0.00000000E+00
  6.88634921E-01  0.00000000E+00  0.00000000E+00  0.00000000E+00  4.44358048E-01
  0.00000000E+00  0.00000000E+00  0.00000000E+00  0.00000000E+00  0.00000000E+00
  0.00000000E+00 -1.85669146E-02  0.00000000E+00  0.00000000E+00  0.00000000E+00
  0.00000000E+00  0.00000000E+00  0.00000000E+00  0.00000000E+00  0.00000000E+00
 -1.39965917E-01  0.00000000E+00  0.00000000E+00  0.00000000E+00  3.67400123E-01
  0.00000000E+00  0.00000000E+00  0.00000000E+00  1.18324468E+00  0.00000000E+00
  0.00000000E+00  0.00000000E+00  0.00000000E+00  0.00000000E+00  0.00000000E+00
  1.16991531E-01 -1.47123579E-01 -1.05885792E+00  1.47123579E-01  1.05885792E+00
 -3.36234804E-02  1.51685307E-01  0.00000000E+00  0.00000000E+00 -1.16838970E-01
 -3.86051725E-01  0.00000000E+00  0.00000000E+00  3.32581669E-01 -1.38627597E+00
  0.00000000E+00  0.00000000E+00  1.21694097E+00 -7.26631320E-02  4.00757556E-02
  4.95235919E-03  0.00000000E+00  0.00000000E+00  0.00000000E+00  8.28691150E-02
  1.41744801E+00  8.28691150E-02  1.41744801E+00  0.00000000E+00  0.00000000E+00
  0.00000000E+00  2.65717461E-01  0.00000000E+00  0.00000000E+00  0.00000000E+00
 -1.09136186E+00  0.00000000E+00  0.00000000E+00  0.00000000E+00  1.11311110E+00
  0.00000000E+00  0.00000000E+00  0.00000000E+00  0.00000000E+00  0.00000000E+00
  0.00000000E+00  1.39328614E-01 -1.64469235E-01  1.87990630E-01  1.64469235E-01
 -1.87990630E-01 -4.66497605E-02 -8.83577747E-04  0.00000000E+00  0.00000000E+00
 -1.16898062E-01 -1.19352679E+00  0.00000000E+00  0.00000000E+00  5.31480110E-01
  2.59058159E+00  0.00000000E+00  0.00000000E+00 -1.45882087E+00  1.07744250E-01
 -2.15512401E-01 -1.65281135E-01  0.00000000E+00  0.00000000E+00  0.00000000E+00
 -2.01167900E-01 -8.21829789E-01 -2.01167900E-01 -8.21829789E-01 -3.88065452E-02
  4.38139512E-02  0.00000000E+00  0.00000000E+00  2.44956369E-01 -8.89757316E-01
  0.00000000E+00  0.00000000E+00 -9.85197862E-01  1.44619500E+00  0.00000000E+00
  0.00000000E+00  7.24914461E-01 -2.49564830E-02 -6.46428192E-02 -3.22985494E-02
  0.00000000E+00  0.00000000E+00  0.00000000E+00  3.18679086E-02 -3.69594391E-01
  3.18679086E-02 -3.69594391E-01  0.00000000E+00  0.00000000E+00  2.92957087E-01
  0.00000000E+00  0.00000000E+00  0.00000000E+00 -1.19185982E+00  0.00000000E+00
  0.00000000E+00  0.00000000E+00  1.23454255E+00  0.00000000E+00  0.00000000E+00
  0.00000000E+00  0.00000000E+00  0.00000000E+00  0.00000000E+00  1.61157050E-02
  0.00000000E+00  0.00000000E+00  0.00000000E+00  0.00000000E+00  0.00000000E+00
  0.00000000E+00  0.00000000E+00  0.00000000E+00 -1.55117044E-01  0.00000000E+00
  0.00000000E+00  0.00000000E+00  5.75256108E-01  0.00000000E+00  0.00000000E+00
  0.00000000E+00 -1.21974017E+00  0.00000000E+00  0.00000000E+00  0.00000000E+00
  0.00000000E+00  0.00000000E+00  0.00000000E+00  5.92462714E-01 -5.75436320E-01
  1.35931287E+00  5.75436320E-01 -1.35931287E+00 -2.94438093E-02  3.68940274E-02
  0.00000000E+00  0.00000000E+00 -1.12929127E-01 -6.97313044E-01  0.00000000E+00
  0.00000000E+00  4.20406186E-01  2.09541609E+00  0.00000000E+00  0.00000000E+00
 -1.15750911E+00 -4.75596110E-01  6.55872185E-01 -2.05387856E-01  0.00000000E+00
  0.00000000E+00  0.00000000E+00  5.76027210E-01 -1.47368703E+00  5.76027210E-01
 -1.47368703E+00 -1.36213095E-02  1.75759171E-02  0.00000000E+00  0.00000000E+00
 -6.38891167E-02 -3.20790768E-01  0.00000000E+00  0.00000000E+00  2.35470072E-01
  9.80067705E-01  0.00000000E+00  0.00000000E+00 -5.57720956E-01 -3.61975360E-01
 -5.71254601E-01  9.21855885E-01  0.00000000E+00  0.00000000E+00  0.00000000E+00
  2.81075425E-01 -7.00362647E-01  2.81075425E-01 -7.00362647E-01  0.00000000E+00
  0.00000000E+00  0.00000000E+00  0.00000000E+00  0.00000000E+00  0.00000000E+00
  0.00000000E+00  0.00000000E+00  0.00000000E+00  0.00000000E+00  0.00000000E+00
  0.00000000E+00  0.00000000E+00  0.00000000E+00  0.00000000E+00  0.00000000E+00
  1.00000000E+00  0.00000000E+00  0.00000000E+00  0.00000000E+00  0.00000000E+00
  0.00000000E+00  0.00000000E+00  0.00000000E+00  0.00000000E+00 -9.05154690E-03
  0.00000000E+00  0.00000000E+00  0.00000000E+00  3.20128872E-02  0.00000000E+00
  0.00000000E+00  0.00000000E+00 -1.16509295E-02  0.00000000E+00  0.00000000E+00
  0.00000000E+00  0.00000000E+00  0.00000000E+00  0.00000000E+00  9.99697616E-01
  0.00000000E+00  0.00000000E+00  0.00000000E+00  0.00000000E+00  0.00000000E+00
 -8.42908938E-03  7.02084525E-02  0.00000000E+00  0.00000000E+00 -7.01255582E-02
 -2.64269923E-02  0.00000000E+00  0.00000000E+00  2.21545863E-01 -8.44254636E-02
  0.00000000E+00  0.00000000E+00  5.74463490E-02  8.57943755E-01 -4.78699470E-01
 -3.15352020E-01  0.00000000E+00  0.00000000E+00  0.00000000E+00  7.07832291E-01
 -3.31419455E-01  7.07832291E-01 -3.31419455E-01  0.00000000E+00  0.00000000E+00
  0.00000000E+00  7.70188686E-02  0.00000000E+00  0.00000000E+00  0.00000000E+00
 -2.51350371E-01  0.00000000E+00  0.00000000E+00  0.00000000E+00  1.15142842E-01
  0.00000000E+00  0.00000000E+00  0.00000000E+00  0.00000000E+00  0.00000000E+00
  0.00000000E+00  8.89806690E-01  8.03217994E-01 -5.63128597E-01 -8.03217994E-01
  5.63128597E-01  1.68794791E-01 -7.75021344E-01  0.00000000E+00  0.00000000E+00
 -2.91611186E-03  6.37132312E+00  0.00000000E+00  0.00000000E+00  1.51871256E-02
 -1.08536981E-01  0.00000000E+00  0.00000000E+00 -1.02743895E-01 -2.70727677E+00
 -2.69792815E+00 -2.69937397E+00  0.00000000E+00  0.00000000E+00  0.00000000E+00
  6.07544085E-02 -1.48057275E-01  6.07544085E-02 -1.48057275E-01
Total SCF Density                          R   N=         276
  2.15502227E+00 -6.04042549E-01  2.36393689E+00  0.00000000E+00  0.00000000E+00
  2.10969945E+00  0.00000000E+00  0.00000000E+00 -9.48520498E-31  2.05309473E+00
 -7.00407638E-03  3.23664805E-02  2.04492281E-31  7.15722984E-31  2.07379810E+00
  5.01311533E-02 -4.31446489E-01 -8.66217389E-33 -3.03176086E-32 -8.78448795E-02
  9.68261934E-01  0.00000000E+00  0.00000000E+00 -3.16297361E-01  1.16326169E-31
 -2.33919959E-32  0.00000000E+00  9.49253066E-01  0.00000000E+00  0.00000000E+00
  1.10163193E-31 -1.60204289E-01 -4.73920877E-32  0.00000000E+00 -3.37422926E-31
  5.26833952E-01  1.86637456E-02 -8.68125068E-02 -2.12300136E-32 -7.43050475E-32
 -2.15297916E-01  2.14985477E-01  6.61989646E-32  2.31696376E-31  6.71337258E-01
  6.46224006E-02 -2.68890733E-01 -1.07414103E-32 -3.75949360E-32 -1.08930842E-01
  5.18078833E-01  2.97311573E-32  1.04059051E-31  3.01509755E-01  3.34041237E-01
  0.00000000E+00  0.00000000E+00 -2.39284804E-01  8.16594296E-32 -1.76964775E-32
  0.00000000E+00  6.11812595E-01 -2.06459690E-31  4.52470348E-32  0.00000000E+00
  3.94951570E-01  0.00000000E+00  0.00000000E+00  6.70223621E-32 -5.50010164E-02
 -1.62705568E-32  0.00000000E+00 -1.69481835E-31  1.07421222E-01  3.17776509E-32
  0.00000000E+00 -9.70668692E-32  2.21520330E-02  8.78531996E-03 -4.52867763E-02
 -1.06648664E-32 -3.73270325E-32 -1.08154595E-01  1.14910685E-01  2.43673182E-32
  8.52856137E-32  2.47113964E-01  1.27758614E-01  9.14909925E-33  3.20218474E-32
  9.27828892E-02  1.47296837E-02 -3.65037341E-03 -1.39208705E-33 -4.87230466E-33
 -1.41174398E-02  3.10169936E-03  4.43028201E-33  1.55059870E-32  4.49283972E-02
  1.51068050E-02  1.58662940E-33  5.55320291E-33  1.60903337E-02  3.24030177E-03
  1.70526440E-02 -1.43849806E-02  1.51911380E-33  5.31689829E-33  1.54056441E-02
  2.08699322E-02 -3.21612721E-33 -1.12564452E-32 -3.26154047E-02  2.91147015E-04
 -1.06866133E-33 -3.74031465E-33 -1.08375134E-02 -2.46848923E-03  2.81578239E-03
  1.58909137E-02 -8.91906193E-03  1.99977598E-33  6.99921594E-33  2.02801378E-02
  8.28951847E-03 -4.87781499E-33 -1.70723525E-32 -4.94669208E-02 -1.06480559E-02
 -1.70755712E-33 -5.97644993E-33 -1.73166865E-02 -3.50836346E-03  3.37985396E-03
  4.42458911E-03 -9.88233273E-33  2.44625958E-33  2.05836502E-49  0.00000000E+00
  2.44625958E-33 -3.00222766E-33 -5.40639486E-49  0.00000000E+00 -8.45071491E-33
 -4.22535745E-33 -1.87742373E-49  0.00000000E+00 -3.22461490E-33 -5.55968086E-34
  1.94588830E-34  4.72572873E-34  1.09913021E-34  3.06724176E-33  0.00000000E+00
  8.65519969E-03 -6.11564895E-33  6.40101437E-34  0.00000000E+00 -2.55910914E-02
  1.73462043E-32 -1.89260733E-33  0.00000000E+00 -1.64962342E-02  7.11639150E-33
 -1.21999071E-33 -4.92480504E-36  1.74036994E-34  2.92566825E-34  2.38110886E-34
  6.89923216E-04  1.21577719E-32 -9.28707865E-33 -1.07857809E-32  3.96918857E-02
  2.59631901E-32  1.16205637E-32  2.97998894E-32 -1.06599487E-01 -6.42458408E-32
 -4.12741382E-33  8.67310214E-33 -2.18166715E-02 -1.76738230E-32 -2.24134904E-33
  1.52181974E-32  1.39830180E-32  2.12950383E-33 -5.26420851E-33  2.15957345E-02
  1.09381616E-02 -4.85257796E-02  8.85927774E-33 -9.88823582E-02  8.42417781E-02
  7.85087745E-02 -2.15704154E-32  2.46977856E-01 -2.11363240E-01 -2.61670143E-02
 -4.42963887E-33  5.06236601E-02 -7.22697805E-02 -1.59196580E-02  1.54871027E-02
  1.96168660E-02 -2.89103405E-33  1.20089107E-32 -5.00597765E-02  2.06635046E-01
 -6.11529798E-03  2.39225241E-02  8.08890577E-33 -9.20509733E-02  8.16870845E-02
 -5.46818557E-02 -2.15704154E-32  2.42286601E-01 -2.19431415E-01 -9.13141205E-02
 -4.42963887E-33  4.96068874E-02 -8.03113690E-02 -1.48844970E-02  1.12297766E-02
  1.66094444E-02 -2.22387234E-33  1.15641362E-32 -4.90909285E-02  1.85521414E-01
  1.83657608E-01  1.09381616E-02 -4.85257796E-02 -8.85927774E-33  9.88823582E-02
  8.42417781E-02  7.85087745E-02  2.15704154E-32 -2.46977856E-01 -2.11363240E-01
 -2.61670143E-02  4.42963887E-33 -5.06236601E-02 -7.22697805E-02 -1.59196580E-02
  1.54871027E-02  1.96168660E-02  6.89400427E-33 -1.02298128E-32  5.00597765E-02
 -2.54938223E-02 -4.20807264E-02  2.06635046E-01 -6.11529798E-03  2.39225241E-02
 -8.08890577E-33  9.20509733E-02  8.16870845E-02 -5.46818557E-02  2.15704154E-32
 -2.42286601E-01 -2.19431415E-01 -9.13141205E-02  4.42963887E-33 -4.96068874E-02
 -8.03113690E-02 -1.48844970E-02  1.12297766E-02  1.66094444E-02  7.44997235E-33
 -1.04522000E-32  4.90909285E-02 -4.20807264E-02 -3.95304999E-02  1.85521414E-01
  1.83657608E-01
Total MP2 Density                          R   N=         276
  2.15511554E+00 -6.04271621E-01  2.36429562E+00 -5.73262671E-35 -4.19209890E-35
  2.10941478E+00  9.93637941E-21 -2.27332081E-20 -9.47759033E-31  2.05594295E+00
 -6.60066274E-03  3.04511103E-02  2.04674891E-31  8.75687274E-21  2.07416173E+00
  5.27382469E-02 -4.39809826E-01 -1.17833337E-32  1.13327772E-19 -8.26169006E-02
  1.03169989E+00  2.29440696E-34 -2.22840887E-34 -3.16406556E-01  1.14272517E-31
 -2.39602511E-32  1.11207552E-32  9.54768350E-01 -3.24670620E-20  8.73103291E-20
  1.08028658E-31 -1.69511821E-01 -4.22590431E-20 -3.62358842E-19 -3.31816061E-31
  5.57991373E-01  1.73189921E-02 -8.03199811E-02 -2.15434065E-32 -2.04519246E-20
 -2.17600826E-01  2.00309919E-01  6.72481228E-32  1.01645119E-19  6.83435298E-01
  6.27931076E-02 -2.62585633E-01 -3.36935851E-33 -3.09029142E-19 -1.04457096E-01
  4.80992501E-01  9.87714459E-33  8.74734249E-19  2.84896701E-01  3.61580481E-01
  1.44172953E-34 -1.19630868E-34 -2.33098616E-01  8.07149582E-32 -1.76279388E-32
  6.99223486E-33  5.87508055E-01 -2.03484923E-31  4.47647433E-32 -1.32325810E-32
  4.01371115E-01 -1.80344296E-20  7.29512972E-20  6.24831598E-32 -5.72648489E-02
  3.36039128E-19 -2.49156905E-19 -1.57048597E-31  1.12044626E-01 -9.01529811E-19
 -1.78870403E-19 -8.91796971E-32  2.90499218E-02  8.84868595E-03 -4.53047113E-02
 -1.54374306E-32  8.76485385E-20 -1.05448612E-01  1.13680069E-01  3.72053934E-32
 -2.57539030E-19  2.36658751E-01  1.21038107E-01  1.70132403E-32 -3.88004235E-19
  1.00157773E-01  1.38839848E-02 -2.83165368E-04 -7.02038960E-34  1.78029254E-19
 -1.13284354E-02 -1.26457816E-02  1.54211006E-33 -4.49008246E-19  3.73922522E-02
  2.11120444E-02 -3.50002125E-34 -1.55182214E-19  8.78992443E-03  1.18087720E-02
  1.71872597E-02 -1.50395123E-02  2.47875661E-33 -8.80644325E-20  1.14404794E-02
  1.82640246E-02 -6.97285779E-33  2.15142483E-19 -2.34488224E-02  5.16171774E-03
 -3.42103574E-33  9.33076523E-20 -2.08468940E-03 -3.59091229E-03  9.88606499E-03
  1.54482726E-02 -6.94504855E-03  2.74239097E-33  4.65243805E-20  1.96327830E-02
 -5.94994763E-04 -7.96107283E-33 -1.19771515E-19 -4.85039095E-02 -1.07593970E-02
 -3.59860074E-33  4.68232742E-20 -1.48953401E-02 -5.74225419E-03  1.09980870E-03
  1.30820947E-02 -9.67566083E-33  1.47925405E-33  1.60788409E-20 -2.70271431E-34
  2.29177344E-33 -1.01419231E-33 -4.88294491E-20  5.37816214E-34 -8.04154089E-33
 -3.16877249E-33 -3.14681732E-20  1.10849800E-34 -3.00041919E-33 -5.51230156E-34
  2.40205550E-34  4.93065131E-34  8.27374700E-03  3.06395381E-33 -9.96826455E-36
  1.01433913E-02 -6.12421262E-33  4.52811785E-34 -2.33816593E-34 -2.93192916E-02
  1.73783088E-32 -1.40612511E-33  7.20029789E-34 -2.05440368E-02  6.81863786E-33
 -1.38001773E-33  1.08569504E-34  2.46683967E-34  3.34940993E-34  1.31639004E-21
  9.14441408E-03  1.50667557E-21  5.25607452E-21 -1.09303618E-32  3.53586645E-02
 -6.49573805E-20  4.27008101E-20  3.01435704E-32 -9.63363540E-02  1.70424638E-19
 -1.34550348E-19  9.02605489E-33 -1.71337770E-02  1.18987266E-19  1.04897333E-19
 -5.61712444E-20  7.65961391E-21  2.02029476E-33 -5.31059001E-33  2.33386264E-02
  1.05260299E-02 -4.64905381E-02  9.41307506E-33 -9.65847600E-02  8.27575538E-02
  7.55584101E-02 -2.30067562E-32  2.39611433E-01 -2.06143941E-01 -3.09405823E-02
 -5.26181678E-33  5.01512912E-02 -6.83828002E-02 -1.59583628E-02  1.33138795E-02
  1.97569827E-02 -2.46380286E-33  1.19550813E-32 -4.59522644E-02  2.12629478E-01
 -5.96265660E-03  2.38257398E-02  7.77430745E-33 -8.71955380E-02  7.89581467E-02
 -4.67922169E-02 -2.08746005E-32  2.28161285E-01 -2.10195323E-01 -1.03938957E-01
 -3.89505403E-33  4.88007737E-02 -7.50836050E-02 -1.78656131E-02  8.52241248E-03
  1.69950247E-02 -2.07712222E-33  1.14595446E-32 -4.33635691E-02  1.83360567E-01
  1.87682171E-01  1.05260299E-02 -4.64905381E-02 -9.28126826E-33  9.65847600E-02
  8.27575538E-02  7.55584101E-02  2.24524336E-32 -2.39611433E-01 -2.06143941E-01
 -3.09405823E-02  5.70317337E-33 -5.01512912E-02 -6.83828002E-02 -1.59583628E-02
  1.33138795E-02  1.97569827E-02  6.81445050E-33 -1.05181909E-32  4.59522644E-02
 -2.39704832E-02 -3.68470098E-02  2.12629478E-01 -5.96265660E-03  2.38257398E-02
 -1.76435176E-32  8.71955380E-02  7.89581467E-02 -4.67922169E-02  4.71185823E-32
 -2.28161285E-01 -2.10195323E-01 -1.03938957E-01  2.15944430E-32 -4.88007737E-02
 -7.50836050E-02 -1.78656131E-02  8.52241248E-03  1.69950247E-02  7.10009120E-33
 -1.13955785E-32  4.33635691E-02 -3.68470098E-02 -2.95035798E-02  1.83360567E-01
  1.87682171E-01
QEq coupling tensors                       R   N=          18
  2.39964704E+00 -3.93883974E-16 -1.93846220E+00 -3.55049968E-16  0.00000000E+00
 -4.61184833E-01  1.39530954E-01 -7.80464051E-19 -8.48011154E-02  1.82866596E-19
  1.71493077E-01 -5.47298388E-02  1.39530954E-01 -3.37842391E-17 -8.48011154E-02
 -3.11962645E-17 -1.71493077E-01 -5.47298388E-02
Mulliken Charges                           R   N=           3
 -2.19774241E-01  1.09887121E-01  1.09887121E-01
Optimization MaxStp                        I                2
Optimization Job offset                    I                0
Optimization Num results per geometry      I                2
Optimization Num geometry variables        I                9
Opt point       1 Results for each geome   R   N=           2
 -3.98788413E+02  0.00000000E+00
Opt point       1 Geometries               R   N=           9
  2.46519033E-32  1.97215226E-31  1.92967337E-01 -1.38050658E-30  1.84154563E+00
 -1.54373870E+00 -2.25524296E-16 -1.84154563E+00 -1.54373870E+00
Opt point       1 Gradient at each geome   R   N=           9
  6.29236148E-16 -4.99275100E-17 -1.56008023E-06 -1.42925781E-17 -2.93680688E-07
  7.80040117E-07 -6.14943570E-16  2.93680689E-07  7.80040116E-07
Optimization Number of geometries          I   N=           1
           1
ONIOM Charges                              I   N=          16
           0           0           0           0           0           0
           0           0           0           0           0           0
           0           0           0           0
ONIOM Multiplicities                       I   N=          16
           1           0           0           0           0           0
           0           0           0           0           0           0
           0           0           0           0
Atom Layers                                I   N=           3
           1           1           1
Atom Modifiers                             I   N=           3
           0           0           0
Force Field                                I                0
Int Atom Modified Types                    I   N=           3
           0           0           0
Link Atoms                                 I   N=           3
           0           0           0
Atom Modified MM Charges                   R   N=           3
  0.00000000E+00  0.00000000E+00  0.00000000E+00
Link Distances                             R   N=          12