
    -----------------------------------------------------------------------
          Psi4: An Open-Source Ab Initio Electronic Structure Package
                               Psi4 1.3.2 release

                         Git: Rev {HEAD} ecbda83 


    R. M. Parrish, L. A. Burns, D. G. A. Smith, A. C. Simmonett,
    A. E. DePrince III, E. G. Hohenstein, U. Bozkaya, A. Yu. Sokolov,
    R. Di Remigio, R. M. Richard, J. F. Gonthier, A. M. James,
    H. R. McAlexander, A. Kumar, M. Saitow, X. Wang, B. P. Pritchard,
    P. Verma, H. F. Schaefer III, K. Patkowski, R. A. King, E. F. Valeev,
    F. A. Evangelista, J. M. Turney, T. D. Crawford, and C. D. Sherrill,
    J. Chem. Theory Comput. 13(7) pp 3185--3197 (2017).
    (doi: 10.1021/acs.jctc.7b00174)


                         Additional Contributions by
    P. Kraus, H. Kruse, M. H. Lechner, M. C. Schieber, R. A. Shaw,
    A. Alenaizan, R. Galvelis, Z. L. Glick, S. Lehtola, and J. P. Misiewicz

    -----------------------------------------------------------------------


    Psi4 started on: Tuesday, 17 November 2020 03:49AM

    Process ID: 14830
    Host:       node142.bme.utexas.edu
    PSIDATADIR: /home/xy3866/psi4conda/share/psi4
    Memory:     500.0 MiB
    Threads:    8
    
  ==> Input File <==

--------------------------------------------------------------------------
#psi4
#
memory 32 gb

molecule  {
0 1
  O        2.4020675     1.0341148    -0.0001281
  O        2.2902000    -1.1004440     0.0000360
  N        1.7133150     0.0000000    -0.0000370
  C        0.2417700     0.0000000    -0.0000090
  C       -0.4248660     1.2226560     0.0000420
  C       -0.4248660    -1.2226560    -0.0000210
  C       -1.8195320     1.2101310     0.0000700
  C       -1.8195320    -1.2101310     0.0000040
  C       -2.5180540     0.0000000     0.0000560
  H        0.1410100     2.1474780     0.0000480
  H        0.1410100    -2.1474780    -0.0000570
  H       -2.3614670     2.1521620     0.0001130
  H       -2.3614670    -2.1521620    -0.0000060
  H       -3.6050100     0.0000000     0.0000740
units angstrom
no_reorient  #important for SAPT in psi4, default
symmetry c1  #important for SAPT in psi4, default
}

set PROPERTIES_ORIGIN ["COM"]
properties('MP2/aug-cc-pvtz', properties = ['dipole'])
--------------------------------------------------------------------------

  Memory set to  29.802 GiB by Python driver.
    SCF Algorithm Type (re)set to DF.

*** tstart() called on node142.bme.utexas.edu
*** at Tue Nov 17 03:49:28 2020

   => Loading Basis Set <=

    Name: AUG-CC-PVTZ
    Role: ORBITAL
    Keyword: BASIS
    atoms 1-2   entry O          line   327 file /home/xy3866/psi4conda/share/psi4/basis/aug-cc-pvtz.gbs 
    atoms 3     entry N          line   281 file /home/xy3866/psi4conda/share/psi4/basis/aug-cc-pvtz.gbs 
    atoms 4-9   entry C          line   235 file /home/xy3866/psi4conda/share/psi4/basis/aug-cc-pvtz.gbs 
    atoms 10-14 entry H          line    36 file /home/xy3866/psi4conda/share/psi4/basis/aug-cc-pvtz.gbs 


         ---------------------------------------------------------
                                   SCF
               by Justin Turney, Rob Parrish, Andy Simmonett
                          and Daniel G. A. Smith
                              RHF Reference
                        8 Threads,  30517 MiB Core
         ---------------------------------------------------------

  ==> Geometry <==

    Molecular point group: c1
    Full point group: C1

    Geometry (in Angstrom), charge = 0, multiplicity = 1:

       Center              X                  Y                   Z               Mass       
    ------------   -----------------  -----------------  -----------------  -----------------
         O            2.322785289632     1.042738000841    -0.000127174229    15.994914619570
         O            2.210917789632    -1.091820799159     0.000036925771    15.994914619570
         N            1.634032789632     0.008623200841    -0.000036074229    14.003074004430
         C            0.162487789632     0.008623200841    -0.000008074229    12.000000000000
         C           -0.504148210368     1.231279200841     0.000042925771    12.000000000000
         C           -0.504148210368    -1.214032799159    -0.000020074229    12.000000000000
         C           -1.898814210368     1.218754200841     0.000070925771    12.000000000000
         C           -1.898814210368    -1.201507799159     0.000004925771    12.000000000000
         C           -2.597336210368     0.008623200841     0.000056925771    12.000000000000
         H            0.061727789632     2.156101200841     0.000048925771     1.007825032230
         H            0.061727789632    -2.138854799159    -0.000056074229     1.007825032230
         H           -2.440749210368     2.160785200841     0.000113925771     1.007825032230
         H           -2.440749210368    -2.143538799159    -0.000005074229     1.007825032230
         H           -3.684292210368     0.008623200841     0.000074925771     1.007825032230

  Running in c1 symmetry.

  Rotational constants: A =      0.13366  B =      0.04199  C =      0.03195 [cm^-1]
  Rotational constants: A =   4007.15390  B =   1258.81598  C =    957.89939 [MHz]
  Nuclear repulsion =  410.324109319977538

  Charge       = 0
  Multiplicity = 1
  Electrons    = 64
  Nalpha       = 32
  Nbeta        = 32

  ==> Algorithm <==

  SCF Algorithm Type is DF.
  DIIS enabled.
  MOM disabled.
  Fractional occupation disabled.
  Guess Type is SAD.
  Energy threshold   = 1.00e-10
  Density threshold  = 1.00e-10
  Integral threshold = 0.00e+00

  ==> Primary Basis <==

  Basis Set: AUG-CC-PVTZ
    Blend: AUG-CC-PVTZ
    Number of shells: 171
    Number of basis function: 529
    Number of Cartesian functions: 620
    Spherical Harmonics?: true
    Max angular momentum: 3

   => Loading Basis Set <=

    Name: (AUG-CC-PVTZ AUX)
    Role: JKFIT
    Keyword: DF_BASIS_SCF
    atoms 1-2   entry O          line   286 file /home/xy3866/psi4conda/share/psi4/basis/aug-cc-pvtz-jkfit.gbs 
    atoms 3     entry N          line   224 file /home/xy3866/psi4conda/share/psi4/basis/aug-cc-pvtz-jkfit.gbs 
    atoms 4-9   entry C          line   162 file /home/xy3866/psi4conda/share/psi4/basis/aug-cc-pvtz-jkfit.gbs 
    atoms 10-14 entry H          line    70 file /home/xy3866/psi4conda/share/psi4/basis/aug-cc-pvtz-jkfit.gbs 

  ==> Pre-Iterations <==

   -------------------------------------------------------
    Irrep   Nso     Nmo     Nalpha   Nbeta   Ndocc  Nsocc
   -------------------------------------------------------
     A        529     529       0       0       0       0
   -------------------------------------------------------
    Total     529     529      32      32      32       0
   -------------------------------------------------------

  ==> Integral Setup <==

  DFHelper Memory: AOs need 2.413 GiB; user supplied 22.352 GiB. Using in-core AOs.

  ==> MemDFJK: Density-Fitted J/K Matrices <==

    J tasked:                   Yes
    K tasked:                   Yes
    wK tasked:                   No
    OpenMP threads:               8
    Memory [MiB]:             22888
    Algorithm:                 Disk
    Schwarz Cutoff:           1E-12
    Mask sparsity (%):       4.1809
    Fitting Condition:        1E-10

   => Auxiliary Basis Set <=

  Basis Set: (AUG-CC-PVTZ AUX)
    Blend: AUG-CC-PVTZ-JKFIT
    Number of shells: 340
    Number of basis function: 1166
    Number of Cartesian functions: 1454
    Spherical Harmonics?: true
    Max angular momentum: 4

  Minimum eigenvalue in the overlap matrix is 7.0086698211E-07.
  Using Symmetric Orthogonalization.

  SCF Guess: Superposition of Atomic Densities via on-the-fly atomic UHF.

  ==> Iterations <==

                           Total Energy        Delta E     RMS |[F,P]|

   @DF-RHF iter SAD:  -433.56818873233226   -4.33568e+02   0.00000e+00 
   @DF-RHF iter   1:  -434.02703708879847   -4.58848e-01   1.51269e-03 DIIS
   @DF-RHF iter   2:  -434.18385284405105   -1.56816e-01   1.16718e-03 DIIS
   @DF-RHF iter   3:  -434.31512460487579   -1.31272e-01   1.57802e-04 DIIS
   @DF-RHF iter   4:  -434.31906495237672   -3.94035e-03   6.68318e-05 DIIS
   @DF-RHF iter   5:  -434.31981817161244   -7.53219e-04   1.49866e-05 DIIS
   @DF-RHF iter   6:  -434.31988352524979   -6.53536e-05   5.96323e-06 DIIS
   @DF-RHF iter   7:  -434.31989830563367   -1.47804e-05   2.60271e-06 DIIS
   @DF-RHF iter   8:  -434.31990215177268   -3.84614e-06   1.28976e-06 DIIS
   @DF-RHF iter   9:  -434.31990324146301   -1.08969e-06   5.90575e-07 DIIS
   @DF-RHF iter  10:  -434.31990350749925   -2.66036e-07   2.13596e-07 DIIS
   @DF-RHF iter  11:  -434.31990353900852   -3.15093e-08   1.07121e-07 DIIS
   @DF-RHF iter  12:  -434.31990354178060   -2.77208e-09   4.49207e-08 DIIS
   @DF-RHF iter  13:  -434.31990354236177   -5.81167e-10   9.79449e-09 DIIS
   @DF-RHF iter  14:  -434.31990354240708   -4.53042e-11   5.57929e-09 DIIS
   @DF-RHF iter  15:  -434.31990354241555   -8.46967e-12   1.42929e-09 DIIS
   @DF-RHF iter  16:  -434.31990354241572   -1.70530e-13   4.44716e-10 DIIS
   @DF-RHF iter  17:  -434.31990354241606   -3.41061e-13   1.97949e-10 DIIS
   @DF-RHF iter  18:  -434.31990354241611   -5.68434e-14   9.31458e-11 DIIS
  Energy and wave function converged.


  ==> Post-Iterations <==

    Orbital Energies [Eh]
    ---------------------

    Doubly Occupied:                                                      

       1A    -20.600568     2A    -20.596922     3A    -15.852373  
       4A    -11.319998     5A    -11.282801     6A    -11.282101  
       7A    -11.279296     8A    -11.271286     9A    -11.271148  
      10A     -1.588919    11A     -1.373927    12A     -1.203604  
      13A     -1.098640    14A     -1.055934    15A     -0.965617  
      16A     -0.869109    17A     -0.829664    18A     -0.776308  
      19A     -0.718538    20A     -0.710934    21A     -0.706762  
      22A     -0.656885    23A     -0.652918    24A     -0.627849  
      25A     -0.559623    26A     -0.540135    27A     -0.535420  
      28A     -0.501149    29A     -0.482305    30A     -0.445515  
      31A     -0.382106    32A     -0.372674  

    Virtual:                                                              

      33A      0.020353    34A      0.027631    35A      0.028784  
      36A      0.036374    37A      0.050026    38A      0.052053  
      39A      0.080716    40A      0.083257    41A      0.087428  
      42A      0.100242    43A      0.105644    44A      0.107911  
      45A      0.108111    46A      0.108406    47A      0.111159  
      48A      0.114570    49A      0.123886    50A      0.128941  
      51A      0.130392    52A      0.144130    53A      0.145948  
      54A      0.147347    55A      0.152294    56A      0.153461  
      57A      0.155421    58A      0.163336    59A      0.181394  
      60A      0.185390    61A      0.195911    62A      0.211393  
      63A      0.225286    64A      0.237286    65A      0.237623  
      66A      0.245734    67A      0.255552    68A      0.256020  
      69A      0.256590    70A      0.262673    71A      0.273948  
      72A      0.278721    73A      0.288576    74A      0.289476  
      75A      0.295610    76A      0.301742    77A      0.307984  
      78A      0.308009    79A      0.309425    80A      0.312698  
      81A      0.313401    82A      0.330520    83A      0.335247  
      84A      0.335627    85A      0.344068    86A      0.349433  
      87A      0.367393    88A      0.372854    89A      0.379106  
      90A      0.384069    91A      0.407709    92A      0.410882  
      93A      0.412900    94A      0.414038    95A      0.428065  
      96A      0.431975    97A      0.432114    98A      0.439425  
      99A      0.439663   100A      0.450561   101A      0.451066  
     102A      0.460226   103A      0.467826   104A      0.472830  
     105A      0.474371   106A      0.482307   107A      0.484500  
     108A      0.492833   109A      0.500861   110A      0.502847  
     111A      0.507790   112A      0.516466   113A      0.520480  
     114A      0.527006   115A      0.531330   116A      0.539180  
     117A      0.567010   118A      0.584501   119A      0.599470  
     120A      0.602152   121A      0.610125   122A      0.612023  
     123A      0.612479   124A      0.620172   125A      0.621607  
     126A      0.646957   127A      0.650228   128A      0.657607  
     129A      0.662725   130A      0.675084   131A      0.681451  
     132A      0.693307   133A      0.698126   134A      0.701541  
     135A      0.720216   136A      0.722117   137A      0.737419  
     138A      0.751557   139A      0.754288   140A      0.758030  
     141A      0.761874   142A      0.792627   143A      0.803007  
     144A      0.807736   145A      0.809368   146A      0.824461  
     147A      0.829637   148A      0.833368   149A      0.840404  
     150A      0.843059   151A      0.848364   152A      0.861039  
     153A      0.866476   154A      0.872660   155A      0.873563  
     156A      0.875990   157A      0.882899   158A      0.900762  
     159A      0.901651   160A      0.912930   161A      0.915106  
     162A      0.921248   163A      0.922353   164A      0.927433  
     165A      0.937404   166A      0.948502   167A      0.959855  
     168A      0.961286   169A      0.975509   170A      0.987200  
     171A      0.992633   172A      1.011924   173A      1.022287  
     174A      1.024197   175A      1.028570   176A      1.037745  
     177A      1.042296   178A      1.049231   179A      1.052676  
     180A      1.057351   181A      1.065230   182A      1.074027  
     183A      1.076586   184A      1.079998   185A      1.084117  
     186A      1.090994   187A      1.094439   188A      1.100506  
     189A      1.134427   190A      1.143202   191A      1.145816  
     192A      1.147901   193A      1.150265   194A      1.172055  
     195A      1.176766   196A      1.180143   197A      1.189344  
     198A      1.190625   199A      1.196507   200A      1.207238  
     201A      1.219354   202A      1.222368   203A      1.234874  
     204A      1.249501   205A      1.254362   206A      1.270744  
     207A      1.289218   208A      1.299574   209A      1.319241  
     210A      1.320313   211A      1.335312   212A      1.344604  
     213A      1.349941   214A      1.357611   215A      1.363094  
     216A      1.371327   217A      1.374599   218A      1.376748  
     219A      1.407191   220A      1.412715   221A      1.421837  
     222A      1.438529   223A      1.442626   224A      1.469707  
     225A      1.498036   226A      1.499883   227A      1.504527  
     228A      1.508982   229A      1.533619   230A      1.543329  
     231A      1.594295   232A      1.594753   233A      1.602774  
     234A      1.627490   235A      1.630158   236A      1.650424  
     237A      1.656274   238A      1.663519   239A      1.670808  
     240A      1.675157   241A      1.678908   242A      1.701345  
     243A      1.719408   244A      1.726930   245A      1.743752  
     246A      1.753265   247A      1.757447   248A      1.783094  
     249A      1.791318   250A      1.799343   251A      1.808131  
     252A      1.830911   253A      1.845211   254A      1.847780  
     255A      1.854710   256A      1.863974   257A      1.869117  
     258A      1.883645   259A      1.894465   260A      1.946410  
     261A      1.954809   262A      1.963301   263A      1.974927  
     264A      1.977023   265A      1.981002   266A      1.998505  
     267A      2.004144   268A      2.013075   269A      2.030625  
     270A      2.049525   271A      2.051830   272A      2.066509  
     273A      2.071038   274A      2.074940   275A      2.104271  
     276A      2.105607   277A      2.112025   278A      2.126321  
     279A      2.161064   280A      2.181531   281A      2.188316  
     282A      2.212371   283A      2.225707   284A      2.272121  
     285A      2.283378   286A      2.285104   287A      2.293129  
     288A      2.293531   289A      2.299116   290A      2.305680  
     291A      2.308336   292A      2.325304   293A      2.343530  
     294A      2.345066   295A      2.356161   296A      2.360846  
     297A      2.388034   298A      2.396201   299A      2.411539  
     300A      2.421662   301A      2.436905   302A      2.473290  
     303A      2.511606   304A      2.533059   305A      2.551172  
     306A      2.553091   307A      2.557257   308A      2.577627  
     309A      2.594484   310A      2.601398   311A      2.633353  
     312A      2.661393   313A      2.665804   314A      2.683292  
     315A      2.695676   316A      2.701300   317A      2.712697  
     318A      2.715414   319A      2.750095   320A      2.757616  
     321A      2.773109   322A      2.837629   323A      2.892065  
     324A      2.919727   325A      2.929841   326A      2.947819  
     327A      2.957055   328A      2.992115   329A      2.994211  
     330A      3.055367   331A      3.098585   332A      3.123227  
     333A      3.125548   334A      3.149418   335A      3.185864  
     336A      3.198228   337A      3.217217   338A      3.228619  
     339A      3.243968   340A      3.285926   341A      3.296643  
     342A      3.304243   343A      3.325798   344A      3.337391  
     345A      3.359729   346A      3.369125   347A      3.372909  
     348A      3.373014   349A      3.381868   350A      3.388225  
     351A      3.427608   352A      3.450560   353A      3.469526  
     354A      3.471934   355A      3.514837   356A      3.518646  
     357A      3.525594   358A      3.528622   359A      3.536751  
     360A      3.546679   361A      3.566822   362A      3.570845  
     363A      3.573129   364A      3.576445   365A      3.628458  
     366A      3.639811   367A      3.657304   368A      3.669504  
     369A      3.688147   370A      3.713874   371A      3.720646  
     372A      3.730735   373A      3.778862   374A      3.814433  
     375A      3.816419   376A      3.827356   377A      3.828977  
     378A      3.835761   379A      3.852297   380A      3.862090  
     381A      3.877606   382A      3.891320   383A      3.916006  
     384A      3.925791   385A      3.941808   386A      3.949738  
     387A      3.996313   388A      3.998871   389A      4.005510  
     390A      4.025932   391A      4.051214   392A      4.070435  
     393A      4.077958   394A      4.084546   395A      4.093390  
     396A      4.114966   397A      4.151658   398A      4.177306  
     399A      4.182020   400A      4.203490   401A      4.224382  
     402A      4.242143   403A      4.260492   404A      4.261446  
     405A      4.273634   406A      4.301119   407A      4.331339  
     408A      4.331852   409A      4.345373   410A      4.349862  
     411A      4.368757   412A      4.378104   413A      4.396007  
     414A      4.402183   415A      4.412224   416A      4.418969  
     417A      4.440328   418A      4.447080   419A      4.544791  
     420A      4.549312   421A      4.585705   422A      4.617888  
     423A      4.649876   424A      4.676124   425A      4.677857  
     426A      4.694007   427A      4.703454   428A      4.723777  
     429A      4.735904   430A      4.762549   431A      4.841460  
     432A      4.849464   433A      4.857151   434A      4.875759  
     435A      4.911936   436A      4.922631   437A      4.950739  
     438A      4.967027   439A      4.971646   440A      5.016997  
     441A      5.029080   442A      5.054216   443A      5.059852  
     444A      5.070844   445A      5.101695   446A      5.104273  
     447A      5.110554   448A      5.110680   449A      5.120736  
     450A      5.162810   451A      5.183483   452A      5.196198  
     453A      5.214295   454A      5.227616   455A      5.255400  
     456A      5.273065   457A      5.322646   458A      5.323616  
     459A      5.349459   460A      5.370252   461A      5.376645  
     462A      5.395876   463A      5.400143   464A      5.435622  
     465A      5.471359   466A      5.526795   467A      5.534192  
     468A      5.616366   469A      5.655563   470A      5.699340  
     471A      5.714661   472A      5.738293   473A      5.756014  
     474A      5.769971   475A      5.819396   476A      5.845196  
     477A      5.871112   478A      5.963702   479A      6.055598  
     480A      6.078693   481A      6.169801   482A      6.171029  
     483A      6.204184   484A      6.216531   485A      6.316674  
     486A      6.345494   487A      6.385063   488A      6.486720  
     489A      6.548562   490A      6.569366   491A      6.603606  
     492A      6.660156   493A      6.715850   494A      6.747772  
     495A      6.769726   496A      6.777721   497A      6.810595  
     498A      6.846994   499A      6.865023   500A      6.949808  
     501A      6.998951   502A      7.023222   503A      7.090712  
     504A      7.199453   505A      7.202063   506A      7.285523  
     507A      7.305756   508A      7.368380   509A      7.369409  
     510A      7.400559   511A      7.433153   512A      7.619478  
     513A      7.648695   514A      7.727816   515A      7.761906  
     516A      7.967311   517A      8.030898   518A      8.038851  
     519A      8.322207   520A      8.493299   521A     15.190311  
     522A     15.571159   523A     16.219513   524A     16.526842  
     525A     17.515706   526A     18.450547   527A     19.339955  
     528A     19.693822   529A     20.149025  

    Final Occupation by Irrep:
              A 
    DOCC [    32 ]

  @DF-RHF Final Energy:  -434.31990354241611

   => Energetics <=

    Nuclear Repulsion Energy =            410.3241093199775378
    One-Electron Energy =               -1404.4659664137566324
    Two-Electron Energy =                 559.8219535513629808
    Total Energy =                       -434.3199035424161139

Computation Completed

*** tstop() called on node142.bme.utexas.edu at Tue Nov 17 03:50:08 2020
Module time:
	user time   =     183.90 seconds =       3.06 minutes
	system time =      23.41 seconds =       0.39 minutes
	total time  =         40 seconds =       0.67 minutes
Total time:
	user time   =     183.90 seconds =       3.06 minutes
	system time =      23.41 seconds =       0.39 minutes
	total time  =         40 seconds =       0.67 minutes
   => Loading Basis Set <=

    Name: (AUG-CC-PVTZ AUX)
    Role: RIFIT
    Keyword: DF_BASIS_MP2
    atoms 1-2   entry O          line   264 file /home/xy3866/psi4conda/share/psi4/basis/aug-cc-pvtz-ri.gbs 
    atoms 3     entry N          line   206 file /home/xy3866/psi4conda/share/psi4/basis/aug-cc-pvtz-ri.gbs 
    atoms 4-9   entry C          line   148 file /home/xy3866/psi4conda/share/psi4/basis/aug-cc-pvtz-ri.gbs 
    atoms 10-14 entry H          line    30 file /home/xy3866/psi4conda/share/psi4/basis/aug-cc-pvtz-ri.gbs 


*** tstart() called on node142.bme.utexas.edu
*** at Tue Nov 17 03:50:08 2020


  //>>>>>>>>>>>>>>>>>>>>>>>>>>>>>>>>>>>//
  //               DFMP2               //
  //<<<<<<<<<<<<<<<<<<<<<<<<<<<<<<<<<<<//

	 --------------------------------------------------------
	                          DF-MP2                         
	      2nd-Order Density-Fitted Moller-Plesset Theory     
	              RMP2 Wavefunction,   8 Threads             
	                                                         
	        Rob Parrish, Justin Turney, Andy Simmonett,      
	           Ed Hohenstein, and C. David Sherrill          
	 --------------------------------------------------------

   => Auxiliary Basis Set <=

  Basis Set: (AUG-CC-PVTZ AUX)
    Blend: AUG-CC-PVTZ-RI
    Number of shells: 322
    Number of basis function: 1184
    Number of Cartesian functions: 1499
    Spherical Harmonics?: true
    Max angular momentum: 4

	 --------------------------------------------------------
	                 NBF =   529, NAUX =  1184
	 --------------------------------------------------------
	   CLASS    FOCC     OCC    AOCC    AVIR     VIR    FVIR
	   PAIRS       0      32      32     497     497       0
	 --------------------------------------------------------

  DFHelper Memory: AOs need 2.413 GiB; user supplied 22.352 GiB. Using in-core AOs.


         ------------------------------------------------------------
                                     CPHF                           
                                  Rob Parrish                       
         ------------------------------------------------------------

  ==> Geometry <==

    Molecular point group: c1
    Full point group: C1

    Geometry (in Angstrom), charge = 0, multiplicity = 1:

       Center              X                  Y                   Z               Mass       
    ------------   -----------------  -----------------  -----------------  -----------------
         O            2.322785289632     1.042738000841    -0.000127174229    15.994914619570
         O            2.210917789632    -1.091820799159     0.000036925771    15.994914619570
         N            1.634032789632     0.008623200841    -0.000036074229    14.003074004430
         C            0.162487789632     0.008623200841    -0.000008074229    12.000000000000
         C           -0.504148210368     1.231279200841     0.000042925771    12.000000000000
         C           -0.504148210368    -1.214032799159    -0.000020074229    12.000000000000
         C           -1.898814210368     1.218754200841     0.000070925771    12.000000000000
         C           -1.898814210368    -1.201507799159     0.000004925771    12.000000000000
         C           -2.597336210368     0.008623200841     0.000056925771    12.000000000000
         H            0.061727789632     2.156101200841     0.000048925771     1.007825032230
         H            0.061727789632    -2.138854799159    -0.000056074229     1.007825032230
         H           -2.440749210368     2.160785200841     0.000113925771     1.007825032230
         H           -2.440749210368    -2.143538799159    -0.000005074229     1.007825032230
         H           -3.684292210368     0.008623200841     0.000074925771     1.007825032230

  Nuclear repulsion =  410.324109319977538
  Reference energy  = -434.319903542416114

  ==> Basis Set <==

  Basis Set: AUG-CC-PVTZ
    Blend: AUG-CC-PVTZ
    Number of shells: 171
    Number of basis function: 529
    Number of Cartesian functions: 620
    Spherical Harmonics?: true
    Max angular momentum: 3

  ==> CGRSolver (by Rob Parrish) <==

   Number of roots    =         1
   Preconditioning    =    JACOBI
   Convergence cutoff =     1E-06
   Maximum iterations =       100

  ==> CPHFRHamiltonian (by Rob Parrish) <== 

  ==> MemDFJK: Density-Fitted J/K Matrices <==

    J tasked:                   Yes
    K tasked:                   Yes
    wK tasked:                   No
    OpenMP threads:               8
    Memory [MiB]:             22888
    Algorithm:                 Disk
    Schwarz Cutoff:           1E-12
    Mask sparsity (%):       4.1809
    Fitting Condition:        1E-10

   => Auxiliary Basis Set <=

  Basis Set: (AUG-CC-PVTZ AUX)
    Blend: AUG-CC-PVTZ-JKFIT
    Number of shells: 340
    Number of basis function: 1166
    Number of Cartesian functions: 1454
    Spherical Harmonics?: true
    Max angular momentum: 4

  ==> CPHF Iterations <==

  => Iterations <=

             Iter  Converged  Remaining    Residual
  CGR           1          0          1   1.579E-01
  CGR           2          0          1   5.659E-02
  CGR           3          0          1   2.846E-02
  CGR           4          0          1   1.048E-02
  CGR           5          0          1   5.083E-03
  CGR           6          0          1   2.405E-03
  CGR           7          0          1   8.915E-04
  CGR           8          0          1   4.135E-04
  CGR           9          0          1   1.539E-04
  CGR          10          0          1   5.523E-05
  CGR          11          0          1   1.522E-05
  CGR          12          0          1   4.202E-06
  CGR          13          0          1   1.531E-06
  CGR          14          1          0   7.365E-07

    CGRSolver converged.

	-----------------------------------------------------------
	 ==================> DF-MP2 Energies <==================== 
	-----------------------------------------------------------
	 Reference Energy          =    -434.3199035424161139 [Eh]
	 Singles Energy            =      -0.0000000000000000 [Eh]
	 Same-Spin Energy          =      -0.4583141485235512 [Eh]
	 Opposite-Spin Energy      =      -1.3586818871434829 [Eh]
	 Correlation Energy        =      -1.8169960356670343 [Eh]
	 Total Energy              =    -436.1368995780831597 [Eh]
	-----------------------------------------------------------
	 ================> DF-SCS-MP2 Energies <================== 
	-----------------------------------------------------------
	 SCS Same-Spin Scale       =       0.3333333333333333 [-]
	 SCS Opposite-Spin Scale   =       1.2000000000000000 [-]
	 SCS Same-Spin Energy      =      -0.1527713828411837 [Eh]
	 SCS Opposite-Spin Energy  =      -1.6304182645721794 [Eh]
	 SCS Correlation Energy    =      -1.7831896474133631 [Eh]
	 SCS Total Energy          =    -436.1030931898294511 [Eh]
	-----------------------------------------------------------



Properties will be evaluated at   0.000000,  -0.000000,  -0.000000 [a0]

Properties computed using the MP2 density matrix

  Nuclear Dipole Moment: [e a0]
     X:    -7.8974      Y:     0.0402      Z:     0.0002

  Electronic Dipole Moment: [e a0]
     X:     6.0470      Y:    -0.0160      Z:    -0.0001

  Dipole Moment: [e a0]
     X:    -1.8504      Y:     0.0241      Z:     0.0000     Total:     1.8506

  Dipole Moment: [D]
     X:    -4.7032      Y:     0.0614      Z:     0.0001     Total:     4.7036


*** tstop() called on node142.bme.utexas.edu at Tue Nov 17 03:51:34 2020
Module time:
	user time   =     492.82 seconds =       8.21 minutes
	system time =      26.38 seconds =       0.44 minutes
	total time  =         86 seconds =       1.43 minutes
Total time:
	user time   =     676.89 seconds =      11.28 minutes
	system time =      49.80 seconds =       0.83 minutes
	total time  =        126 seconds =       2.10 minutes

    Psi4 stopped on: Tuesday, 17 November 2020 03:51AM
    Psi4 wall time for execution: 0:02:06.58

*** Psi4 exiting successfully. Buy a developer a beer!
