opt=Tight                                                               
Freq      RMP2-FC                                                     6-31G(d)            
Number of atoms                            I                9
Info1-9                                    I   N=           9
          18          18        1002           0           0         100
           6           2           1
Charge                                     I                0
Multiplicity                               I                1
Number of electrons                        I               40
Number of alpha electrons                  I               20
Number of beta electrons                   I               20
Number of basis functions                  I               83
Number of independent functions            I               83
Number of point charges in /Mol/           I                0
Number of translation vectors              I                0
Atomic numbers                             I   N=           9
           8           8           8           6           6           1
           1           1           1
Nuclear charges                            R   N=           9
  8.00000000E+00  8.00000000E+00  8.00000000E+00  6.00000000E+00  6.00000000E+00
  1.00000000E+00  1.00000000E+00  1.00000000E+00  1.00000000E+00
Current cartesian coordinates              R   N=          27
 -3.57400502E+00  1.01544434E-01 -9.00983626E-02  3.09416009E+00 -1.22736767E+00
 -4.58863300E-02  9.47331049E-01  2.48919451E+00  2.76542522E-02 -1.39401317E+00
 -1.42023879E+00  7.53169248E-02  9.68108588E-01  1.82617464E-01  4.23109681E-03
 -1.36229034E+00 -2.52444168E+00  1.83424755E+00 -1.33933962E+00 -2.76465044E+00
 -1.49849424E+00 -2.99219992E+00  1.84145497E+00  1.05900252E-01  4.50937788E+00
 -3.36125587E-02 -5.22962810E-02
Force Field                                I                0
Int Atom Types                             I   N=           9
           0           0           0           0           0           0
           0           0           0
MM charges                                 R   N=           9
  0.00000000E+00  0.00000000E+00  0.00000000E+00  0.00000000E+00  0.00000000E+00
  0.00000000E+00  0.00000000E+00  0.00000000E+00  0.00000000E+00
Integer atomic weights                     I   N=           9
          16          16          16          12          12           1
           1           1           1
Real atomic weights                        R   N=           9
  1.59949146E+01  1.59949146E+01  1.59949146E+01  1.20000000E+01  1.20000000E+01
  1.00782504E+00  1.00782504E+00  1.00782504E+00  1.00782504E+00
Atom fragment info                         I   N=           9
           0           0           0           0           0           0
           0           0           0
Atom residue num                           I   N=           9
           0           0           0           0           0           0
           0           0           0
Nuclear spins                              I   N=           9
           0           0           0           0           0           1
           1           1           1
Nuclear ZEff                               R   N=           9
 -5.60000000E+00 -5.60000000E+00 -5.60000000E+00 -3.60000000E+00 -3.60000000E+00
 -1.00000000E+00 -1.00000000E+00 -1.00000000E+00 -1.00000000E+00
Nuclear QMom                               R   N=           9
  0.00000000E+00  0.00000000E+00  0.00000000E+00  0.00000000E+00  0.00000000E+00
  0.00000000E+00  0.00000000E+00  0.00000000E+00  0.00000000E+00
Nuclear GFac                               R   N=           9
  0.00000000E+00  0.00000000E+00  0.00000000E+00  0.00000000E+00  0.00000000E+00
  2.79284600E+00  2.79284600E+00  2.79284600E+00  2.79284600E+00
MicOpt                                     I   N=           9
          -1          -1          -1          -1          -1          -1
          -1          -1          -1
Number of contracted shells                I               28
Number of primitive shells                 I               71
Pure/Cartesian d shells                    I                1
Pure/Cartesian f shells                    I                0
Highest angular momentum                   I                2
Largest degree of contraction              I                6
Shell types                                I   N=          28
           0          -1          -1           2           0          -1
          -1           2           0          -1          -1           2
           0          -1          -1           2           0          -1
          -1           2           0           0           0           0
           0           0           0           0
Number of primitives per shell             I   N=          28
           6           3           1           1           6           3
           1           1           6           3           1           1
           6           3           1           1           6           3
           1           1           3           1           3           1
           3           1           3           1
Shell to atom map                          I   N=          28
           1           1           1           1           2           2
           2           2           3           3           3           3
           4           4           4           4           5           5
           5           5           6           6           7           7
           8           8           9           9
Primitive exponents                        R   N=          71
  5.48467166E+03  8.25234946E+02  1.88046958E+02  5.29645000E+01  1.68975704E+01
  5.79963534E+00  1.55396162E+01  3.59993359E+00  1.01376175E+00  2.70005823E-01
  8.00000000E-01  5.48467166E+03  8.25234946E+02  1.88046958E+02  5.29645000E+01
  1.68975704E+01  5.79963534E+00  1.55396162E+01  3.59993359E+00  1.01376175E+00
  2.70005823E-01  8.00000000E-01  5.48467166E+03  8.25234946E+02  1.88046958E+02
  5.29645000E+01  1.68975704E+01  5.79963534E+00  1.55396162E+01  3.59993359E+00
  1.01376175E+00  2.70005823E-01  8.00000000E-01  3.04752488E+03  4.57369518E+02
  1.03948685E+02  2.92101553E+01  9.28666296E+00  3.16392696E+00  7.86827235E+00
  1.88128854E+00  5.44249258E-01  1.68714478E-01  8.00000000E-01  3.04752488E+03
  4.57369518E+02  1.03948685E+02  2.92101553E+01  9.28666296E+00  3.16392696E+00
  7.86827235E+00  1.88128854E+00  5.44249258E-01  1.68714478E-01  8.00000000E-01
  1.87311370E+01  2.82539436E+00  6.40121692E-01  1.61277759E-01  1.87311370E+01
  2.82539436E+00  6.40121692E-01  1.61277759E-01  1.87311370E+01  2.82539436E+00
  6.40121692E-01  1.61277759E-01  1.87311370E+01  2.82539436E+00  6.40121692E-01
  1.61277759E-01
Contraction coefficients                   R   N=          71
  1.83107443E-03  1.39501722E-02  6.84450781E-02  2.32714336E-01  4.70192898E-01
  3.58520853E-01 -1.10777550E-01 -1.48026263E-01  1.13076702E+00  1.00000000E+00
  1.00000000E+00  1.83107443E-03  1.39501722E-02  6.84450781E-02  2.32714336E-01
  4.70192898E-01  3.58520853E-01 -1.10777550E-01 -1.48026263E-01  1.13076702E+00
  1.00000000E+00  1.00000000E+00  1.83107443E-03  1.39501722E-02  6.84450781E-02
  2.32714336E-01  4.70192898E-01  3.58520853E-01 -1.10777550E-01 -1.48026263E-01
  1.13076702E+00  1.00000000E+00  1.00000000E+00  1.83473713E-03  1.40373228E-02
  6.88426223E-02  2.32184443E-01  4.67941348E-01  3.62311985E-01 -1.19332420E-01
 -1.60854152E-01  1.14345644E+00  1.00000000E+00  1.00000000E+00  1.83473713E-03
  1.40373228E-02  6.88426223E-02  2.32184443E-01  4.67941348E-01  3.62311985E-01
 -1.19332420E-01 -1.60854152E-01  1.14345644E+00  1.00000000E+00  1.00000000E+00
  3.34946043E-02  2.34726953E-01  8.13757326E-01  1.00000000E+00  3.34946043E-02
  2.34726953E-01  8.13757326E-01  1.00000000E+00  3.34946043E-02  2.34726953E-01
  8.13757326E-01  1.00000000E+00  3.34946043E-02  2.34726953E-01  8.13757326E-01
  1.00000000E+00
P(S=P) Contraction coefficients            R   N=          71
  0.00000000E+00  0.00000000E+00  0.00000000E+00  0.00000000E+00  0.00000000E+00
  0.00000000E+00  7.08742682E-02  3.39752839E-01  7.27158577E-01  1.00000000E+00
  0.00000000E+00  0.00000000E+00  0.00000000E+00  0.00000000E+00  0.00000000E+00
  0.00000000E+00  0.00000000E+00  7.08742682E-02  3.39752839E-01  7.27158577E-01
  1.00000000E+00  0.00000000E+00  0.00000000E+00  0.00000000E+00  0.00000000E+00
  0.00000000E+00  0.00000000E+00  0.00000000E+00  7.08742682E-02  3.39752839E-01
  7.27158577E-01  1.00000000E+00  0.00000000E+00  0.00000000E+00  0.00000000E+00
  0.00000000E+00  0.00000000E+00  0.00000000E+00  0.00000000E+00  6.89990666E-02
  3.16423961E-01  7.44308291E-01  1.00000000E+00  0.00000000E+00  0.00000000E+00
  0.00000000E+00  0.00000000E+00  0.00000000E+00  0.00000000E+00  0.00000000E+00
  6.89990666E-02  3.16423961E-01  7.44308291E-01  1.00000000E+00  0.00000000E+00
  0.00000000E+00  0.00000000E+00  0.00000000E+00  0.00000000E+00  0.00000000E+00
  0.00000000E+00  0.00000000E+00  0.00000000E+00  0.00000000E+00  0.00000000E+00
  0.00000000E+00  0.00000000E+00  0.00000000E+00  0.00000000E+00  0.00000000E+00
  0.00000000E+00
Coordinates of each shell                  R   N=          84
 -3.57400526E+00  1.01544543E-01 -9.00984098E-02 -3.57400526E+00  1.01544543E-01
 -9.00984098E-02 -3.57400526E+00  1.01544543E-01 -9.00984098E-02 -3.57400526E+00
  1.01544543E-01 -9.00984098E-02  3.09415988E+00 -1.22736742E+00 -4.58863772E-02
  3.09415988E+00 -1.22736742E+00 -4.58863772E-02  3.09415988E+00 -1.22736742E+00
 -4.58863772E-02  3.09415988E+00 -1.22736742E+00 -4.58863772E-02  9.47330757E-01
  2.48919472E+00  2.76542050E-02  9.47330757E-01  2.48919472E+00  2.76542050E-02
  9.47330757E-01  2.48919472E+00  2.76542050E-02  9.47330757E-01  2.48919472E+00
  2.76542050E-02 -1.39401338E+00 -1.42023864E+00  7.53168775E-02 -1.39401338E+00
 -1.42023864E+00  7.53168775E-02 -1.39401338E+00 -1.42023864E+00  7.53168775E-02
 -1.39401338E+00 -1.42023864E+00  7.53168775E-02  9.68108347E-01  1.82617675E-01
  4.23104957E-03  9.68108347E-01  1.82617675E-01  4.23104957E-03  9.68108347E-01
  1.82617675E-01  4.23104957E-03  9.68108347E-01  1.82617675E-01  4.23104957E-03
 -1.36229052E+00 -2.52444152E+00  1.83424751E+00 -1.36229052E+00 -2.52444152E+00
  1.83424751E+00 -1.33933979E+00 -2.76465028E+00 -1.49849429E+00 -1.33933979E+00
 -2.76465028E+00 -1.49849429E+00 -2.99220020E+00  1.84145509E+00  1.05900205E-01
 -2.99220020E+00  1.84145509E+00  1.05900205E-01  4.50937765E+00 -3.36122690E-02
 -5.22963282E-02  4.50937765E+00 -3.36122690E-02 -5.22963282E-02
Constraint Structure                       R   N=          27
 -3.57400526E+00  1.01544543E-01 -9.00984098E-02  3.09415988E+00 -1.22736742E+00
 -4.58863772E-02  9.47330757E-01  2.48919472E+00  2.76542050E-02 -1.39401338E+00
 -1.42023864E+00  7.53168775E-02  9.68108347E-01  1.82617675E-01  4.23104957E-03
 -1.36229052E+00 -2.52444152E+00  1.83424751E+00 -1.33933979E+00 -2.76465028E+00
 -1.49849429E+00 -2.99220020E+00  1.84145509E+00  1.05900205E-01  4.50937765E+00
 -3.36122690E-02 -5.22963282E-02
Num ILSW                                   I              100
ILSW                                       I   N=         100
           0           1           0           0           2           0
           0           0           0           0           0          -1
           0           0           0           0           0           0
           0           0           0           0           1           0
           1           0           0           0           0           0
           0           0      100000           0          -1           0
           0           0           0           0           0           0
           0           0           0           1           1           0
           0           0           1           0           0           0
           0           0           4          40           0           0
           0           0           0           0           0           0
           0           0           0           0           0           0
           0           0           0           0           0           0
           0           0           0           0           0           0
           0           0           0           0           0           0
           0           0           0           0           0           0
           0           0           0           0
Num RLSW                                   I               40
RLSW                                       R   N=          40
  1.00000000E+00  1.00000000E+00  1.00000000E+00  1.00000000E+00  1.00000000E+00
  0.00000000E+00  0.00000000E+00  1.00000000E+00  0.00000000E+00  0.00000000E+00
  0.00000000E+00  0.00000000E+00  1.00000000E+00  0.00000000E+00  0.00000000E+00
  0.00000000E+00  0.00000000E+00  1.00000000E+00  0.00000000E+00  0.00000000E+00
  0.00000000E+00  0.00000000E+00  1.00000000E+00  0.00000000E+00  0.00000000E+00
  0.00000000E+00  0.00000000E+00  1.00000000E+00  0.00000000E+00  0.00000000E+00
  0.00000000E+00  0.00000000E+00  0.00000000E+00  0.00000000E+00  0.00000000E+00
  0.00000000E+00  0.00000000E+00  0.00000000E+00  1.00000000E+00  1.00000000E+00
MxBond                                     I                4
NBond                                      I   N=           9
           2           2           1           4           3           1
           1           1           1
IBond                                      I   N=          36
           4           8           0           0           5           9
           0           0           5           0           0           0
           1           5           6           7           2           3
           4           0           4           0           0           0
           4           0           0           0           1           0
           0           0           2           0           0           0
RBond                                      R   N=          36
  1.00000000E+00  1.00000000E+00  0.00000000E+00  0.00000000E+00  1.50000000E+00
  1.00000000E+00  0.00000000E+00  0.00000000E+00  2.00000000E+00  0.00000000E+00
  0.00000000E+00  0.00000000E+00  1.00000000E+00  1.00000000E+00  1.00000000E+00
  1.00000000E+00  1.50000000E+00  2.00000000E+00  1.00000000E+00  0.00000000E+00
  1.00000000E+00  0.00000000E+00  0.00000000E+00  0.00000000E+00  1.00000000E+00
  0.00000000E+00  0.00000000E+00  0.00000000E+00  1.00000000E+00  0.00000000E+00
  0.00000000E+00  0.00000000E+00  1.00000000E+00  0.00000000E+00  0.00000000E+00
  0.00000000E+00
Virial Ratio                               R      2.003274516447039E+00
SCF Energy                                 R     -3.026519025561189E+02
MP2 Energy                                 R     -3.034403130364217E+02
Total Energy                               R     -3.034403130364217E+02
Post-SCF wavefunction norm                 R      1.567767683154183E+00
RMS Force                                  R      3.550333641777708E-07
RMS Density                                R      1.872636406667012E-09
External E-field                           R   N=          35
  0.00000000E+00  0.00000000E+00  0.00000000E+00  0.00000000E+00  0.00000000E+00
  0.00000000E+00  0.00000000E+00  0.00000000E+00  0.00000000E+00  0.00000000E+00
  0.00000000E+00  0.00000000E+00  0.00000000E+00  0.00000000E+00  0.00000000E+00
  0.00000000E+00  0.00000000E+00  0.00000000E+00  0.00000000E+00  0.00000000E+00
  0.00000000E+00  0.00000000E+00  0.00000000E+00  0.00000000E+00  0.00000000E+00
  0.00000000E+00  0.00000000E+00  0.00000000E+00  0.00000000E+00  0.00000000E+00
  0.00000000E+00  0.00000000E+00  0.00000000E+00  0.00000000E+00  0.00000000E+00
IOpCl                                      I                0
IROHF                                      I                0
Alpha Orbital Energies                     R   N=          83
 -2.06437578E+01 -2.05831664E+01 -2.05711110E+01 -1.14131116E+01 -1.13081987E+01
 -1.48308093E+00 -1.38738191E+00 -1.36036424E+00 -1.00707101E+00 -8.32324752E-01
 -7.38687794E-01 -7.23449424E-01 -6.82312481E-01 -6.42745469E-01 -6.09986653E-01
 -6.07269081E-01 -5.37613619E-01 -5.00327460E-01 -4.75865318E-01 -4.59625531E-01
  1.61514828E-01  2.07926101E-01  2.48407240E-01  2.69553508E-01  3.25588038E-01
  3.80176594E-01  4.24155546E-01  4.70832823E-01  5.42720223E-01  7.36010426E-01
  7.54853511E-01  7.78305199E-01  8.27084573E-01  8.94537402E-01  9.06476645E-01
  9.58421119E-01  1.02503369E+00  1.06766617E+00  1.07814994E+00  1.10583526E+00
  1.15774912E+00  1.19489903E+00  1.19635171E+00  1.20619695E+00  1.24104244E+00
  1.28640637E+00  1.34463560E+00  1.38445114E+00  1.48576558E+00  1.54259124E+00
  1.59552825E+00  1.64127867E+00  1.70559266E+00  1.77666480E+00  1.85754675E+00
  1.96070178E+00  2.01038557E+00  2.02133972E+00  2.05078327E+00  2.08208791E+00
  2.10197147E+00  2.19310813E+00  2.19532727E+00  2.31359072E+00  2.37660860E+00
  2.44720978E+00  2.47099613E+00  2.67151233E+00  2.69048127E+00  2.73500468E+00
  2.77517261E+00  2.79528060E+00  2.96776263E+00  3.04016660E+00  3.09430204E+00
  3.23319330E+00  3.34000303E+00  3.44045005E+00  4.13168875E+00  4.29141748E+00
  4.46873062E+00  4.58167761E+00  4.87507502E+00
Alpha MO coefficients                      R   N=        6889
  2.57504894E-05  5.59450807E-05  6.75946880E-06 -9.92420151E-06  4.55103964E-07
 -3.23214698E-04 -1.09913665E-04  8.16726192E-05 -4.69393067E-06  1.71664964E-05
  4.11676079E-05  3.42081233E-05  6.54923664E-06 -5.67708956E-07 -7.73346224E-07
  9.94634640E-01  2.11825829E-02 -1.18615487E-04  1.28417573E-03  2.01573085E-05
  4.08821579E-03 -1.04141873E-04 -6.36760315E-04 -8.33388500E-06 -4.15149660E-03
 -4.08867131E-03 -3.95623072E-03 -2.27788513E-05  3.16737482E-06 -1.85719472E-06
 -2.72438864E-04  4.33961835E-05 -2.87804864E-05  2.66955512E-05  1.49199179E-06
 -3.86244538E-04 -8.95313841E-05  9.50798129E-05 -7.36696101E-07  1.97187693E-05
 -4.34404851E-06  1.81099487E-06  7.46579261E-05  4.49165462E-07 -8.65073865E-07
 -3.27350228E-06  1.43970587E-05 -8.40723451E-07  3.82419811E-06  1.98686285E-06
  5.26833860E-04 -9.48137835E-05  2.03710967E-04 -3.46192965E-05 -5.49595109E-05
  1.41204866E-05 -2.56081120E-05 -1.77441350E-05  4.84047832E-06 -3.65471967E-06
  4.69132413E-07  4.16849976E-04  2.56752670E-04 -1.75878320E-04 -6.37630484E-06
 -1.86748259E-04  2.41461299E-04  5.19958997E-04  9.88801888E-06 -9.20111457E-05
 -3.07762228E-05 -5.20915838E-05  6.45804208E-05  6.54939220E-07 -1.65339805E-06
  1.93111242E-05 -3.07324929E-05  2.13086488E-05 -6.36063967E-05  4.60580300E-06
 -4.91525447E-05  4.30468285E-04 -2.60243066E-04 -2.71298494E-04 -5.51767121E-06
  3.39512986E-06 -1.37034101E-05 -2.27816638E-06  2.60828577E-05 -4.51419434E-05
  1.26066966E-04  5.43781542E-06 -2.15042323E-05 -6.01668845E-06  4.45892765E-06
  1.55022371E-05 -1.18070682E-06  5.90550696E-06  2.72015972E-04 -5.66657392E-05
  7.78820549E-06 -3.53112713E-05 -1.34534821E-07  2.48029934E-04 -9.79911487E-05
  7.52952766E-05  4.53361670E-07  6.79031270E-05 -1.08331723E-04 -7.91710008E-05
  1.05929455E-05 -2.53726875E-06 -8.92143407E-07  9.94690988E-01  2.09833393E-02
  1.56163761E-05 -1.56960574E-03 -1.28113079E-05  4.47566164E-03  5.37505321E-06
  4.48685495E-05 -2.44893922E-06 -3.91643636E-03 -3.60353704E-03 -4.12970667E-03
  2.63787892E-06 -5.12045294E-06  5.57849763E-06  6.77524696E-07  1.01465610E-06
 -8.81995899E-06 -1.90916700E-05 -1.96540372E-06 -6.66480483E-05 -1.69189006E-04
 -2.73999511E-05 -4.12959759E-06  6.36241961E-05 -5.38694147E-05 -1.37996195E-05
 -3.70224626E-05 -1.51653995E-07 -3.40608623E-07 -4.06661431E-06  4.89804556E-04
 -1.34125825E-06 -4.72731703E-05 -1.80692941E-06 -3.77531691E-04 -2.03185905E-04
 -4.38716994E-04  7.34862728E-06 -6.54001423E-05 -8.11755543E-04 -3.51485683E-05
  4.40435379E-05  6.84747299E-07 -1.00424478E-05  1.05835192E-05 -3.54361356E-05
  9.55675989E-06 -3.99225734E-05 -2.07173349E-05 -1.79288809E-04 -1.84179108E-05
 -8.51037008E-07  9.94653073E-01  2.11698631E-02  1.26322368E-03  3.51955253E-04
  1.94953654E-04  4.01592662E-03 -6.20938738E-04 -1.89748717E-04 -8.66265305E-05
 -4.12289416E-03 -4.14589470E-03 -3.84629007E-03  8.27465677E-05 -3.39066702E-05
 -1.38146052E-05 -3.48705166E-05 -9.27815431E-05  3.17628151E-06 -2.89642191E-06
 -6.94478585E-07  5.85639333E-04 -1.79396874E-04  8.11130593E-05  9.53394339E-06
 -3.28722561E-05 -5.93364304E-05 -5.95940248E-05 -2.31116123E-05 -8.88042426E-07
  2.21838539E-06  2.82835818E-04  6.56013499E-05  1.24163178E-05 -3.56908192E-06
 -1.71000685E-06 -4.33570255E-04  3.04892106E-06  1.12214466E-04  1.14554422E-05
  2.99374982E-05  2.25945936E-05  2.78274432E-05 -1.29883509E-05 -4.15917454E-08
 -1.92987596E-06 -2.45680334E-05  2.52661539E-04 -3.17092104E-04  2.09686060E-04
 -2.83779779E-05  3.67284637E-04  5.18119802E-04  6.81149515E-05  5.80513944E-05
  4.40325720E-06 -2.76473445E-05 -7.80887313E-05 -2.01263492E-05 -2.07103557E-07
 -6.63513489E-06  2.07089658E-06  6.23688523E-05  4.05497168E-05  1.71600778E-05
  1.26131346E-06 -4.38595660E-04 -1.37925112E-04  6.38994903E-04 -2.21488684E-05
 -9.14000984E-05 -8.12980772E-06 -1.22883322E-05  5.61554650E-06  3.54783541E-06
  5.64090378E-07 -3.49137920E-05 -6.42455733E-05 -1.93325497E-05 -2.87835115E-05
  4.10635646E-04 -3.07964257E-04 -1.55317437E-05 -3.49136603E-06 -1.09579778E-05
 -9.59404861E-05 -4.14507772E-05  3.08560481E-05  2.78484666E-06  5.31336404E-05
  4.31023390E-05 -2.75633413E-04  2.25206294E-06  5.09176122E-05 -1.59062953E-05
 -1.14226221E-04 -5.93737518E-06  3.88954445E-06 -2.07766397E-05 -8.94014555E-05
  6.65362793E-04 -5.53895059E-05  1.62971404E-04  1.44951276E-06 -1.74186833E-03
  7.82456744E-04 -1.68740768E-03 -2.03904293E-05 -3.83080109E-04 -1.29090024E-04
  5.35870363E-04  4.98337731E-04  2.18093068E-05 -1.29330144E-05 -2.70795003E-04
  6.54251152E-04  5.20632663E-05 -2.92536604E-04 -4.87285772E-06 -3.21811798E-03
 -7.53396974E-04  1.72950436E-03  4.66890841E-05  1.91203672E-04  4.66050182E-05
  4.22019051E-04  1.74944575E-04  9.38623317E-06 -1.17716671E-05  2.88833521E-03
  2.88715241E-05 -1.70479256E-05 -7.68867950E-05  1.31517284E-05  4.38691893E-03
  2.12623830E-03  1.26048586E-03 -1.09787160E-04 -4.44631789E-04 -2.91012292E-04
 -1.47831611E-04 -1.11768324E-04  2.15764633E-06  1.07134375E-05  9.95877468E-01
  2.60131031E-02  1.01550646E-03 -1.60326776E-05 -6.32715096E-06 -6.17545007E-03
  3.32151381E-03  3.20442106E-03 -8.12475880E-05 -1.15270579E-03 -5.47897558E-04
 -2.34239999E-03 -2.70970278E-04 -3.09925611E-05  2.02160183E-05 -1.79848302E-04
  3.10461564E-04 -1.81239918E-04  2.46188442E-04  3.66546602E-05  2.91174908E-04
  3.23079589E-04  3.36558104E-05 -1.71105655E-04  4.31733038E-05  1.24998579E-04
 -4.56622222E-05  9.20244057E-06  1.90747890E-03  8.02845568E-06 -3.27808559E-05
  1.99835126E-07 -5.56503092E-04 -3.36372020E-04  2.83334224E-05  3.93412866E-04
 -4.41599333E-05  3.08814927E-05 -5.27535266E-05 -3.38959582E-04  1.09630666E-04
  5.29268725E-06 -5.20047084E-06  1.24529856E-03 -6.20736874E-04  2.57674795E-04
  3.00687448E-05 -2.38447817E-05 -1.07366898E-04 -2.81074769E-04 -4.84614417E-05
 -1.30110767E-05 -2.58466048E-07 -2.28760874E-05 -1.64936082E-04  1.90238155E-05
  2.23181446E-05 -4.46823987E-06  3.35777716E-04  3.86985908E-04 -2.11193614E-04
  5.69931966E-06 -4.52351854E-05  5.46490646E-05 -1.99111216E-04 -4.49616751E-05
 -8.26573292E-06  8.42668112E-07  9.95850460E-01  2.78891974E-02 -1.67959241E-04
  6.16294458E-04 -3.13711635E-05 -1.51985239E-02 -1.49905299E-03 -7.15627126E-04
  5.95873715E-06 -1.47703271E-03 -1.58056074E-03 -1.57999508E-03 -1.38316567E-04
  1.84737893E-05  2.62046681E-06 -3.26194137E-03 -5.03947165E-05 -5.95013646E-05
 -5.22478947E-05  4.00422969E-06  3.87849883E-03 -2.86308357E-03 -9.40670117E-04
  4.21406205E-05 -5.38030907E-04 -4.11080087E-04 -1.80422404E-04 -1.27460747E-04
  1.11168808E-05  5.13068827E-06  2.05424621E-04  2.60303304E-03  2.09630121E-04
  2.58431470E-03  8.85715190E-06  1.44904231E-04  1.62855684E-05  3.36832833E-04
 -1.89118641E-02  4.36624803E-02  1.33907919E-02  1.53360302E-03  1.22901699E-03
  3.47724877E-02  4.82967941E-03  7.19089290E-04  7.12550911E-04  2.68831552E-03
  2.55004301E-03  5.29380834E-04  5.91164194E-05  3.22989479E-04  1.77136182E-04
 -1.59529605E-01  3.59364898E-01 -3.33851289E-02  8.14047187E-02  1.63784826E-03
  3.34901263E-01 -1.64123802E-02  4.95855936E-02  9.20778884E-04  1.68458420E-02
  1.45008959E-02 -1.53826493E-03 -5.19720836E-04 -3.43860413E-04  2.48482045E-04
 -1.03214651E-01  2.27046000E-01  8.50357587E-03 -8.44230076E-02 -8.36313983E-04
  2.02087537E-01  8.53048117E-03 -3.40993162E-02 -3.37854327E-04 -1.40610401E-03
  1.16538195E-02 -1.20881465E-03 -2.66545308E-03 -5.55627761E-05  1.63508374E-04
 -2.13432838E-02  4.11047044E-02  1.62758283E-02  1.87147287E-02 -1.09470170E-03
  6.12691282E-03  2.78580262E-04 -1.55607738E-03  2.10309757E-04  6.43304517E-03
  2.53323361E-03 -6.99776067E-04  2.99978949E-03 -3.55959333E-05 -2.18665652E-04
 -1.13618086E-01  2.19424616E-01  7.55764406E-02  3.50244250E-02 -6.86327359E-04
  4.75155369E-02 -2.27690796E-02 -9.64880524E-03  5.15351383E-04  4.32844281E-03
  1.54579853E-02 -1.85276568E-02 -1.41642534E-02 -6.32608742E-04  6.06721406E-04
  7.22911060E-03  6.57218321E-04  7.36294841E-03  7.25315007E-04  1.28329639E-02
 -1.27452191E-03  8.37632363E-02 -4.43201583E-03 -1.06720943E-01  2.39721048E-01
  5.02665126E-02  1.11781579E-02  6.47117331E-03  2.21526788E-01  3.02202544E-02
  1.09427264E-02  3.44833591E-03  9.41034471E-03  1.14281751E-02 -1.13003862E-03
  1.65105119E-03  1.40577300E-03  1.23237242E-03  1.19214042E-01 -2.66688801E-01
 -2.64931043E-04 -3.81966222E-02 -5.40415933E-04 -2.76025549E-01  3.53813763E-03
 -2.10423449E-02 -5.07766137E-04 -1.00424649E-02 -5.22282816E-03  1.56649566E-03
 -6.07884084E-03  1.52895404E-04 -1.37973473E-05 -1.31253746E-01  2.83944591E-01
 -1.37457392E-02 -8.15752000E-02 -4.81918371E-04  2.85266929E-01 -1.05265257E-02
 -3.63763637E-02  8.45498991E-07 -1.45635106E-03  9.12883412E-03 -4.05308759E-03
  2.57187350E-03 -7.90153151E-05  9.78741307E-05 -4.19126806E-02  7.83063911E-02
 -3.86181873E-02  4.42727691E-02 -3.01004212E-03  2.37033713E-02 -1.11685666E-02
  4.38255739E-03  1.35210079E-03  5.85424440E-03  5.82119103E-03 -3.56387527E-03
 -7.55053118E-03  9.86997629E-04 -7.46302249E-04 -3.88396814E-02  7.58305042E-02
 -8.44690058E-02  1.61253541E-01  2.99797572E-03  3.14715754E-02  1.92558288E-03
 -2.65530975E-02 -1.22493505E-04 -1.93993080E-02  2.14424569E-02 -5.87494882E-03
  1.42337446E-02  3.44929548E-04  1.05813110E-04  1.28631865E-02 -1.38512675E-03
  1.27485758E-02 -2.07567468E-04  6.37207819E-02 -3.14739572E-03 -6.67172672E-02
  5.10640266E-03 -1.69140578E-01  3.78382445E-01  6.89766614E-02  1.40264040E-02
  9.78158478E-03  3.72756302E-01  4.28111920E-02  1.12235626E-02  6.65111346E-03
  1.11367413E-02  1.76643189E-02 -1.98849606E-03  1.08625137E-03  2.11228661E-03
  1.88836616E-03 -5.21682785E-02  1.18651293E-01  1.60258187E-04  9.04093379E-03
  1.64528350E-04  1.17430775E-01  2.65497103E-03  4.59844740E-03 -3.04929838E-05
  4.64893164E-03  1.63459886E-03  2.61854365E-04  3.88036970E-03 -2.13795396E-05
 -3.27194058E-05  1.08419393E-01 -2.37623346E-01 -3.73874446E-03  6.56194957E-02
  4.67246877E-04 -2.34874651E-01 -3.13510587E-03  3.17174848E-02  1.70580997E-04
  2.46064598E-03 -9.50363473E-03  2.08720293E-03  5.01562261E-04  4.16140629E-05
 -9.52046833E-05 -6.04675753E-02  1.13087252E-01 -6.79884723E-02  4.60227645E-02
 -4.97276060E-03  4.38076703E-02  5.41673864E-03 -7.63610243E-03  4.53491449E-04
  1.01067542E-02  3.65107910E-03 -4.11326835E-03 -1.66915138E-02  1.40592676E-03
 -8.39545449E-04  2.89407128E-02 -5.64371685E-02  5.94335844E-03 -1.34857702E-01
 -1.63798978E-03 -6.21535802E-04 -5.27125899E-03  1.35077294E-02  1.93891432E-04
  1.87869366E-02 -1.61757769E-02  4.88938484E-03 -3.05424402E-03 -3.24187092E-04
 -2.22725216E-04  2.09984607E-02  1.29533773E-03  2.14177265E-02  2.06988870E-03
  9.30271090E-02 -1.11860962E-02  2.76349794E-02 -2.85421859E-03  6.34163355E-02
 -1.41944101E-01  6.34203507E-02 -9.36423513E-02 -9.32163826E-04 -1.88943200E-01
  2.46606501E-02 -4.73541914E-02 -1.26513295E-03  9.48928931E-03 -9.70041681E-03
 -2.87951211E-04 -1.03741827E-02  5.06149677E-04 -2.09057836E-03  3.23523172E-02
 -7.31485871E-02 -1.48414965E-01 -3.19487963E-02  3.14932586E-03 -9.99704276E-02
 -7.21210304E-02 -1.62479129E-02  1.18834858E-03  1.50926295E-03 -6.12905142E-03
  9.32877301E-04 -1.38472193E-02 -2.30186717E-04  1.81421697E-04  4.10112890E-02
 -9.05150774E-02 -3.09260852E-02 -2.94428050E-02  1.26725468E-03 -1.14659534E-01
 -9.78860862E-03 -1.30589516E-02  3.77837072E-04 -1.76086983E-03  1.99620839E-03
  1.35413353E-03  3.07381645E-03  8.12207841E-05 -1.55271931E-04 -1.48406118E-01
  2.91794555E-01  1.15266969E-01 -1.29192051E-02  1.62019050E-03  2.63157478E-01
  3.59836897E-02 -1.16540281E-02  2.45488543E-03  2.78339972E-03  3.39773097E-03
  9.15445276E-03  1.26522434E-02 -5.15951995E-04  7.23931071E-04 -8.62351036E-02
  1.89028465E-01 -1.22628370E-01 -1.50276246E-01  3.86004924E-03  1.18187441E-01
 -3.06358306E-02 -2.92834566E-02  1.22561387E-03  8.81269103E-03  1.97917447E-03
 -6.67960869E-03  1.00808792E-02 -6.97544103E-04 -3.19418648E-04  1.03878714E-01
  1.82519003E-02  1.04454503E-01  1.87631576E-02 -6.81412967E-02 -1.47781697E-02
 -8.14851303E-02 -1.60047178E-02  2.30440936E-02 -5.28168460E-02  6.08066109E-02
 -1.80199700E-01  6.20999493E-04 -7.65933921E-02  3.74658509E-02 -1.05469948E-01
 -6.01481107E-04  8.31796586E-03 -1.00502663E-02 -3.46189349E-04 -1.58789996E-02
  5.02051343E-04 -2.96170997E-03 -2.44457835E-02  6.27007952E-02  3.65147402E-01
 -2.55704736E-02 -5.21586513E-03  6.53557704E-02  2.21090725E-01 -1.39984551E-02
 -3.03083519E-03  3.01711822E-03  6.39092636E-03  2.89922978E-03  3.35608534E-02
  4.39139451E-04 -3.78333513E-04 -4.08922991E-02  9.30897775E-02 -1.83558285E-02