072_Aniline Gaussian SP Calculation on g2-node38.bme.utexas.edu         
Freq      RMP2-FC                                                     6-31G(d)            
Number of atoms                            I               14
Info1-9                                    I   N=           9
          25          24        1002           0           0         100
           6           2           1
Charge                                     I                0
Multiplicity                               I                1
Number of electrons                        I               50
Number of alpha electrons                  I               25
Number of beta electrons                   I               25
Number of basis functions                  I              119
Number of independent functions            I              119
Number of point charges in /Mol/           I                0
Number of translation vectors              I                0
Atomic numbers                             I   N=          14
           7           6           6           6           6           6
           6           1           1           1           1           1
           1           1
Nuclear charges                            R   N=          14
  7.00000000E+00  6.00000000E+00  6.00000000E+00  6.00000000E+00  6.00000000E+00
  6.00000000E+00  6.00000000E+00  1.00000000E+00  1.00000000E+00  1.00000000E+00
  1.00000000E+00  1.00000000E+00  1.00000000E+00  1.00000000E+00
Current cartesian coordinates              R   N=          42
 -4.42143518E+00 -3.20737199E-06 -1.66092531E-01 -1.76799833E+00 -3.48468788E-07
 -2.97386275E-03 -4.19919518E-01 -2.28135323E+00 -1.80128550E-02  2.21442100E+00
 -2.27497890E+00  1.00937355E-02  3.55102971E+00  7.76779464E-07  1.44917746E-02
  2.21441855E+00  2.27498021E+00  1.00949394E-02 -4.19921630E-01  2.28135315E+00
 -1.80128472E-02 -5.22156732E+00 -1.56877668E+00  5.94804973E-01 -5.22157168E+00
  1.56878712E+00  5.94765774E-01 -1.44687096E+00 -4.06453249E+00 -3.05786866E-02
  3.22521995E+00 -4.06465725E+00  1.13412763E-02  5.60431714E+00  2.42975851E-06
  3.74579504E-02  3.22521686E+00  4.06465881E+00  1.13374018E-02 -1.44687643E+00
  4.06453055E+00 -3.05662781E-02
Force Field                                I                0
Int Atom Types                             I   N=          14
           0           0           0           0           0           0
           0           0           0           0           0           0
           0           0
MM charges                                 R   N=          14
  0.00000000E+00  0.00000000E+00  0.00000000E+00  0.00000000E+00  0.00000000E+00
  0.00000000E+00  0.00000000E+00  0.00000000E+00  0.00000000E+00  0.00000000E+00
  0.00000000E+00  0.00000000E+00  0.00000000E+00  0.00000000E+00
Integer atomic weights                     I   N=          14
          14          12          12          12          12          12
          12           1           1           1           1           1
           1           1
Real atomic weights                        R   N=          14
  1.40030740E+01  1.20000000E+01  1.20000000E+01  1.20000000E+01  1.20000000E+01
  1.20000000E+01  1.20000000E+01  1.00782504E+00  1.00782504E+00  1.00782504E+00
  1.00782504E+00  1.00782504E+00  1.00782504E+00  1.00782504E+00
Atom fragment info                         I   N=          14
           0           0           0           0           0           0
           0           0           0           0           0           0
           0           0
Atom residue num                           I   N=          14
           0           0           0           0           0           0
           0           0           0           0           0           0
           0           0
Nuclear spins                              I   N=          14
           2           0           0           0           0           0
           0           1           1           1           1           1
           1           1
Nuclear ZEff                               R   N=          14
 -4.55000000E+00 -3.60000000E+00 -3.60000000E+00 -3.60000000E+00 -3.60000000E+00
 -3.60000000E+00 -3.60000000E+00 -1.00000000E+00 -1.00000000E+00 -1.00000000E+00
 -1.00000000E+00 -1.00000000E+00 -1.00000000E+00 -1.00000000E+00
Nuclear QMom                               R   N=          14
  2.04400000E+00  0.00000000E+00  0.00000000E+00  0.00000000E+00  0.00000000E+00
  0.00000000E+00  0.00000000E+00  0.00000000E+00  0.00000000E+00  0.00000000E+00
  0.00000000E+00  0.00000000E+00  0.00000000E+00  0.00000000E+00
Nuclear GFac                               R   N=          14
  4.03761000E-01  0.00000000E+00  0.00000000E+00  0.00000000E+00  0.00000000E+00
  0.00000000E+00  0.00000000E+00  2.79284600E+00  2.79284600E+00  2.79284600E+00
  2.79284600E+00  2.79284600E+00  2.79284600E+00  2.79284600E+00
MicOpt                                     I   N=          14
          -1          -1          -1          -1          -1          -1
          -1          -1          -1          -1          -1          -1
          -1          -1
Number of contracted shells                I               42
Number of primitive shells                 I              105
Pure/Cartesian d shells                    I                1
Pure/Cartesian f shells                    I                0
Highest angular momentum                   I                2
Largest degree of contraction              I                6
Shell types                                I   N=          42
           0          -1          -1           2           0          -1
          -1           2           0          -1          -1           2
           0          -1          -1           2           0          -1
          -1           2           0          -1          -1           2
           0          -1          -1           2           0           0
           0           0           0           0           0           0
           0           0           0           0           0           0
Number of primitives per shell             I   N=          42
           6           3           1           1           6           3
           1           1           6           3           1           1
           6           3           1           1           6           3
           1           1           6           3           1           1
           6           3           1           1           3           1
           3           1           3           1           3           1
           3           1           3           1           3           1
Shell to atom map                          I   N=          42
           1           1           1           1           2           2
           2           2           3           3           3           3
           4           4           4           4           5           5
           5           5           6           6           6           6
           7           7           7           7           8           8
           9           9          10          10          11          11
          12          12          13          13          14          14
Primitive exponents                        R   N=         105
  4.17351146E+03  6.27457911E+02  1.42902093E+02  4.02343293E+01  1.28202129E+01
  4.39043701E+00  1.16263619E+01  2.71627981E+00  7.72218397E-01  2.12031498E-01
  8.00000000E-01  3.04752488E+03  4.57369518E+02  1.03948685E+02  2.92101553E+01
  9.28666296E+00  3.16392696E+00  7.86827235E+00  1.88128854E+00  5.44249258E-01
  1.68714478E-01  8.00000000E-01  3.04752488E+03  4.57369518E+02  1.03948685E+02
  2.92101553E+01  9.28666296E+00  3.16392696E+00  7.86827235E+00  1.88128854E+00
  5.44249258E-01  1.68714478E-01  8.00000000E-01  3.04752488E+03  4.57369518E+02
  1.03948685E+02  2.92101553E+01  9.28666296E+00  3.16392696E+00  7.86827235E+00
  1.88128854E+00  5.44249258E-01  1.68714478E-01  8.00000000E-01  3.04752488E+03
  4.57369518E+02  1.03948685E+02  2.92101553E+01  9.28666296E+00  3.16392696E+00
  7.86827235E+00  1.88128854E+00  5.44249258E-01  1.68714478E-01  8.00000000E-01
  3.04752488E+03  4.57369518E+02  1.03948685E+02  2.92101553E+01  9.28666296E+00
  3.16392696E+00  7.86827235E+00  1.88128854E+00  5.44249258E-01  1.68714478E-01
  8.00000000E-01  3.04752488E+03  4.57369518E+02  1.03948685E+02  2.92101553E+01
  9.28666296E+00  3.16392696E+00  7.86827235E+00  1.88128854E+00  5.44249258E-01
  1.68714478E-01  8.00000000E-01  1.87311370E+01  2.82539436E+00  6.40121692E-01
  1.61277759E-01  1.87311370E+01  2.82539436E+00  6.40121692E-01  1.61277759E-01
  1.87311370E+01  2.82539436E+00  6.40121692E-01  1.61277759E-01  1.87311370E+01
  2.82539436E+00  6.40121692E-01  1.61277759E-01  1.87311370E+01  2.82539436E+00
  6.40121692E-01  1.61277759E-01  1.87311370E+01  2.82539436E+00  6.40121692E-01
  1.61277759E-01  1.87311370E+01  2.82539436E+00  6.40121692E-01  1.61277759E-01
Contraction coefficients                   R   N=         105
  1.83477216E-03  1.39946270E-02  6.85865518E-02  2.32240873E-01  4.69069948E-01
  3.60455199E-01 -1.14961182E-01 -1.69117479E-01  1.14585195E+00  1.00000000E+00
  1.00000000E+00  1.83473713E-03  1.40373228E-02  6.88426223E-02  2.32184443E-01
  4.67941348E-01  3.62311985E-01 -1.19332420E-01 -1.60854152E-01  1.14345644E+00
  1.00000000E+00  1.00000000E+00  1.83473713E-03  1.40373228E-02  6.88426223E-02
  2.32184443E-01  4.67941348E-01  3.62311985E-01 -1.19332420E-01 -1.60854152E-01
  1.14345644E+00  1.00000000E+00  1.00000000E+00  1.83473713E-03  1.40373228E-02
  6.88426223E-02  2.32184443E-01  4.67941348E-01  3.62311985E-01 -1.19332420E-01
 -1.60854152E-01  1.14345644E+00  1.00000000E+00  1.00000000E+00  1.83473713E-03
  1.40373228E-02  6.88426223E-02  2.32184443E-01  4.67941348E-01  3.62311985E-01
 -1.19332420E-01 -1.60854152E-01  1.14345644E+00  1.00000000E+00  1.00000000E+00
  1.83473713E-03  1.40373228E-02  6.88426223E-02  2.32184443E-01  4.67941348E-01
  3.62311985E-01 -1.19332420E-01 -1.60854152E-01  1.14345644E+00  1.00000000E+00
  1.00000000E+00  1.83473713E-03  1.40373228E-02  6.88426223E-02  2.32184443E-01
  4.67941348E-01  3.62311985E-01 -1.19332420E-01 -1.60854152E-01  1.14345644E+00
  1.00000000E+00  1.00000000E+00  3.34946043E-02  2.34726953E-01  8.13757326E-01
  1.00000000E+00  3.34946043E-02  2.34726953E-01  8.13757326E-01  1.00000000E+00
  3.34946043E-02  2.34726953E-01  8.13757326E-01  1.00000000E+00  3.34946043E-02
  2.34726953E-01  8.13757326E-01  1.00000000E+00  3.34946043E-02  2.34726953E-01
  8.13757326E-01  1.00000000E+00  3.34946043E-02  2.34726953E-01  8.13757326E-01
  1.00000000E+00  3.34946043E-02  2.34726953E-01  8.13757326E-01  1.00000000E+00
P(S=P) Contraction coefficients            R   N=         105
  0.00000000E+00  0.00000000E+00  0.00000000E+00  0.00000000E+00  0.00000000E+00
  0.00000000E+00  6.75797439E-02  3.23907296E-01  7.40895140E-01  1.00000000E+00
  0.00000000E+00  0.00000000E+00  0.00000000E+00  0.00000000E+00  0.00000000E+00
  0.00000000E+00  0.00000000E+00  6.89990666E-02  3.16423961E-01  7.44308291E-01
  1.00000000E+00  0.00000000E+00  0.00000000E+00  0.00000000E+00  0.00000000E+00
  0.00000000E+00  0.00000000E+00  0.00000000E+00  6.89990666E-02  3.16423961E-01
  7.44308291E-01  1.00000000E+00  0.00000000E+00  0.00000000E+00  0.00000000E+00
  0.00000000E+00  0.00000000E+00  0.00000000E+00  0.00000000E+00  6.89990666E-02
  3.16423961E-01  7.44308291E-01  1.00000000E+00  0.00000000E+00  0.00000000E+00
  0.00000000E+00  0.00000000E+00  0.00000000E+00  0.00000000E+00  0.00000000E+00
  6.89990666E-02  3.16423961E-01  7.44308291E-01  1.00000000E+00  0.00000000E+00
  0.00000000E+00  0.00000000E+00  0.00000000E+00  0.00000000E+00  0.00000000E+00
  0.00000000E+00  6.89990666E-02  3.16423961E-01  7.44308291E-01  1.00000000E+00
  0.00000000E+00  0.00000000E+00  0.00000000E+00  0.00000000E+00  0.00000000E+00
  0.00000000E+00  0.00000000E+00  6.89990666E-02  3.16423961E-01  7.44308291E-01
  1.00000000E+00  0.00000000E+00  0.00000000E+00  0.00000000E+00  0.00000000E+00
  0.00000000E+00  0.00000000E+00  0.00000000E+00  0.00000000E+00  0.00000000E+00
  0.00000000E+00  0.00000000E+00  0.00000000E+00  0.00000000E+00  0.00000000E+00
  0.00000000E+00  0.00000000E+00  0.00000000E+00  0.00000000E+00  0.00000000E+00
  0.00000000E+00  0.00000000E+00  0.00000000E+00  0.00000000E+00  0.00000000E+00
  0.00000000E+00  0.00000000E+00  0.00000000E+00  0.00000000E+00  0.00000000E+00
Coordinates of each shell                  R   N=         126
 -4.42143518E+00 -3.20737199E-06 -1.66092531E-01 -4.42143518E+00 -3.20737199E-06
 -1.66092531E-01 -4.42143518E+00 -3.20737199E-06 -1.66092531E-01 -4.42143518E+00
 -3.20737199E-06 -1.66092531E-01 -1.76799833E+00 -3.48468788E-07 -2.97386275E-03
 -1.76799833E+00 -3.48468788E-07 -2.97386275E-03 -1.76799833E+00 -3.48468788E-07
 -2.97386275E-03 -1.76799833E+00 -3.48468788E-07 -2.97386275E-03 -4.19919518E-01
 -2.28135323E+00 -1.80128550E-02 -4.19919518E-01 -2.28135323E+00 -1.80128550E-02
 -4.19919518E-01 -2.28135323E+00 -1.80128550E-02 -4.19919518E-01 -2.28135323E+00
 -1.80128550E-02  2.21442100E+00 -2.27497890E+00  1.00937355E-02  2.21442100E+00
 -2.27497890E+00  1.00937355E-02  2.21442100E+00 -2.27497890E+00  1.00937355E-02
  2.21442100E+00 -2.27497890E+00  1.00937355E-02  3.55102971E+00  7.76779464E-07
  1.44917746E-02  3.55102971E+00  7.76779464E-07  1.44917746E-02  3.55102971E+00
  7.76779464E-07  1.44917746E-02  3.55102971E+00  7.76779464E-07  1.44917746E-02
  2.21441855E+00  2.27498021E+00  1.00949394E-02  2.21441855E+00  2.27498021E+00
  1.00949394E-02  2.21441855E+00  2.27498021E+00  1.00949394E-02  2.21441855E+00
  2.27498021E+00  1.00949394E-02 -4.19921630E-01  2.28135315E+00 -1.80128472E-02
 -4.19921630E-01  2.28135315E+00 -1.80128472E-02 -4.19921630E-01  2.28135315E+00
 -1.80128472E-02 -4.19921630E-01  2.28135315E+00 -1.80128472E-02 -5.22156732E+00
 -1.56877668E+00  5.94804973E-01 -5.22156732E+00 -1.56877668E+00  5.94804973E-01
 -5.22157168E+00  1.56878712E+00  5.94765774E-01 -5.22157168E+00  1.56878712E+00
  5.94765774E-01 -1.44687096E+00 -4.06453249E+00 -3.05786866E-02 -1.44687096E+00
 -4.06453249E+00 -3.05786866E-02  3.22521995E+00 -4.06465725E+00  1.13412763E-02
  3.22521995E+00 -4.06465725E+00  1.13412763E-02  5.60431714E+00  2.42975851E-06
  3.74579504E-02  5.60431714E+00  2.42975851E-06  3.74579504E-02  3.22521686E+00
  4.06465881E+00  1.13374018E-02  3.22521686E+00  4.06465881E+00  1.13374018E-02
 -1.44687643E+00  4.06453055E+00 -3.05662781E-02 -1.44687643E+00  4.06453055E+00
 -3.05662781E-02
Constraint Structure                       R   N=          42
 -4.42143518E+00 -3.20737199E-06 -1.66092531E-01 -1.76799833E+00 -3.48468788E-07
 -2.97386275E-03 -4.19919518E-01 -2.28135323E+00 -1.80128550E-02  2.21442100E+00
 -2.27497890E+00  1.00937355E-02  3.55102971E+00  7.76779464E-07  1.44917746E-02
  2.21441855E+00  2.27498021E+00  1.00949394E-02 -4.19921630E-01  2.28135315E+00
 -1.80128472E-02 -5.22156732E+00 -1.56877668E+00  5.94804973E-01 -5.22157168E+00
  1.56878712E+00  5.94765774E-01 -1.44687096E+00 -4.06453249E+00 -3.05786866E-02
  3.22521995E+00 -4.06465725E+00  1.13412763E-02  5.60431714E+00  2.42975851E-06
  3.74579504E-02  3.22521686E+00  4.06465881E+00  1.13374018E-02 -1.44687643E+00
  4.06453055E+00 -3.05662781E-02
Num ILSW                                   I              100
ILSW                                       I   N=         100
           0           1           0           0           2           0
           0           0           0           0           0          -1
           0           0           0           0           0           0
           0           0           0           0           1           0
           1           0           0           0           0           0
           0           0      100000           0          -1           0
           0           0           0           0           0           0
           0           0           0           1           1           0
           0           0           1           0           0           0
           0           0           4          40           0           0
           0           0           0           0           0           0
           0           0           0           0           0           0
           0           0           0           0           0           0
           0           0           0           0           0           0
           0           0           0           0           0           0
           0           0           0           0           0           0
           0           0           0           0
Num RLSW                                   I               40
RLSW                                       R   N=          40
  1.00000000E+00  1.00000000E+00  1.00000000E+00  1.00000000E+00  1.00000000E+00
  0.00000000E+00  0.00000000E+00  1.00000000E+00  0.00000000E+00  0.00000000E+00
  0.00000000E+00  0.00000000E+00  1.00000000E+00  0.00000000E+00  0.00000000E+00
  0.00000000E+00  0.00000000E+00  1.00000000E+00  0.00000000E+00  0.00000000E+00
  0.00000000E+00  0.00000000E+00  1.00000000E+00  0.00000000E+00  0.00000000E+00
  0.00000000E+00  0.00000000E+00  1.00000000E+00  0.00000000E+00  0.00000000E+00
  0.00000000E+00  0.00000000E+00  0.00000000E+00  0.00000000E+00  0.00000000E+00
  0.00000000E+00  0.00000000E+00  0.00000000E+00  1.00000000E+00  1.00000000E+00
MxBond                                     I                3
NBond                                      I   N=          14
           3           3           3           3           3           3
           3           1           1           1           1           1
           1           1
IBond                                      I   N=          42
           2           8           9           1           3           7
           2           4          10           3           5          11
           4           6          12           5           7          13
           2           6          14           1           0           0
           1           0           0           3           0           0
           4           0           0           5           0           0
           6           0           0           7           0           0
RBond                                      R   N=          42
  1.00000000E+00  1.00000000E+00  1.00000000E+00  1.00000000E+00  1.50000000E+00
  1.50000000E+00  1.50000000E+00  1.50000000E+00  1.00000000E+00  1.50000000E+00
  1.50000000E+00  1.00000000E+00  1.50000000E+00  1.50000000E+00  1.00000000E+00
  1.50000000E+00  1.50000000E+00  1.00000000E+00  1.50000000E+00  1.50000000E+00
  1.00000000E+00  1.00000000E+00  0.00000000E+00  0.00000000E+00  1.00000000E+00
  0.00000000E+00  0.00000000E+00  1.00000000E+00  0.00000000E+00  0.00000000E+00
  1.00000000E+00  0.00000000E+00  0.00000000E+00  1.00000000E+00  0.00000000E+00
  0.00000000E+00  1.00000000E+00  0.00000000E+00  0.00000000E+00  1.00000000E+00
  0.00000000E+00  0.00000000E+00
Virial Ratio                               R      2.002216333981436E+00
SCF Energy                                 R     -2.857289078587471E+02
MP2 Energy                                 R     -2.866502508522950E+02
Total Energy                               R     -2.866502508522950E+02
Post-SCF wavefunction norm                 R      1.630074123788261E+00
RMS Force                                  R      7.641746275248513E-07
RMS Density                                R      2.453168069244794E-09
External E-field                           R   N=          35
  0.00000000E+00  0.00000000E+00  0.00000000E+00  0.00000000E+00  0.00000000E+00
  0.00000000E+00  0.00000000E+00  0.00000000E+00  0.00000000E+00  0.00000000E+00
  0.00000000E+00  0.00000000E+00  0.00000000E+00  0.00000000E+00  0.00000000E+00
  0.00000000E+00  0.00000000E+00  0.00000000E+00  0.00000000E+00  0.00000000E+00
  0.00000000E+00  0.00000000E+00  0.00000000E+00  0.00000000E+00  0.00000000E+00
  0.00000000E+00  0.00000000E+00  0.00000000E+00  0.00000000E+00  0.00000000E+00
  0.00000000E+00  0.00000000E+00  0.00000000E+00  0.00000000E+00  0.00000000E+00
IOpCl                                      I                0
IROHF                                      I                0
Alpha Orbital Energies                     R   N=         119
 -1.55658108E+01 -1.12745959E+01 -1.12339969E+01 -1.12339602E+01 -1.12230008E+01
 -1.12229864E+01 -1.12191532E+01 -1.21618176E+00 -1.11927442E+00 -1.00553393E+00
 -9.79389260E-01 -8.25200852E-01 -8.05125687E-01 -6.96658902E-01 -6.75264793E-01
 -6.49089667E-01 -5.91841517E-01 -5.85265930E-01 -5.75249922E-01 -5.26886059E-01
 -5.00192616E-01 -4.83785132E-01 -4.42253402E-01 -3.29830445E-01 -2.90075815E-01
  1.47058854E-01  1.64632309E-01  2.26099516E-01  2.46213659E-01  2.72448960E-01
  3.12509706E-01  3.15163139E-01  3.39096164E-01  3.48506548E-01  3.75749033E-01
  4.43104574E-01  4.81867871E-01  5.03673259E-01  5.32210148E-01  5.46729224E-01
  6.63739852E-01  7.41828428E-01  7.54291671E-01  7.60299503E-01  7.89382244E-01
  8.12906917E-01  8.35900067E-01  8.38843155E-01  8.39034477E-01  8.47131840E-01
  8.47554870E-01  8.68611360E-01  9.14674639E-01  9.25577561E-01  9.77973982E-01
  1.01295460E+00  1.05483351E+00  1.11113723E+00  1.11159143E+00  1.12101382E+00
  1.12168949E+00  1.18013616E+00  1.18328019E+00  1.19050248E+00  1.19059523E+00
  1.21528211E+00  1.23382584E+00  1.26990620E+00  1.29664865E+00  1.34554235E+00
  1.36051783E+00  1.44018973E+00  1.44692175E+00  1.52656078E+00  1.57848895E+00
  1.65557509E+00  1.70587041E+00  1.72145564E+00  1.76700980E+00  1.77873589E+00
  1.80084979E+00  1.80425115E+00  2.04966661E+00  2.08888246E+00  2.13403765E+00
  2.17300714E+00  2.20372036E+00  2.24650872E+00  2.27878928E+00  2.30939291E+00
  2.38973712E+00  2.40709027E+00  2.42673473E+00  2.46185849E+00  2.49946912E+00
  2.51955167E+00  2.57472122E+00  2.60451038E+00  2.64476930E+00  2.79043293E+00
  2.80239535E+00  2.82143196E+00  2.91132424E+00  2.92885238E+00  3.01992275E+00
  3.07942559E+00  3.09297988E+00  3.09734378E+00  3.18394927E+00  3.23223938E+00
  3.45714683E+00  3.79564545E+00  4.26039696E+00  4.51757640E+00  4.54645297E+00
  4.55945212E+00  4.75960872E+00  4.78934381E+00  5.12394570E+00
Alpha MO coefficients                      R   N=       14161
  9.95007324E-01  2.51320357E-02  3.70894896E-04  1.49916487E-08  1.17372410E-03
 -3.67513643E-03 -1.12377385E-03 -1.54400936E-08 -8.77112124E-04 -3.45380701E-03
 -3.40582001E-03 -3.22670327E-03 -1.02747090E-10  2.01246425E-05  2.74036784E-09
  2.37345725E-05  3.35622636E-04 -1.23774481E-04 -7.73768836E-10 -2.07012766E-05
  7.10442620E-04 -2.67181842E-03  1.46104859E-08  1.55250316E-04 -1.62763748E-04
 -5.28771606E-05 -6.34273461E-05  2.20049248E-10 -1.02770679E-05  2.56357748E-10
 -1.22935806E-05 -6.73489093E-05  8.08247977E-06  1.77626014E-06 -1.02186312E-06
  1.04295731E-03  6.75487197E-04  7.55702522E-04 -4.58061477E-05 -4.57444297E-05
  4.89442640E-05 -4.73049060E-05  3.63409386E-05  3.73561385E-06 -8.75958172E-06
 -2.41862226E-06  8.43022283E-07  2.74936691E-05 -1.62480940E-05  6.37861248E-07
 -7.71585015E-04  2.05875042E-04 -1.81258903E-04  1.96463904E-05  1.65100444E-07
 -6.49346077E-06 -1.51408294E-05  5.36703940E-06 -2.26556949E-06  3.96449044E-07
 -7.59104630E-06 -3.48404894E-05  1.61568996E-05 -1.90963241E-10  2.58636999E-06
  4.23187525E-04 -2.99938232E-04 -1.57238884E-09 -1.32139925E-05 -7.81331558E-06
  1.54843671E-06 -1.84174598E-05  7.49383672E-11  3.37832650E-07  1.99625990E-12
 -2.41873224E-06  8.42407683E-07  2.74933633E-05  1.62483748E-05  6.37954772E-07
 -7.71581395E-04  2.05874589E-04  1.81253042E-04  1.96466830E-05  1.65345073E-07
 -6.49353297E-06 -1.51410617E-05 -5.36696303E-06 -2.26558268E-06 -3.96483166E-07
 -1.22934278E-05 -6.73476961E-05  8.08317308E-06 -1.77599446E-06 -1.02210400E-06
  1.04293554E-03  6.75494244E-04 -7.55691133E-04 -4.58070755E-05 -4.57450290E-05
  4.89440595E-05 -4.73047013E-05 -3.63414264E-05  3.73587377E-06  8.75940772E-06
  3.17184488E-04  4.50613443E-04  3.17185241E-04  4.50616204E-04  4.00379976E-05
  2.83665932E-04  3.03554017E-06 -5.71530309E-06  1.02994327E-05  8.57787424E-05
  3.03588285E-06 -5.71355561E-06  4.00380563E-05  2.83664618E-04 -1.73521730E-04
  4.95247201E-04 -8.34830548E-05 -1.44784150E-09  1.24729599E-05 -1.63285599E-03
 -1.11706126E-03  9.96383568E-09 -2.21965484E-04 -7.38814379E-04  7.40440107E-06
  2.15788029E-04 -4.26427107E-10 -6.37103409E-05  1.79629801E-09  9.95638884E-01
  2.72972304E-02 -4.21578667E-04 -7.92514533E-10 -8.59189447E-05 -1.53780997E-02
 -6.09657773E-03 -1.55770667E-08  1.07548300E-04 -1.25267295E-03 -1.43097345E-03
 -2.22820944E-03  1.38724910E-09  4.59229327E-05 -6.88210833E-11  1.06776846E-02
 -6.93492326E-05  1.18802142E-05 -1.50377517E-04 -7.80509123E-07  7.97196052E-03
  9.76131100E-04  4.18452113E-03 -2.01357288E-06 -4.09278057E-04 -3.55868780E-04
 -2.11281982E-04  1.22242179E-04  5.25935659E-06 -6.30722192E-06  1.09160982E-04
  5.54720713E-05  4.48460339E-05 -1.18183523E-05 -3.62646097E-06 -3.95102826E-03
  1.05218463E-03 -1.89228730E-03  3.87726502E-05  1.06420724E-04  3.96910939E-05
  2.41396502E-05 -3.47427890E-05 -2.72041657E-06  4.66301472E-06 -2.26882697E-04
 -2.36899191E-04  4.14177687E-05  1.02594800E-10 -3.99269588E-07  3.50950922E-03
 -2.11713940E-03 -6.07061140E-10 -2.25824657E-05 -2.24004841E-05  1.02352791E-05
 -9.54534339E-05 -8.31978549E-11 -9.55085869E-07  2.78757429E-12  1.09161217E-04
  5.54720668E-05  4.48462549E-05  1.18180969E-05 -3.62616116E-06 -3.95102924E-03
  1.05218282E-03  1.89228996E-03  3.87738780E-05  1.06420772E-04  3.96912201E-05
  2.41396983E-05  3.47430913E-05 -2.72067111E-06 -4.66341922E-06  1.06776960E-02
 -6.93505645E-05  1.18795905E-05  1.50377735E-04 -7.79953833E-07  7.97197939E-03
  9.76130402E-04 -4.18453091E-03 -2.01701751E-06 -4.09277487E-04 -3.55868667E-04
 -2.11282033E-04 -1.22241451E-04  5.25972861E-06  6.30637450E-06  7.76796457E-05
 -2.82861629E-05  7.76782041E-05 -2.83036547E-05  4.53753616E-05  9.49273019E-04
 -5.71745637E-05 -3.69372653E-04  5.84328205E-05  5.27129808E-04 -5.71747406E-05
 -3.69372677E-04  4.53750402E-05  9.49276588E-04 -1.41839963E-05 -5.37474754E-05
 -1.22128709E-05  7.56682127E-10  4.88371326E-06  7.80344972E-05  1.74721683E-04
 -1.61545138E-08 -3.32605612E-05 -3.30109924E-06 -2.72527988E-05 -4.31010190E-05
 -2.49424422E-09 -5.89569557E-06 -1.31923359E-09 -9.04785194E-04 -2.00623436E-05
 -3.15546228E-05 -4.10418281E-10 -3.80864018E-06 -3.39936756E-03 -1.47707448E-03
  4.31728771E-08  4.88547102E-05  7.79334378E-05  8.07208293E-05  2.68244286E-05
 -3.64412284E-09 -2.91049132E-07  6.87868889E-11  3.67647677E-02  7.27082909E-04
 -1.47247520E-04 -4.51091209E-05 -7.43190971E-07  5.50593758E-03  2.07377614E-03
  1.82574313E-03  1.58178266E-05 -4.19202382E-04 -2.71429444E-04 -2.36304273E-04
  3.58995679E-05 -2.01291597E-06  8.75438114E-07  7.02045573E-01  1.94916658E-02
 -1.04969122E-04  8.92412340E-05 -3.49214550E-06 -1.22112522E-02  1.52269017E-03
 -2.54198465E-03  3.61169542E-05 -1.07973955E-03 -1.12048554E-03 -1.63072809E-03
  1.13635721E-04  3.39405547E-06  3.96626753E-06  5.49018072E-02  1.14829176E-03
  1.77004671E-04  1.15710660E-08  5.38183039E-07  8.21490174E-03 -3.63563735E-03
 -1.21270064E-07 -2.93190428E-05 -5.04777413E-04 -7.76630399E-04 -3.35348807E-04
 -6.65481110E-09 -1.34655524E-06 -2.43077756E-10  7.01953074E-01  1.94890941E-02
 -1.04958192E-04 -8.92240180E-05 -3.49328768E-06 -1.22100828E-02  1.52262509E-03
  2.54184034E-03  3.61203464E-05 -1.07959134E-03 -1.12031707E-03 -1.63050980E-03
 -1.13622706E-04  3.39245527E-06 -3.96678494E-06  3.67596856E-02  7.26954197E-04
 -1.47231119E-04  4.51099541E-05 -7.42733021E-07  5.50554829E-03  2.07365591E-03
 -1.82567447E-03  1.58127669E-05 -4.19146739E-04 -2.71395126E-04 -2.36283880E-04
 -3.58948803E-05 -2.01258695E-06 -8.75650034E-07 -1.31745749E-05  4.11521182E-05
 -1.31703530E-05  4.11552912E-05  1.56560314E-05  5.31415041E-04 -1.83566301E-04
  7.96655206E-04 -1.22344088E-05  6.87034813E-04 -1.83547985E-04  7.96516539E-04
  1.56622450E-05  5.31402980E-04 -9.87226613E-10 -3.73201151E-09 -8.21253628E-10
 -8.60773292E-06  3.63702694E-10  6.58197468E-09  1.13635510E-08  2.16548701E-04
 -2.70462108E-09 -4.66903420E-10 -1.52390849E-09 -3.22958195E-09  3.78731383E-05
 -3.50898536E-10  1.63439117E-05 -5.97037564E-08 -1.53565649E-09 -2.06897689E-09
  6.28447359E-06 -2.74522096E-10 -2.24542224E-07 -9.58506677E-08 -5.99793936E-04
  4.01510368E-09  5.33083425E-09  5.46828477E-09  1.78284763E-09  5.82067743E-05
  5.70256038E-11  5.40091704E-07 -3.83515913E-02 -9.72910969E-04  1.27452291E-04
 -6.16318436E-06  2.50890942E-06 -2.93157754E-03 -9.51702542E-04 -4.84576319E-04
 -1.72634614E-05  4.23324485E-04  2.62098550E-04  1.54216294E-04 -3.67444083E-05
  4.63484271E-06 -7.43789404E-07 -7.02940322E-01 -1.95346862E-02  9.06170320E-05
 -1.26087606E-04  1.06144471E-06  8.85509904E-03 -4.96354416E-04  1.06715690E-03
 -9.56280125E-06  1.12005911E-03  1.28413667E-03  1.65601080E-03 -9.35932896E-05
 -5.65998764E-06 -1.63192209E-06  3.55470657E-06  7.45618644E-08  1.15374969E-08
 -1.70150156E-04 -2.18776215E-10  5.39852311E-07 -2.40444991E-07  1.77540319E-03
 -2.27935656E-09 -3.31576804E-08 -5.14042653E-08 -2.19955803E-08  1.09185963E-04
  1.76276939E-10 -1.37863255E-06  7.03032700E-01  1.95372499E-02 -9.06317889E-05
 -1.26098744E-04 -1.06330304E-06 -8.85670485E-03  4.96554292E-04  1.06749201E-03
  9.57160216E-06 -1.12020005E-03 -1.28428467E-03 -1.65622507E-03 -9.36076488E-05
  5.65986762E-06 -1.63311281E-06  3.83563877E-02  9.73005289E-04 -1.27471933E-04
 -6.15704640E-06 -2.50930021E-06  2.93230264E-03  9.51974735E-04 -4.84816439E-04
  1.72644512E-05 -4.23379676E-04 -2.62134292E-04 -1.54247436E-04 -3.67492546E-05
 -4.63559174E-06 -7.43779068E-07  2.71284453E-05  1.40454728E-05 -2.71305050E-05
 -1.40405666E-05  4.66329999E-05 -8.86863718E-05  1.38043828E-04 -1.06248642E-03