
    -----------------------------------------------------------------------
          Psi4: An Open-Source Ab Initio Electronic Structure Package
                               Psi4 1.3.2 release

                         Git: Rev {HEAD} ecbda83 


    R. M. Parrish, L. A. Burns, D. G. A. Smith, A. C. Simmonett,
    A. E. DePrince III, E. G. Hohenstein, U. Bozkaya, A. Yu. Sokolov,
    R. Di Remigio, R. M. Richard, J. F. Gonthier, A. M. James,
    H. R. McAlexander, A. Kumar, M. Saitow, X. Wang, B. P. Pritchard,
    P. Verma, H. F. Schaefer III, K. Patkowski, R. A. King, E. F. Valeev,
    F. A. Evangelista, J. M. Turney, T. D. Crawford, and C. D. Sherrill,
    J. Chem. Theory Comput. 13(7) pp 3185--3197 (2017).
    (doi: 10.1021/acs.jctc.7b00174)


                         Additional Contributions by
    P. Kraus, H. Kruse, M. H. Lechner, M. C. Schieber, R. A. Shaw,
    A. Alenaizan, R. Galvelis, Z. L. Glick, S. Lehtola, and J. P. Misiewicz

    -----------------------------------------------------------------------


    Psi4 started on: Tuesday, 03 November 2020 03:03PM

    Process ID: 6462
    Host:       node37.bme.utexas.edu
    PSIDATADIR: /home/xy3866/psi4conda/share/psi4
    Memory:     500.0 MiB
    Threads:    8
    
  ==> Input File <==

--------------------------------------------------------------------------
#psi4
#
memory 32 gb

molecule  {
0 1
  O        0.8686370    -1.1285810     0.6753960
  N       -0.4170490     0.5891890    -0.1013730
  C       -1.6800190    -0.0563620     0.2358630
  C       -2.0872990    -1.0630810    -0.8349870
  C       -2.7390930     1.0113430     0.4650240
  C        0.7808810    -0.0406060     0.0960010
  C        1.9924560     0.7166710    -0.4292430
  C        3.2969670     0.0166800    -0.0788280
  H       -1.4931140    -0.5968520     1.1678280
  H       -0.4380706     1.2377028    -0.5967089
  H       -3.0167340    -1.5709650    -0.5578120
  H       -2.2433890    -0.5581650    -1.7943680
  H       -1.3035910    -1.8142070    -0.9546500
  H       -2.4287380     1.7063800     1.2494310
  H       -3.6863690     0.5519340     0.7608270
  H       -2.9190420     1.5806020    -0.4540200
  H        1.8890940     0.8204890    -1.5196510
  H        1.9757950     1.7355060    -0.0222730
  H        3.3123780    -0.9936500    -0.4915720
  H        4.1482470     0.5747890    -0.4771690
  H        3.4100600    -0.0687260     1.0041520
units angstrom
no_reorient  #important for SAPT in psi4, default
symmetry c1  #important for SAPT in psi4, default
}

set PROPERTIES_ORIGIN ["COM"]
properties('MP2/aug-cc-pvtz', properties = ['dipole'])
--------------------------------------------------------------------------

  Memory set to  29.802 GiB by Python driver.
    SCF Algorithm Type (re)set to DF.

*** tstart() called on node37.bme.utexas.edu
*** at Tue Nov  3 15:03:05 2020

   => Loading Basis Set <=

    Name: AUG-CC-PVTZ
    Role: ORBITAL
    Keyword: BASIS
    atoms 1    entry O          line   327 file /home/xy3866/psi4conda/share/psi4/basis/aug-cc-pvtz.gbs 
    atoms 2    entry N          line   281 file /home/xy3866/psi4conda/share/psi4/basis/aug-cc-pvtz.gbs 
    atoms 3-8  entry C          line   235 file /home/xy3866/psi4conda/share/psi4/basis/aug-cc-pvtz.gbs 
    atoms 9-21 entry H          line    36 file /home/xy3866/psi4conda/share/psi4/basis/aug-cc-pvtz.gbs 


         ---------------------------------------------------------
                                   SCF
               by Justin Turney, Rob Parrish, Andy Simmonett
                          and Daniel G. A. Smith
                              RHF Reference
                        8 Threads,  30517 MiB Core
         ---------------------------------------------------------

  ==> Geometry <==

    Molecular point group: c1
    Full point group: C1

    Geometry (in Angstrom), charge = 0, multiplicity = 1:

       Center              X                  Y                   Z               Mass       
    ------------   -----------------  -----------------  -----------------  -----------------
         O            0.868591908498    -1.127189694832     0.674333235352    15.994914619570
         N           -0.417094091502     0.590580305168    -0.102435764648    14.003074004430
         C           -1.680064091502    -0.054970694832     0.234800235352    12.000000000000
         C           -2.087344091502    -1.061689694832    -0.836049764648    12.000000000000
         C           -2.739138091502     1.012734305168     0.463961235352    12.000000000000
         C            0.780835908498    -0.039214694832     0.094938235352    12.000000000000
         C            1.992410908498     0.718062305168    -0.430305764648    12.000000000000
         C            3.296921908498     0.018071305168    -0.079890764648    12.000000000000
         H           -1.493159091502    -0.595460694832     1.166765235352     1.007825032230
         H           -0.438115691502     1.239094105168    -0.597771664648     1.007825032230
         H           -3.016779091502    -1.569573694832    -0.558874764648     1.007825032230
         H           -2.243434091502    -0.556773694832    -1.795430764648     1.007825032230
         H           -1.303636091502    -1.812815694832    -0.955712764648     1.007825032230
         H           -2.428783091502     1.707771305168     1.248368235352     1.007825032230
         H           -3.686414091502     0.553325305168     0.759764235352     1.007825032230
         H           -2.919087091502     1.581993305168    -0.455082764648     1.007825032230
         H            1.889048908498     0.821880305168    -1.520713764648     1.007825032230
         H            1.975749908498     1.736897305168    -0.023335764648     1.007825032230
         H            3.312332908498    -0.992258694832    -0.492634764648     1.007825032230
         H            4.148201908498     0.576180305168    -0.478231764648     1.007825032230
         H            3.410014908498    -0.067334694832     1.003089235352     1.007825032230

  Running in c1 symmetry.

  Rotational constants: A =      0.15343  B =      0.03344  C =      0.03084 [cm^-1]
  Rotational constants: A =   4599.78311  B =   1002.38458  C =    924.54148 [MHz]
  Nuclear repulsion =  393.875140817766635

  Charge       = 0
  Multiplicity = 1
  Electrons    = 64
  Nalpha       = 32
  Nbeta        = 32

  ==> Algorithm <==

  SCF Algorithm Type is DF.
  DIIS enabled.
  MOM disabled.
  Fractional occupation disabled.
  Guess Type is SAD.
  Energy threshold   = 1.00e-10
  Density threshold  = 1.00e-10
  Integral threshold = 0.00e+00

  ==> Primary Basis <==

  Basis Set: AUG-CC-PVTZ
    Blend: AUG-CC-PVTZ
    Number of shells: 229
    Number of basis function: 667
    Number of Cartesian functions: 765
    Spherical Harmonics?: true
    Max angular momentum: 3

   => Loading Basis Set <=

    Name: (AUG-CC-PVTZ AUX)
    Role: JKFIT
    Keyword: DF_BASIS_SCF
    atoms 1    entry O          line   286 file /home/xy3866/psi4conda/share/psi4/basis/aug-cc-pvtz-jkfit.gbs 
    atoms 2    entry N          line   224 file /home/xy3866/psi4conda/share/psi4/basis/aug-cc-pvtz-jkfit.gbs 
    atoms 3-8  entry C          line   162 file /home/xy3866/psi4conda/share/psi4/basis/aug-cc-pvtz-jkfit.gbs 
    atoms 9-21 entry H          line    70 file /home/xy3866/psi4conda/share/psi4/basis/aug-cc-pvtz-jkfit.gbs 

  ==> Pre-Iterations <==

   -------------------------------------------------------
    Irrep   Nso     Nmo     Nalpha   Nbeta   Ndocc  Nsocc
   -------------------------------------------------------
     A        667     667       0       0       0       0
   -------------------------------------------------------
    Total     667     667      32      32      32       0
   -------------------------------------------------------

  ==> Integral Setup <==

  DFHelper Memory: AOs need 4.547 GiB; user supplied 22.352 GiB. Using in-core AOs.

  ==> MemDFJK: Density-Fitted J/K Matrices <==

    J tasked:                   Yes
    K tasked:                   Yes
    wK tasked:                   No
    OpenMP threads:               8
    Memory [MiB]:             22888
    Algorithm:                 Disk
    Schwarz Cutoff:           1E-12
    Mask sparsity (%):       6.8363
    Fitting Condition:        1E-10

   => Auxiliary Basis Set <=

  Basis Set: (AUG-CC-PVTZ AUX)
    Blend: AUG-CC-PVTZ-JKFIT
    Number of shells: 422
    Number of basis function: 1430
    Number of Cartesian functions: 1763
    Spherical Harmonics?: true
    Max angular momentum: 4

  Minimum eigenvalue in the overlap matrix is 2.9351027768E-06.
  Using Symmetric Orthogonalization.

  SCF Guess: Superposition of Atomic Densities via on-the-fly atomic UHF.

  ==> Iterations <==

                           Total Energy        Delta E     RMS |[F,P]|

   @DF-RHF iter SAD:  -363.53496732044590   -3.63535e+02   0.00000e+00 
   @DF-RHF iter   1:  -363.86046816164139   -3.25501e-01   1.19461e-03 DIIS
   @DF-RHF iter   2:  -364.13607748419940   -2.75609e-01   6.10585e-04 DIIS
   @DF-RHF iter   3:  -364.20138228878130   -6.53048e-02   1.32608e-04 DIIS
   @DF-RHF iter   4:  -364.20593371804944   -4.55143e-03   6.05915e-05 DIIS
   @DF-RHF iter   5:  -364.20682594248370   -8.92224e-04   9.74540e-06 DIIS
   @DF-RHF iter   6:  -364.20686838713056   -4.24446e-05   4.35934e-06 DIIS
   @DF-RHF iter   7:  -364.20687537087099   -6.98374e-06   1.42505e-06 DIIS
   @DF-RHF iter   8:  -364.20687672977107   -1.35890e-06   6.26829e-07 DIIS
   @DF-RHF iter   9:  -364.20687700289398   -2.73123e-07   1.92529e-07 DIIS
   @DF-RHF iter  10:  -364.20687702768487   -2.47909e-08   5.66991e-08 DIIS
   @DF-RHF iter  11:  -364.20687702948061   -1.79574e-09   1.47373e-08 DIIS
   @DF-RHF iter  12:  -364.20687702957360   -9.29958e-11   4.29350e-09 DIIS
   @DF-RHF iter  13:  -364.20687702958077   -7.16227e-12   1.42732e-09 DIIS
   @DF-RHF iter  14:  -364.20687702958304   -2.27374e-12   5.39698e-10 DIIS
   @DF-RHF iter  15:  -364.20687702958264    3.97904e-13   1.85608e-10 DIIS
   @DF-RHF iter  16:  -364.20687702958173    9.09495e-13   7.42120e-11 DIIS
  Energy and wave function converged.


  ==> Post-Iterations <==

    Orbital Energies [Eh]
    ---------------------

    Doubly Occupied:                                                      

       1A    -20.514314     2A    -15.556516     3A    -11.345573  
       4A    -11.264801     5A    -11.241270     6A    -11.223766  
       7A    -11.214297     8A    -11.213002     9A     -1.370486  
      10A     -1.258701    11A     -1.068793    12A     -1.035434  
      13A     -0.940835    14A     -0.891788    15A     -0.833793  
      16A     -0.800801    17A     -0.685496    18A     -0.660965  
      19A     -0.636997    20A     -0.614550    21A     -0.598478  
      22A     -0.582276    23A     -0.550206    24A     -0.545697  
      25A     -0.526540    26A     -0.513551    27A     -0.511746  
      28A     -0.497554    29A     -0.488661    30A     -0.477747  
      31A     -0.418642    32A     -0.389367  

    Virtual:                                                              

      33A      0.024188    34A      0.031540    35A      0.035597  
      36A      0.038446    37A      0.048365    38A      0.050168  
      39A      0.050824    40A      0.058128    41A      0.060962  
      42A      0.068628    43A      0.074170    44A      0.076844  
      45A      0.081445    46A      0.103732    47A      0.112170  
      48A      0.116591    49A      0.120520    50A      0.122809  
      51A      0.126797    52A      0.127778    53A      0.134294  
      54A      0.136436    55A      0.141658    56A      0.142223  
      57A      0.144919    58A      0.145468    59A      0.150563  
      60A      0.160861    61A      0.166043    62A      0.171553  
      63A      0.177015    64A      0.180608    65A      0.184898  
      66A      0.191328    67A      0.205926    68A      0.208137  
      69A      0.211423    70A      0.229473    71A      0.231119  
      72A      0.236529    73A      0.244024    74A      0.248735  
      75A      0.254447    76A      0.264938    77A      0.268982  
      78A      0.272229    79A      0.275553    80A      0.283170  
      81A      0.291310    82A      0.297067    83A      0.300364  
      84A      0.305318    85A      0.311987    86A      0.318747  
      87A      0.321323    88A      0.327958    89A      0.332614  
      90A      0.341872    91A      0.342467    92A      0.346981  
      93A      0.348218    94A      0.357583    95A      0.359200  
      96A      0.361313    97A      0.367124    98A      0.372771  
      99A      0.373933   100A      0.375944   101A      0.383666  
     102A      0.390616   103A      0.397885   104A      0.398887  
     105A      0.407871   106A      0.409310   107A      0.411343  
     108A      0.417836   109A      0.420494   110A      0.421478  
     111A      0.433232   112A      0.435586   113A      0.440320  
     114A      0.442318   115A      0.448717   116A      0.454794  
     117A      0.455182   118A      0.461564   119A      0.465692  
     120A      0.466887   121A      0.471189   122A      0.473503  
     123A      0.478232   124A      0.483657   125A      0.488836  
     126A      0.490345   127A      0.499466   128A      0.501591  
     129A      0.502706   130A      0.509921   131A      0.515020  
     132A      0.521856   133A      0.529992   134A      0.530683  
     135A      0.532204   136A      0.541506   137A      0.542160  
     138A      0.544139   139A      0.549760   140A      0.558731  
     141A      0.562659   142A      0.571289   143A      0.576267  
     144A      0.582204   145A      0.587881   146A      0.594229  
     147A      0.596999   148A      0.604947   149A      0.607361  
     150A      0.614612   151A      0.618547   152A      0.624970  
     153A      0.636566   154A      0.642545   155A      0.653654  
     156A      0.659973   157A      0.665020   158A      0.675775  
     159A      0.679962   160A      0.690789   161A      0.697242  
     162A      0.704079   163A      0.707145   164A      0.732727  
     165A      0.740138   166A      0.754174   167A      0.762439  
     168A      0.765333   169A      0.774866   170A      0.783231  
     171A      0.790855   172A      0.793834   173A      0.809145  
     174A      0.811444   175A      0.821287   176A      0.824269  
     177A      0.825997   178A      0.835658   179A      0.845004  
     180A      0.846790   181A      0.854988   182A      0.857076  
     183A      0.865495   184A      0.871899   185A      0.879249  
     186A      0.883012   187A      0.887075   188A      0.891345  
     189A      0.899891   190A      0.902987   191A      0.909978  
     192A      0.912910   193A      0.928127   194A      0.931583  
     195A      0.935509   196A      0.938747   197A      0.942604  
     198A      0.948640   199A      0.955105   200A      0.958304  
     201A      0.964357   202A      0.967794   203A      0.969429  
     204A      0.980570   205A      0.989799   206A      0.995946  
     207A      1.003410   208A      1.006095   209A      1.009167  
     210A      1.014399   211A      1.024451   212A      1.037775  
     213A      1.039571   214A      1.042546   215A      1.052049  
     216A      1.056035   217A      1.061232   218A      1.070969  
     219A      1.077318   220A      1.078124   221A      1.089877  
     222A      1.101810   223A      1.107830   224A      1.111913  
     225A      1.118616   226A      1.123852   227A      1.127941  
     228A      1.132252   229A      1.134215   230A      1.147895  
     231A      1.154002   232A      1.162825   233A      1.169934  
     234A      1.171522   235A      1.173857   236A      1.180215  
     237A      1.196156   238A      1.204689   239A      1.210003  
     240A      1.211399   241A      1.217007   242A      1.220672  
     243A      1.230417   244A      1.239578   245A      1.240628  
     246A      1.244904   247A      1.255673   248A      1.263575  
     249A      1.271562   250A      1.280027   251A      1.285995  
     252A      1.293770   253A      1.303456   254A      1.308720  
     255A      1.317721   256A      1.327823   257A      1.338214  
     258A      1.342682   259A      1.348339   260A      1.357072  
     261A      1.362647   262A      1.369748   263A      1.385927  
     264A      1.390396   265A      1.401622   266A      1.410918  
     267A      1.422524   268A      1.429079   269A      1.436518  
     270A      1.436940   271A      1.437933   272A      1.446566  
     273A      1.451133   274A      1.466359   275A      1.471005  
     276A      1.474992   277A      1.491371   278A      1.495155  
     279A      1.498283   280A      1.511378   281A      1.512896  
     282A      1.524055   283A      1.532491   284A      1.549313  
     285A      1.552953   286A      1.570185   287A      1.575522  
     288A      1.587719   289A      1.596931   290A      1.613408  
     291A      1.619536   292A      1.626828   293A      1.629730  
     294A      1.632290   295A      1.639998   296A      1.649596  
     297A      1.660240   298A      1.664312   299A      1.672809  
     300A      1.679309   301A      1.689602   302A      1.690465  
     303A      1.703840   304A      1.708131   305A      1.712656  
     306A      1.715029   307A      1.729342   308A      1.734506  
     309A      1.740214   310A      1.744683   311A      1.746066  
     312A      1.748017   313A      1.757968   314A      1.763659  
     315A      1.774663   316A      1.783905   317A      1.790388  
     318A      1.800178   319A      1.809100   320A      1.817161  
     321A      1.822161   322A      1.837650   323A      1.844317  
     324A      1.854293   325A      1.866995   326A      1.871738  
     327A      1.885187   328A      1.894046   329A      1.904540  
     330A      1.905485   331A      1.918436   332A      1.927141  
     333A      1.935543   334A      1.941105   335A      1.952146  
     336A      1.959249   337A      1.965392   338A      1.978932  
     339A      1.993811   340A      1.997824   341A      2.007233  
     342A      2.015083   343A      2.019815   344A      2.034240  
     345A      2.041079   346A      2.046810   347A      2.053504  
     348A      2.067111   349A      2.070516   350A      2.083487  
     351A      2.100808   352A      2.109792   353A      2.128118  
     354A      2.142863   355A      2.148820   356A      2.150118  
     357A      2.170914   358A      2.187690   359A      2.199719  
     360A      2.213493   361A      2.227057   362A      2.237851  
     363A      2.239820   364A      2.250215   365A      2.256777  
     366A      2.262747   367A      2.267248   368A      2.278744  
     369A      2.289726   370A      2.298771   371A      2.300775  
     372A      2.306350   373A      2.326055   374A      2.342850  
     375A      2.371807   376A      2.376616   377A      2.389691  
     378A      2.393331   379A      2.409333   380A      2.416315  
     381A      2.424210   382A      2.444828   383A      2.446588  
     384A      2.456409   385A      2.481309   386A      2.496618  
     387A      2.522693   388A      2.525357   389A      2.554069  
     390A      2.562181   391A      2.569423   392A      2.577687  
     393A      2.603797   394A      2.610537   395A      2.637480  
     396A      2.660690   397A      2.676354   398A      2.699114  
     399A      2.710669   400A      2.754837   401A      2.762758  
     402A      2.781191   403A      2.815475   404A      2.839947  
     405A      2.848690   406A      2.864323   407A      2.884334  
     408A      2.904119   409A      2.937469   410A      2.976617  
     411A      2.996320   412A      3.027097   413A      3.066130  
     414A      3.075463   415A      3.098020   416A      3.133393  
     417A      3.139913   418A      3.156642   419A      3.248749  
     420A      3.277316   421A      3.294057   422A      3.330867  
     423A      3.366706   424A      3.386881   425A      3.414577  
     426A      3.421031   427A      3.449770   428A      3.458783  
     429A      3.476595   430A      3.487254   431A      3.489238  
     432A      3.505419   433A      3.518595   434A      3.540109  
     435A      3.546254   436A      3.555994   437A      3.579190  
     438A      3.592223   439A      3.608991   440A      3.633018  
     441A      3.647766   442A      3.649665   443A      3.666753  
     444A      3.675608   445A      3.682307   446A      3.688624  
     447A      3.703723   448A      3.718960   449A      3.727237  
     450A      3.736202   451A      3.749170   452A      3.758085  
     453A      3.762378   454A      3.778242   455A      3.788495  
     456A      3.790111   457A      3.794757   458A      3.810144  
     459A      3.825481   460A      3.831224   461A      3.850389  
     462A      3.863463   463A      3.879000   464A      3.893005  
     465A      3.900038   466A      3.904546   467A      3.910728  
     468A      3.927015   469A      3.935201   470A      3.948784  
     471A      3.953209   472A      3.964413   473A      3.975177  
     474A      3.992512   475A      4.000164   476A      4.006689  
     477A      4.012339   478A      4.021792   479A      4.027519  
     480A      4.034485   481A      4.053621   482A      4.056793  
     483A      4.078473   484A      4.086526   485A      4.091352  
     486A      4.120395   487A      4.138652   488A      4.143376  
     489A      4.171193   490A      4.179420   491A      4.182796  
     492A      4.193265   493A      4.203528   494A      4.212012  
     495A      4.218003   496A      4.227136   497A      4.235299  
     498A      4.244778   499A      4.252254   500A      4.263230  
     501A      4.275100   502A      4.285121   503A      4.291369  
     504A      4.305442   505A      4.327474   506A      4.335244  
     507A      4.353519   508A      4.373544   509A      4.381814  
     510A      4.402845   511A      4.417677   512A      4.441345  
     513A      4.454177   514A      4.474023   515A      4.488599  
     516A      4.491005   517A      4.508582   518A      4.517441  
     519A      4.541358   520A      4.545142   521A      4.567586  
     522A      4.597815   523A      4.607717   524A      4.617422  
     525A      4.623356   526A      4.642725   527A      4.658636  
     528A      4.667005   529A      4.677804   530A      4.707872  
     531A      4.716945   532A      4.727946   533A      4.753161  
     534A      4.757851   535A      4.779488   536A      4.780756  
     537A      4.807248   538A      4.829532   539A      4.833967  
     540A      4.851404   541A      4.864046   542A      4.869600  
     543A      4.884172   544A      4.885599   545A      4.893081  
     546A      4.903854   547A      4.914650   548A      4.927537  
     549A      4.950970   550A      4.958578   551A      4.988969  
     552A      4.996243   553A      5.029395   554A      5.041680  
     555A      5.063617   556A      5.071845   557A      5.098421  
     558A      5.103339   559A      5.116837   560A      5.122908  
     561A      5.146349   562A      5.168461   563A      5.182004  
     564A      5.191641   565A      5.195353   566A      5.201366  
     567A      5.216989   568A      5.240065   569A      5.260650  
     570A      5.269751   571A      5.277080   572A      5.293224  
     573A      5.319967   574A      5.329692   575A      5.346357  
     576A      5.363329   577A      5.381168   578A      5.390131  
     579A      5.409451   580A      5.429125   581A      5.432043  
     582A      5.435561   583A      5.444520   584A      5.461505  
     585A      5.471416   586A      5.483211   587A      5.489661  
     588A      5.521330   589A      5.529671   590A      5.550085  
     591A      5.563891   592A      5.602775   593A      5.626208  
     594A      5.646457   595A      5.660379   596A      5.667172  
     597A      5.674513   598A      5.702503   599A      5.713552  
     600A      5.750890   601A      5.772940   602A      5.790037  
     603A      5.810907   604A      5.840770   605A      5.848036  
     606A      5.872853   607A      5.890769   608A      5.906103  
     609A      5.951715   610A      5.970309   611A      5.975475  
     612A      6.007557   613A      6.034915   614A      6.058912  
     615A      6.069648   616A      6.101274   617A      6.160879  
     618A      6.165881   619A      6.182981   620A      6.202011  
     621A      6.207999   622A      6.217006   623A      6.232420  
     624A      6.268027   625A      6.285447   626A      6.312112  
     627A      6.341643   628A      6.351043   629A      6.433259  
     630A      6.484959   631A      6.491444   632A      6.575056  
     633A      6.609935   634A      6.663896   635A      6.745954  
     636A      6.811647   637A      6.834410   638A      6.846990  
     639A      6.862353   640A      6.873128   641A      6.878807  
     642A      6.936377   643A      6.958932   644A      6.967963  
     645A      7.029851   646A      7.045784   647A      7.136197  
     648A      7.261809   649A      7.267898   650A      7.372043  
     651A      7.528906   652A      7.547127   653A      7.675610  
     654A      7.762414   655A      7.780303   656A      7.907584  
     657A      8.028049   658A      8.126203   659A      8.258324  
     660A     15.848368   661A     17.728840   662A     18.184600  
     663A     18.461329   664A     18.784840   665A     18.987542  
     666A     19.544870   667A     23.216893  

    Final Occupation by Irrep:
              A 
    DOCC [    32 ]

  @DF-RHF Final Energy:  -364.20687702958173

   => Energetics <=

    Nuclear Repulsion Energy =            393.8751408177666349
    One-Electron Energy =               -1275.2187469724228777
    Two-Electron Energy =                 517.1367291250745666
    Total Energy =                       -364.2068770295817330

Computation Completed

*** tstop() called on node37.bme.utexas.edu at Tue Nov  3 15:04:43 2020
Module time:
	user time   =     328.32 seconds =       5.47 minutes
	system time =      75.47 seconds =       1.26 minutes
	total time  =         98 seconds =       1.63 minutes
Total time:
	user time   =     328.32 seconds =       5.47 minutes
	system time =      75.47 seconds =       1.26 minutes
	total time  =         98 seconds =       1.63 minutes
   => Loading Basis Set <=

    Name: (AUG-CC-PVTZ AUX)
    Role: RIFIT
    Keyword: DF_BASIS_MP2
    atoms 1    entry O          line   264 file /home/xy3866/psi4conda/share/psi4/basis/aug-cc-pvtz-ri.gbs 
    atoms 2    entry N          line   206 file /home/xy3866/psi4conda/share/psi4/basis/aug-cc-pvtz-ri.gbs 
    atoms 3-8  entry C          line   148 file /home/xy3866/psi4conda/share/psi4/basis/aug-cc-pvtz-ri.gbs 
    atoms 9-21 entry H          line    30 file /home/xy3866/psi4conda/share/psi4/basis/aug-cc-pvtz-ri.gbs 


*** tstart() called on node37.bme.utexas.edu
*** at Tue Nov  3 15:04:43 2020


  //>>>>>>>>>>>>>>>>>>>>>>>>>>>>>>>>>>>//
  //               DFMP2               //
  //<<<<<<<<<<<<<<<<<<<<<<<<<<<<<<<<<<<//

	 --------------------------------------------------------
	                          DF-MP2                         
	      2nd-Order Density-Fitted Moller-Plesset Theory     
	              RMP2 Wavefunction,   8 Threads             
	                                                         
	        Rob Parrish, Justin Turney, Andy Simmonett,      
	           Ed Hohenstein, and C. David Sherrill          
	 --------------------------------------------------------

   => Auxiliary Basis Set <=

  Basis Set: (AUG-CC-PVTZ AUX)
    Blend: AUG-CC-PVTZ-RI
    Number of shells: 406
    Number of basis function: 1446
    Number of Cartesian functions: 1803
    Spherical Harmonics?: true
    Max angular momentum: 4

	 --------------------------------------------------------
	                 NBF =   667, NAUX =  1446
	 --------------------------------------------------------
	   CLASS    FOCC     OCC    AOCC    AVIR     VIR    FVIR
	   PAIRS       0      32      32     635     635       0
	 --------------------------------------------------------

  DFHelper Memory: AOs need 4.547 GiB; user supplied 22.352 GiB. Using in-core AOs.


         ------------------------------------------------------------
                                     CPHF                           
                                  Rob Parrish                       
         ------------------------------------------------------------

  ==> Geometry <==

    Molecular point group: c1
    Full point group: C1

    Geometry (in Angstrom), charge = 0, multiplicity = 1:

       Center              X                  Y                   Z               Mass       
    ------------   -----------------  -----------------  -----------------  -----------------
         O            0.868591908498    -1.127189694832     0.674333235352    15.994914619570
         N           -0.417094091502     0.590580305168    -0.102435764648    14.003074004430
         C           -1.680064091502    -0.054970694832     0.234800235352    12.000000000000
         C           -2.087344091502    -1.061689694832    -0.836049764648    12.000000000000
         C           -2.739138091502     1.012734305168     0.463961235352    12.000000000000
         C            0.780835908498    -0.039214694832     0.094938235352    12.000000000000
         C            1.992410908498     0.718062305168    -0.430305764648    12.000000000000
         C            3.296921908498     0.018071305168    -0.079890764648    12.000000000000
         H           -1.493159091502    -0.595460694832     1.166765235352     1.007825032230
         H           -0.438115691502     1.239094105168    -0.597771664648     1.007825032230
         H           -3.016779091502    -1.569573694832    -0.558874764648     1.007825032230
         H           -2.243434091502    -0.556773694832    -1.795430764648     1.007825032230
         H           -1.303636091502    -1.812815694832    -0.955712764648     1.007825032230
         H           -2.428783091502     1.707771305168     1.248368235352     1.007825032230
         H           -3.686414091502     0.553325305168     0.759764235352     1.007825032230
         H           -2.919087091502     1.581993305168    -0.455082764648     1.007825032230
         H            1.889048908498     0.821880305168    -1.520713764648     1.007825032230
         H            1.975749908498     1.736897305168    -0.023335764648     1.007825032230
         H            3.312332908498    -0.992258694832    -0.492634764648     1.007825032230
         H            4.148201908498     0.576180305168    -0.478231764648     1.007825032230
         H            3.410014908498    -0.067334694832     1.003089235352     1.007825032230

  Nuclear repulsion =  393.875140817766635
  Reference energy  = -364.206877029581733

  ==> Basis Set <==

  Basis Set: AUG-CC-PVTZ
    Blend: AUG-CC-PVTZ
    Number of shells: 229
    Number of basis function: 667
    Number of Cartesian functions: 765
    Spherical Harmonics?: true
    Max angular momentum: 3

  ==> CGRSolver (by Rob Parrish) <==

   Number of roots    =         1
   Preconditioning    =    JACOBI
   Convergence cutoff =     1E-06
   Maximum iterations =       100

  ==> CPHFRHamiltonian (by Rob Parrish) <== 

  ==> MemDFJK: Density-Fitted J/K Matrices <==

    J tasked:                   Yes
    K tasked:                   Yes
    wK tasked:                   No
    OpenMP threads:               8
    Memory [MiB]:             22888
    Algorithm:                 Disk
    Schwarz Cutoff:           1E-12
    Mask sparsity (%):       6.8363
    Fitting Condition:        1E-10

   => Auxiliary Basis Set <=

  Basis Set: (AUG-CC-PVTZ AUX)
    Blend: AUG-CC-PVTZ-JKFIT
    Number of shells: 422
    Number of basis function: 1430
    Number of Cartesian functions: 1763
    Spherical Harmonics?: true
    Max angular momentum: 4

  ==> CPHF Iterations <==

  => Iterations <=

             Iter  Converged  Remaining    Residual
  CGR           1          0          1   1.135E-01
  CGR           2          0          1   3.379E-02
  CGR           3          0          1   1.238E-02
  CGR           4          0          1   3.325E-03
  CGR           5          0          1   1.248E-03
  CGR           6          0          1   3.731E-04
  CGR           7          0          1   1.215E-04
  CGR           8          0          1   5.349E-05
  CGR           9          0          1   1.992E-05
  CGR          10          0          1   6.090E-06
  CGR          11          0          1   1.862E-06
  CGR          12          1          0   8.110E-07

    CGRSolver converged.

	-----------------------------------------------------------
	 ==================> DF-MP2 Energies <==================== 
	-----------------------------------------------------------
	 Reference Energy          =    -364.2068770295817330 [Eh]
	 Singles Energy            =      -0.0000000000000000 [Eh]
	 Same-Spin Energy          =      -0.3743692943089845 [Eh]
	 Opposite-Spin Energy      =      -1.2723613633807691 [Eh]
	 Correlation Energy        =      -1.6467306576897536 [Eh]
	 Total Energy              =    -365.8536076872715057 [Eh]
	-----------------------------------------------------------
	 ================> DF-SCS-MP2 Energies <================== 
	-----------------------------------------------------------
	 SCS Same-Spin Scale       =       0.3333333333333333 [-]
	 SCS Opposite-Spin Scale   =       1.2000000000000000 [-]
	 SCS Same-Spin Energy      =      -0.1247897647696615 [Eh]
	 SCS Opposite-Spin Energy  =      -1.5268336360569228 [Eh]
	 SCS Correlation Energy    =      -1.6516234008265842 [Eh]
	 SCS Total Energy          =    -365.8585004304082986 [Eh]
	-----------------------------------------------------------



Properties will be evaluated at   0.000000,   0.000000,   0.000000 [a0]

Properties computed using the MP2 density matrix

  Nuclear Dipole Moment: [e a0]
     X:    -2.6140      Y:     2.4518      Z:    -2.5274

  Electronic Dipole Moment: [e a0]
     X:     2.1249      Y:    -1.4198      Z:     1.9091

  Dipole Moment: [e a0]
     X:    -0.4890      Y:     1.0320      Z:    -0.6184     Total:     1.2987

  Dipole Moment: [D]
     X:    -1.2429      Y:     2.6230      Z:    -1.5717     Total:     3.3008


*** tstop() called on node37.bme.utexas.edu at Tue Nov  3 15:08:15 2020
Module time:
	user time   =     993.45 seconds =      16.56 minutes
	system time =     141.14 seconds =       2.35 minutes
	total time  =        212 seconds =       3.53 minutes
Total time:
	user time   =    1322.82 seconds =      22.05 minutes
	system time =     216.66 seconds =       3.61 minutes
	total time  =        310 seconds =       5.17 minutes

    Psi4 stopped on: Tuesday, 03 November 2020 03:08PM
    Psi4 wall time for execution: 0:05:10.74

*** Psi4 exiting successfully. Buy a developer a beer!
