
    -----------------------------------------------------------------------
          Psi4: An Open-Source Ab Initio Electronic Structure Package
                               Psi4 1.3.2 release

                         Git: Rev {HEAD} ecbda83 


    R. M. Parrish, L. A. Burns, D. G. A. Smith, A. C. Simmonett,
    A. E. DePrince III, E. G. Hohenstein, U. Bozkaya, A. Yu. Sokolov,
    R. Di Remigio, R. M. Richard, J. F. Gonthier, A. M. James,
    H. R. McAlexander, A. Kumar, M. Saitow, X. Wang, B. P. Pritchard,
    P. Verma, H. F. Schaefer III, K. Patkowski, R. A. King, E. F. Valeev,
    F. A. Evangelista, J. M. Turney, T. D. Crawford, and C. D. Sherrill,
    J. Chem. Theory Comput. 13(7) pp 3185--3197 (2017).
    (doi: 10.1021/acs.jctc.7b00174)


                         Additional Contributions by
    P. Kraus, H. Kruse, M. H. Lechner, M. C. Schieber, R. A. Shaw,
    A. Alenaizan, R. Galvelis, Z. L. Glick, S. Lehtola, and J. P. Misiewicz

    -----------------------------------------------------------------------


    Psi4 started on: Tuesday, 03 November 2020 12:56PM

    Process ID: 34223
    Host:       node37.bme.utexas.edu
    PSIDATADIR: /home/xy3866/psi4conda/share/psi4
    Memory:     500.0 MiB
    Threads:    8
    
  ==> Input File <==

--------------------------------------------------------------------------
#psi4
#
memory 32 gb

molecule  {
0 1
  O        0.8686370    -1.1285810     0.6753960
  N       -0.3868592     0.5585530    -0.0383173
  C       -1.6800190    -0.0563620     0.2358630
  C       -2.0872990    -1.0630810    -0.8349870
  C       -2.7390930     1.0113430     0.4650240
  C        0.7808810    -0.0406060     0.0960010
  C        1.9924560     0.7166710    -0.4292430
  C        3.2969670     0.0166800    -0.0788280
  H       -1.4391942    -0.5776775     1.1663764
  H       -0.4432210     1.3965910    -0.7180680
  H       -3.0167340    -1.5709650    -0.5578120
  H       -2.2433890    -0.5581650    -1.7943680
  H       -1.3035910    -1.8142070    -0.9546500
  H       -2.4287380     1.7063800     1.2494310
  H       -3.6863690     0.5519340     0.7608270
  H       -2.9190420     1.5806020    -0.4540200
  H        1.8890940     0.8204890    -1.5196510
  H        1.9757950     1.7355060    -0.0222730
  H        3.3123780    -0.9936500    -0.4915720
  H        4.1482470     0.5747890    -0.4771690
  H        3.4100600    -0.0687260     1.0041520
units angstrom
no_reorient  #important for SAPT in psi4, default
symmetry c1  #important for SAPT in psi4, default
}

set PROPERTIES_ORIGIN ["COM"]
properties('MP2/aug-cc-pvtz', properties = ['dipole'])
--------------------------------------------------------------------------

  Memory set to  29.802 GiB by Python driver.
    SCF Algorithm Type (re)set to DF.

*** tstart() called on node37.bme.utexas.edu
*** at Tue Nov  3 12:56:31 2020

   => Loading Basis Set <=

    Name: AUG-CC-PVTZ
    Role: ORBITAL
    Keyword: BASIS
    atoms 1    entry O          line   327 file /home/xy3866/psi4conda/share/psi4/basis/aug-cc-pvtz.gbs 
    atoms 2    entry N          line   281 file /home/xy3866/psi4conda/share/psi4/basis/aug-cc-pvtz.gbs 
    atoms 3-8  entry C          line   235 file /home/xy3866/psi4conda/share/psi4/basis/aug-cc-pvtz.gbs 
    atoms 9-21 entry H          line    36 file /home/xy3866/psi4conda/share/psi4/basis/aug-cc-pvtz.gbs 


         ---------------------------------------------------------
                                   SCF
               by Justin Turney, Rob Parrish, Andy Simmonett
                          and Daniel G. A. Smith
                              RHF Reference
                        8 Threads,  30517 MiB Core
         ---------------------------------------------------------

  ==> Geometry <==

    Molecular point group: c1
    Full point group: C1

    Geometry (in Angstrom), charge = 0, multiplicity = 1:

       Center              X                  Y                   Z               Mass       
    ------------   -----------------  -----------------  -----------------  -----------------
         O            0.864491976282    -1.125021643149     0.667737198671    15.994914619570
         N           -0.391004223718     0.562112356851    -0.045976101329    14.003074004430
         C           -1.684164023718    -0.052802643149     0.228204198671    12.000000000000
         C           -2.091444023718    -1.059521643149    -0.842645801329    12.000000000000
         C           -2.743238023718     1.014902356851     0.457365198671    12.000000000000
         C            0.776735976282    -0.037046643149     0.088342198671    12.000000000000
         C            1.988310976282     0.720230356851    -0.436901801329    12.000000000000
         C            3.292821976282     0.020239356851    -0.086486801329    12.000000000000
         H           -1.443339223718    -0.574118143149     1.158717598671     1.007825032230
         H           -0.447366023718     1.400150356851    -0.725726801329     1.007825032230
         H           -3.020879023718    -1.567405643149    -0.565470801329     1.007825032230
         H           -2.247534023718    -0.554605643149    -1.802026801329     1.007825032230
         H           -1.307736023718    -1.810647643149    -0.962308801329     1.007825032230
         H           -2.432883023718     1.709939356851     1.241772198671     1.007825032230
         H           -3.690514023718     0.555493356851     0.753168198671     1.007825032230
         H           -2.923187023718     1.584161356851    -0.461678801329     1.007825032230
         H            1.884948976282     0.824048356851    -1.527309801329     1.007825032230
         H            1.971649976282     1.739065356851    -0.029931801329     1.007825032230
         H            3.308232976282    -0.990090643149    -0.499230801329     1.007825032230
         H            4.144101976282     0.578348356851    -0.484827801329     1.007825032230
         H            3.405914976282    -0.065166643149     0.996493198671     1.007825032230

  Running in c1 symmetry.

  Rotational constants: A =      0.15352  B =      0.03347  C =      0.03087 [cm^-1]
  Rotational constants: A =   4602.48654  B =   1003.39866  C =    925.47812 [MHz]
  Nuclear repulsion =  393.302234990524767

  Charge       = 0
  Multiplicity = 1
  Electrons    = 64
  Nalpha       = 32
  Nbeta        = 32

  ==> Algorithm <==

  SCF Algorithm Type is DF.
  DIIS enabled.
  MOM disabled.
  Fractional occupation disabled.
  Guess Type is SAD.
  Energy threshold   = 1.00e-10
  Density threshold  = 1.00e-10
  Integral threshold = 0.00e+00

  ==> Primary Basis <==

  Basis Set: AUG-CC-PVTZ
    Blend: AUG-CC-PVTZ
    Number of shells: 229
    Number of basis function: 667
    Number of Cartesian functions: 765
    Spherical Harmonics?: true
    Max angular momentum: 3

   => Loading Basis Set <=

    Name: (AUG-CC-PVTZ AUX)
    Role: JKFIT
    Keyword: DF_BASIS_SCF
    atoms 1    entry O          line   286 file /home/xy3866/psi4conda/share/psi4/basis/aug-cc-pvtz-jkfit.gbs 
    atoms 2    entry N          line   224 file /home/xy3866/psi4conda/share/psi4/basis/aug-cc-pvtz-jkfit.gbs 
    atoms 3-8  entry C          line   162 file /home/xy3866/psi4conda/share/psi4/basis/aug-cc-pvtz-jkfit.gbs 
    atoms 9-21 entry H          line    70 file /home/xy3866/psi4conda/share/psi4/basis/aug-cc-pvtz-jkfit.gbs 

  ==> Pre-Iterations <==

   -------------------------------------------------------
    Irrep   Nso     Nmo     Nalpha   Nbeta   Ndocc  Nsocc
   -------------------------------------------------------
     A        667     667       0       0       0       0
   -------------------------------------------------------
    Total     667     667      32      32      32       0
   -------------------------------------------------------

  ==> Integral Setup <==

  DFHelper Memory: AOs need 4.547 GiB; user supplied 22.352 GiB. Using in-core AOs.

  ==> MemDFJK: Density-Fitted J/K Matrices <==

    J tasked:                   Yes
    K tasked:                   Yes
    wK tasked:                   No
    OpenMP threads:               8
    Memory [MiB]:             22888
    Algorithm:                 Disk
    Schwarz Cutoff:           1E-12
    Mask sparsity (%):       6.8386
    Fitting Condition:        1E-10

   => Auxiliary Basis Set <=

  Basis Set: (AUG-CC-PVTZ AUX)
    Blend: AUG-CC-PVTZ-JKFIT
    Number of shells: 422
    Number of basis function: 1430
    Number of Cartesian functions: 1763
    Spherical Harmonics?: true
    Max angular momentum: 4

  Minimum eigenvalue in the overlap matrix is 3.0621813904E-06.
  Using Symmetric Orthogonalization.

  SCF Guess: Superposition of Atomic Densities via on-the-fly atomic UHF.

  ==> Iterations <==

                           Total Energy        Delta E     RMS |[F,P]|

   @DF-RHF iter SAD:  -363.51194944727774   -3.63512e+02   0.00000e+00 
   @DF-RHF iter   1:  -363.88863480347396   -3.76685e-01   1.18608e-03 DIIS
   @DF-RHF iter   2:  -364.16560866125610   -2.76974e-01   6.26460e-04 DIIS
   @DF-RHF iter   3:  -364.23507445978265   -6.94658e-02   1.38309e-04 DIIS
   @DF-RHF iter   4:  -364.23996139226313   -4.88693e-03   6.19551e-05 DIIS
   @DF-RHF iter   5:  -364.24093982079148   -9.78429e-04   9.99951e-06 DIIS
   @DF-RHF iter   6:  -364.24098865058426   -4.88298e-05   4.58371e-06 DIIS
   @DF-RHF iter   7:  -364.24099672716716   -8.07658e-06   1.56547e-06 DIIS
   @DF-RHF iter   8:  -364.24099835235944   -1.62519e-06   6.73942e-07 DIIS
   @DF-RHF iter   9:  -364.24099866410307   -3.11744e-07   2.04083e-07 DIIS
   @DF-RHF iter  10:  -364.24099869082636   -2.67233e-08   6.36617e-08 DIIS
   @DF-RHF iter  11:  -364.24099869324482   -2.41846e-09   1.77276e-08 DIIS
   @DF-RHF iter  12:  -364.24099869339079   -1.45974e-10   5.53135e-09 DIIS
   @DF-RHF iter  13:  -364.24099869340006   -9.26548e-12   1.64032e-09 DIIS
   @DF-RHF iter  14:  -364.24099869340245   -2.38742e-12   5.80301e-10 DIIS
   @DF-RHF iter  15:  -364.24099869340176    6.82121e-13   1.34748e-10 DIIS
   @DF-RHF iter  16:  -364.24099869340279   -1.02318e-12   4.27871e-11 DIIS
  Energy and wave function converged.


  ==> Post-Iterations <==

    Orbital Energies [Eh]
    ---------------------

    Doubly Occupied:                                                      

       1A    -20.504169     2A    -15.584358     3A    -11.337000  
       4A    -11.266862     5A    -11.239400     6A    -11.226426  
       7A    -11.215502     8A    -11.212373     9A     -1.368271  
      10A     -1.230916    11A     -1.068612    12A     -1.031488  
      13A     -0.941992    14A     -0.889116    15A     -0.814508  
      16A     -0.769666    17A     -0.681920    18A     -0.647942  
      19A     -0.636259    20A     -0.617794    21A     -0.589455  
      22A     -0.575444    23A     -0.552577    24A     -0.547180  
      25A     -0.527583    26A     -0.511653    27A     -0.507210  
      28A     -0.496801    29A     -0.487635    30A     -0.477559  
      31A     -0.414026    32A     -0.386120  

    Virtual:                                                              

      33A      0.023435    34A      0.031368    35A      0.035212  
      36A      0.038381    37A      0.048258    38A      0.050266  
      39A      0.050943    40A      0.058097    41A      0.060591  
      42A      0.068656    43A      0.074170    44A      0.076901  
      45A      0.080625    46A      0.104226    47A      0.110961  
      48A      0.116300    49A      0.120810    50A      0.122318  
      51A      0.126886    52A      0.127589    53A      0.133474  
      54A      0.136793    55A      0.140861    56A      0.142488  
      57A      0.145323    58A      0.145879    59A      0.149708  
      60A      0.161742    61A      0.165469    62A      0.170142  
      63A      0.176806    64A      0.180107    65A      0.186006  
      66A      0.193329    67A      0.205421    68A      0.208091  
      69A      0.211326    70A      0.228761    71A      0.229827  
      72A      0.236771    73A      0.244889    74A      0.248942  
      75A      0.251655    76A      0.263719    77A      0.267713  
      78A      0.272839    79A      0.276020    80A      0.281922  
      81A      0.293047    82A      0.296810    83A      0.299534  
      84A      0.303940    85A      0.309160    86A      0.318141  
      87A      0.321747    88A      0.326148    89A      0.330577  
      90A      0.338676    91A      0.343835    92A      0.345945  
      93A      0.348189    94A      0.357360    95A      0.358023  
      96A      0.361529    97A      0.364773    98A      0.371119  
      99A      0.373043   100A      0.373530   101A      0.381953  
     102A      0.391517   103A      0.394842   104A      0.398138  
     105A      0.405113   106A      0.409005   107A      0.410500  
     108A      0.417140   109A      0.419521   110A      0.420738  
     111A      0.429852   112A      0.433202   113A      0.436221  
     114A      0.442913   115A      0.448624   116A      0.449320  
     117A      0.455973   118A      0.462001   119A      0.463837  
     120A      0.465580   121A      0.469201   122A      0.473275  
     123A      0.478379   124A      0.484904   125A      0.489109  
     126A      0.490774   127A      0.495334   128A      0.500167  
     129A      0.503882   130A      0.508397   131A      0.514117  
     132A      0.521911   133A      0.524377   134A      0.529159  
     135A      0.532879   136A      0.539416   137A      0.542185  
     138A      0.544382   139A      0.549029   140A      0.559686  
     141A      0.562563   142A      0.565829   143A      0.579413  
     144A      0.582743   145A      0.588441   146A      0.595905  
     147A      0.597222   148A      0.603474   149A      0.607127  
     150A      0.611377   151A      0.616345   152A      0.626786  
     153A      0.636235   154A      0.645041   155A      0.650666  
     156A      0.658909   157A      0.665299   158A      0.678635  
     159A      0.689116   160A      0.692121   161A      0.692407  
     162A      0.698173   163A      0.720503   164A      0.725867  
     165A      0.739382   166A      0.748500   167A      0.758078  
     168A      0.762547   169A      0.766017   170A      0.776309  
     171A      0.789702   172A      0.795479   173A      0.807668  
     174A      0.808634   175A      0.817091   176A      0.821406  
     177A      0.826837   178A      0.832918   179A      0.841728  
     180A      0.847739   181A      0.850585   182A      0.851770  
     183A      0.866409   184A      0.872244   185A      0.879670  
     186A      0.881671   187A      0.883881   188A      0.888305  
     189A      0.895664   190A      0.901069   191A      0.905084  
     192A      0.918004   193A      0.926802   194A      0.931394  
     195A      0.932330   196A      0.938820   197A      0.939995  
     198A      0.943785   199A      0.946628   200A      0.957701  
     201A      0.959400   202A      0.969130   203A      0.971847  
     204A      0.980050   205A      0.989341   206A      0.992672  
     207A      1.002553   208A      1.006159   209A      1.011978  
     210A      1.013678   211A      1.020910   212A      1.029789  
     213A      1.035680   214A      1.042833   215A      1.051120  
     216A      1.052466   217A      1.059479   218A      1.070916  
     219A      1.074370   220A      1.079604   221A      1.089592  
     222A      1.099703   223A      1.106952   224A      1.111099  
     225A      1.117745   226A      1.120073   227A      1.126804  
     228A      1.131721   229A      1.132824   230A      1.148456  
     231A      1.151554   232A      1.159426   233A      1.168488  
     234A      1.171727   235A      1.173149   236A      1.181500  
     237A      1.184979   238A      1.190692   239A      1.205050  
     240A      1.209139   241A      1.215239   242A      1.224004  
     243A      1.225376   244A      1.237067   245A      1.237489  
     246A      1.243534   247A      1.254371   248A      1.260312  
     249A      1.268615   250A      1.274621   251A      1.282235  
     252A      1.290712   253A      1.301299   254A      1.307281  
     255A      1.314130   256A      1.324260   257A      1.329056  
     258A      1.333749   259A      1.341491   260A      1.356684  
     261A      1.362076   262A      1.368498   263A      1.372626  
     264A      1.387647   265A      1.397671   266A      1.404885  
     267A      1.411380   268A      1.419030   269A      1.430044  
     270A      1.434938   271A      1.437920   272A      1.445076  
     273A      1.447897   274A      1.457940   275A      1.469351  
     276A      1.471132   277A      1.482548   278A      1.488263  
     279A      1.493653   280A      1.507399   281A      1.511904  
     282A      1.518306   283A      1.528952   284A      1.547706  
     285A      1.551172   286A      1.562575   287A      1.566832  
     288A      1.589598   289A      1.594406   290A      1.603579  
     291A      1.608549   292A      1.623995   293A      1.631635  
     294A      1.634069   295A      1.640268   296A      1.653357  
     297A      1.657448   298A      1.662807   299A      1.671948  
     300A      1.681778   301A      1.687839   302A      1.692529  
     303A      1.701641   304A      1.706734   305A      1.709646  
     306A      1.713438   307A      1.726290   308A      1.729901  
     309A      1.736959   310A      1.742819   311A      1.743731  
     312A      1.747340   313A      1.754605   314A      1.770108  
     315A      1.771720   316A      1.781554   317A      1.782783  
     318A      1.791365   319A      1.806793   320A      1.812861  
     321A      1.823486   322A      1.829900   323A      1.843109  
     324A      1.852568   325A      1.859270   326A      1.869969  
     327A      1.877504   328A      1.890293   329A      1.896725  
     330A      1.901831   331A      1.914426   332A      1.923067  
     333A      1.933019   334A      1.937602   335A      1.949552  
     336A      1.957603   337A      1.960633   338A      1.972661  
     339A      1.983914   340A      1.989925   341A      1.997256  
     342A      2.008019   343A      2.014802   344A      2.017213  
     345A      2.028001   346A      2.044662   347A      2.056707  
     348A      2.060238   349A      2.063181   350A      2.082651  
     351A      2.097242   352A      2.103433   353A      2.110850  
     354A      2.125572   355A      2.147043   356A      2.151624  
     357A      2.166191   358A      2.186891   359A      2.193444  
     360A      2.201442   361A      2.214844   362A      2.229974  
     363A      2.236561   364A      2.249582   365A      2.255092  
     366A      2.261065   367A      2.264775   368A      2.273577  
     369A      2.282717   370A      2.289846   371A      2.296806  
     372A      2.302113   373A      2.307783   374A      2.317655  
     375A      2.343239   376A      2.364385   377A      2.371592  
     378A      2.385979   379A      2.391636   380A      2.408443  
     381A      2.417788   382A      2.424538   383A      2.440747  
     384A      2.457942   385A      2.468140   386A      2.496556  
     387A      2.513757   388A      2.517352   389A      2.535207  
     390A      2.556563   391A      2.570066   392A      2.573174  
     393A      2.607960   394A      2.619848   395A      2.636134  
     396A      2.655024   397A      2.673252   398A      2.695485  
     399A      2.701583   400A      2.732871   401A      2.747479  
     402A      2.777562   403A      2.800692   404A      2.824278  
     405A      2.843599   406A      2.858720   407A      2.882801  
     408A      2.906687   409A      2.955799   410A      2.980020  
     411A      2.985462   412A      3.020763   413A      3.040804  
     414A      3.056507   415A      3.088695   416A      3.136816  
     417A      3.144570   418A      3.183147   419A      3.249088  
     420A      3.257724   421A      3.299135   422A      3.332980  
     423A      3.382659   424A      3.397460   425A      3.407395  
     426A      3.417898   427A      3.438490   428A      3.461905  
     429A      3.472143   430A      3.475331   431A      3.497003  
     432A      3.506853   433A      3.524824   434A      3.546262  
     435A      3.551292   436A      3.554153   437A      3.560824  
     438A      3.593437   439A      3.608238   440A      3.619219  
     441A      3.633524   442A      3.647354   443A      3.659642  
     444A      3.674207   445A      3.684686   446A      3.688410  
     447A      3.700871   448A      3.713423   449A      3.724341  
     450A      3.738622   451A      3.742773   452A      3.757557  
     453A      3.761690   454A      3.778874   455A      3.787968  
     456A      3.793155   457A      3.797983   458A      3.811814  
     459A      3.813372   460A      3.834781   461A      3.848764  
     462A      3.861379   463A      3.866234   464A      3.889682  
     465A      3.894975   466A      3.904073   467A      3.908149  
     468A      3.924013   469A      3.932787   470A      3.948098  
     471A      3.953980   472A      3.961542   473A      3.977954  
     474A      3.986208   475A      4.004768   476A      4.007412  
     477A      4.009122   478A      4.017373   479A      4.026547  
     480A      4.026671   481A      4.042051   482A      4.045078  
     483A      4.071449   484A      4.080399   485A      4.104988  
     486A      4.114164   487A      4.134265   488A      4.140290  
     489A      4.155470   490A      4.160633   491A      4.174662  
     492A      4.190912   493A      4.198842   494A      4.204658  
     495A      4.216211   496A      4.227266   497A      4.233519  
     498A      4.240502   499A      4.247011   500A      4.258388  
     501A      4.267211   502A      4.282143   503A      4.293565  
     504A      4.303293   505A      4.324534   506A      4.328759  
     507A      4.344391   508A      4.355781   509A      4.371900  
     510A      4.393625   511A      4.402311   512A      4.434968  
     513A      4.440116   514A      4.456788   515A      4.467827  
     516A      4.477866   517A      4.503059   518A      4.505939  
     519A      4.530000   520A      4.534310   521A      4.557580  
     522A      4.564668   523A      4.591220   524A      4.609666  
     525A      4.616228   526A      4.628354   527A      4.644083  
     528A      4.654650   529A      4.673129   530A      4.688315  
     531A      4.695582   532A      4.711258   533A      4.724415  
     534A      4.742295   535A      4.766786   536A      4.775333  
     537A      4.788831   538A      4.803771   539A      4.820576  
     540A      4.827684   541A      4.841555   542A      4.862290  
     543A      4.867805   544A      4.880625   545A      4.885829  
     546A      4.893209   547A      4.895467   548A      4.915136  
     549A      4.919794   550A      4.940352   551A      4.953650  
     552A      4.967880   553A      4.993256   554A      5.004853  
     555A      5.013324   556A      5.056406   557A      5.069939  
     558A      5.081135   559A      5.098667   560A      5.110614  
     561A      5.124157   562A      5.142271   563A      5.153285  
     564A      5.167989   565A      5.172504   566A      5.197029  
     567A      5.200309   568A      5.205052   569A      5.225099  
     570A      5.250639   571A      5.262603   572A      5.264781  
     573A      5.293338   574A      5.298887   575A      5.327335  
     576A      5.343112   577A      5.361869   578A      5.370886  
     579A      5.385666   580A      5.406298   581A      5.408594  
     582A      5.424234   583A      5.429976   584A      5.437548  
     585A      5.466285   586A      5.471089   587A      5.481127  
     588A      5.488688   589A      5.523532   590A      5.527816  
     591A      5.536495   592A      5.557098   593A      5.598105  
     594A      5.612677   595A      5.626931   596A      5.646396  
     597A      5.661659   598A      5.675813   599A      5.708499  
     600A      5.727840   601A      5.741625   602A      5.766919  
     603A      5.774330   604A      5.796215   605A      5.826608  
     606A      5.847285   607A      5.876197   608A      5.882533  
     609A      5.906720   610A      5.940880   611A      5.967303  
     612A      5.973435   613A      5.997103   614A      6.027623  
     615A      6.053603   616A      6.060633   617A      6.093054  
     618A      6.103649   619A      6.150532   620A      6.182870  
     621A      6.194696   622A      6.207109   623A      6.223219  
     624A      6.233205   625A      6.243726   626A      6.257625  
     627A      6.298471   628A      6.318014   629A      6.333499  
     630A      6.415129   631A      6.467875   632A      6.498874  
     633A      6.526725   634A      6.607354   635A      6.672517  
     636A      6.721432   637A      6.750103   638A      6.814372  
     639A      6.819216   640A      6.834083   641A      6.857899  
     642A      6.880601   643A      6.895589   644A      6.901273  
     645A      6.941406   646A      6.973307   647A      7.016621  
     648A      7.107832   649A      7.148464   650A      7.275344  
     651A      7.291446   652A      7.517932   653A      7.543499  
     654A      7.643729   655A      7.717060   656A      7.725174  
     657A      7.792002   658A      8.026843   659A      8.121664  
     660A     15.756976   661A     17.203270   662A     17.873909  
     663A     18.172777   664A     18.406298   665A     18.940651  
     666A     19.825507   667A     21.338554  

    Final Occupation by Irrep:
              A 
    DOCC [    32 ]

  @DF-RHF Final Energy:  -364.24099869340279

   => Energetics <=

    Nuclear Repulsion Energy =            393.3022349905247665
    One-Electron Energy =               -1274.3708335351032019
    Two-Electron Energy =                 516.8275998511757052
    Total Energy =                       -364.2409986934027302

Computation Completed

*** tstop() called on node37.bme.utexas.edu at Tue Nov  3 12:58:27 2020
Module time:
	user time   =     402.30 seconds =       6.71 minutes
	system time =      83.90 seconds =       1.40 minutes
	total time  =        116 seconds =       1.93 minutes
Total time:
	user time   =     402.30 seconds =       6.71 minutes
	system time =      83.90 seconds =       1.40 minutes
	total time  =        116 seconds =       1.93 minutes
   => Loading Basis Set <=

    Name: (AUG-CC-PVTZ AUX)
    Role: RIFIT
    Keyword: DF_BASIS_MP2
    atoms 1    entry O          line   264 file /home/xy3866/psi4conda/share/psi4/basis/aug-cc-pvtz-ri.gbs 
    atoms 2    entry N          line   206 file /home/xy3866/psi4conda/share/psi4/basis/aug-cc-pvtz-ri.gbs 
    atoms 3-8  entry C          line   148 file /home/xy3866/psi4conda/share/psi4/basis/aug-cc-pvtz-ri.gbs 
    atoms 9-21 entry H          line    30 file /home/xy3866/psi4conda/share/psi4/basis/aug-cc-pvtz-ri.gbs 


*** tstart() called on node37.bme.utexas.edu
*** at Tue Nov  3 12:58:27 2020


  //>>>>>>>>>>>>>>>>>>>>>>>>>>>>>>>>>>>//
  //               DFMP2               //
  //<<<<<<<<<<<<<<<<<<<<<<<<<<<<<<<<<<<//

	 --------------------------------------------------------
	                          DF-MP2                         
	      2nd-Order Density-Fitted Moller-Plesset Theory     
	              RMP2 Wavefunction,   8 Threads             
	                                                         
	        Rob Parrish, Justin Turney, Andy Simmonett,      
	           Ed Hohenstein, and C. David Sherrill          
	 --------------------------------------------------------

   => Auxiliary Basis Set <=

  Basis Set: (AUG-CC-PVTZ AUX)
    Blend: AUG-CC-PVTZ-RI
    Number of shells: 406
    Number of basis function: 1446
    Number of Cartesian functions: 1803
    Spherical Harmonics?: true
    Max angular momentum: 4

	 --------------------------------------------------------
	                 NBF =   667, NAUX =  1446
	 --------------------------------------------------------
	   CLASS    FOCC     OCC    AOCC    AVIR     VIR    FVIR
	   PAIRS       0      32      32     635     635       0
	 --------------------------------------------------------

  DFHelper Memory: AOs need 4.547 GiB; user supplied 22.352 GiB. Using in-core AOs.


         ------------------------------------------------------------
                                     CPHF                           
                                  Rob Parrish                       
         ------------------------------------------------------------

  ==> Geometry <==

    Molecular point group: c1
    Full point group: C1

    Geometry (in Angstrom), charge = 0, multiplicity = 1:

       Center              X                  Y                   Z               Mass       
    ------------   -----------------  -----------------  -----------------  -----------------
         O            0.864491976282    -1.125021643149     0.667737198671    15.994914619570
         N           -0.391004223718     0.562112356851    -0.045976101329    14.003074004430
         C           -1.684164023718    -0.052802643149     0.228204198671    12.000000000000
         C           -2.091444023718    -1.059521643149    -0.842645801329    12.000000000000
         C           -2.743238023718     1.014902356851     0.457365198671    12.000000000000
         C            0.776735976282    -0.037046643149     0.088342198671    12.000000000000
         C            1.988310976282     0.720230356851    -0.436901801329    12.000000000000
         C            3.292821976282     0.020239356851    -0.086486801329    12.000000000000
         H           -1.443339223718    -0.574118143149     1.158717598671     1.007825032230
         H           -0.447366023718     1.400150356851    -0.725726801329     1.007825032230
         H           -3.020879023718    -1.567405643149    -0.565470801329     1.007825032230
         H           -2.247534023718    -0.554605643149    -1.802026801329     1.007825032230
         H           -1.307736023718    -1.810647643149    -0.962308801329     1.007825032230
         H           -2.432883023718     1.709939356851     1.241772198671     1.007825032230
         H           -3.690514023718     0.555493356851     0.753168198671     1.007825032230
         H           -2.923187023718     1.584161356851    -0.461678801329     1.007825032230
         H            1.884948976282     0.824048356851    -1.527309801329     1.007825032230
         H            1.971649976282     1.739065356851    -0.029931801329     1.007825032230
         H            3.308232976282    -0.990090643149    -0.499230801329     1.007825032230
         H            4.144101976282     0.578348356851    -0.484827801329     1.007825032230
         H            3.405914976282    -0.065166643149     0.996493198671     1.007825032230

  Nuclear repulsion =  393.302234990524767
  Reference energy  = -364.240998693402787

  ==> Basis Set <==

  Basis Set: AUG-CC-PVTZ
    Blend: AUG-CC-PVTZ
    Number of shells: 229
    Number of basis function: 667
    Number of Cartesian functions: 765
    Spherical Harmonics?: true
    Max angular momentum: 3

  ==> CGRSolver (by Rob Parrish) <==

   Number of roots    =         1
   Preconditioning    =    JACOBI
   Convergence cutoff =     1E-06
   Maximum iterations =       100

  ==> CPHFRHamiltonian (by Rob Parrish) <== 

  ==> MemDFJK: Density-Fitted J/K Matrices <==

    J tasked:                   Yes
    K tasked:                   Yes
    wK tasked:                   No
    OpenMP threads:               8
    Memory [MiB]:             22888
    Algorithm:                 Disk
    Schwarz Cutoff:           1E-12
    Mask sparsity (%):       6.8386
    Fitting Condition:        1E-10

   => Auxiliary Basis Set <=

  Basis Set: (AUG-CC-PVTZ AUX)
    Blend: AUG-CC-PVTZ-JKFIT
    Number of shells: 422
    Number of basis function: 1430
    Number of Cartesian functions: 1763
    Spherical Harmonics?: true
    Max angular momentum: 4

  ==> CPHF Iterations <==

  => Iterations <=

             Iter  Converged  Remaining    Residual
  CGR           1          0          1   1.151E-01
  CGR           2          0          1   3.359E-02
  CGR           3          0          1   1.223E-02
  CGR           4          0          1   3.211E-03
  CGR           5          0          1   1.200E-03
  CGR           6          0          1   3.951E-04
  CGR           7          0          1   1.394E-04
  CGR           8          0          1   5.900E-05
  CGR           9          0          1   2.050E-05
  CGR          10          0          1   6.107E-06
  CGR          11          0          1   2.002E-06
  CGR          12          1          0   8.796E-07

    CGRSolver converged.

	-----------------------------------------------------------
	 ==================> DF-MP2 Energies <==================== 
	-----------------------------------------------------------
	 Reference Energy          =    -364.2409986934027870 [Eh]
	 Singles Energy            =      -0.0000000000000000 [Eh]
	 Same-Spin Energy          =      -0.3762416642744503 [Eh]
	 Opposite-Spin Energy      =      -1.2758073507071845 [Eh]
	 Correlation Energy        =      -1.6520490149816349 [Eh]
	 Total Energy              =    -365.8930477083844153 [Eh]
	-----------------------------------------------------------
	 ================> DF-SCS-MP2 Energies <================== 
	-----------------------------------------------------------
	 SCS Same-Spin Scale       =       0.3333333333333333 [-]
	 SCS Opposite-Spin Scale   =       1.2000000000000000 [-]
	 SCS Same-Spin Energy      =      -0.1254138880914834 [Eh]
	 SCS Opposite-Spin Energy  =      -1.5309688208486214 [Eh]
	 SCS Correlation Energy    =      -1.6563827089401049 [Eh]
	 SCS Total Energy          =    -365.8973814023428872 [Eh]
	-----------------------------------------------------------



Properties will be evaluated at  -0.000000,   0.000000,   0.000000 [a0]

Properties computed using the MP2 density matrix

  Nuclear Dipole Moment: [e a0]
     X:    -2.6183      Y:     2.6452      Z:    -2.7232

  Electronic Dipole Moment: [e a0]
     X:     2.0205      Y:    -1.5377      Z:     2.0339

  Dipole Moment: [e a0]
     X:    -0.5978      Y:     1.1076      Z:    -0.6893     Total:     1.4350

  Dipole Moment: [D]
     X:    -1.5195      Y:     2.8151      Z:    -1.7520     Total:     3.6474


*** tstop() called on node37.bme.utexas.edu at Tue Nov  3 13:02:31 2020
Module time:
	user time   =    1163.67 seconds =      19.39 minutes
	system time =     168.74 seconds =       2.81 minutes
	total time  =        244 seconds =       4.07 minutes
Total time:
	user time   =    1566.76 seconds =      26.11 minutes
	system time =     252.70 seconds =       4.21 minutes
	total time  =        360 seconds =       6.00 minutes

    Psi4 stopped on: Tuesday, 03 November 2020 01:02PM
    Psi4 wall time for execution: 0:06:00.48

*** Psi4 exiting successfully. Buy a developer a beer!
