
    -----------------------------------------------------------------------
          Psi4: An Open-Source Ab Initio Electronic Structure Package
                               Psi4 1.3.2 release

                         Git: Rev {HEAD} ecbda83 


    R. M. Parrish, L. A. Burns, D. G. A. Smith, A. C. Simmonett,
    A. E. DePrince III, E. G. Hohenstein, U. Bozkaya, A. Yu. Sokolov,
    R. Di Remigio, R. M. Richard, J. F. Gonthier, A. M. James,
    H. R. McAlexander, A. Kumar, M. Saitow, X. Wang, B. P. Pritchard,
    P. Verma, H. F. Schaefer III, K. Patkowski, R. A. King, E. F. Valeev,
    F. A. Evangelista, J. M. Turney, T. D. Crawford, and C. D. Sherrill,
    J. Chem. Theory Comput. 13(7) pp 3185--3197 (2017).
    (doi: 10.1021/acs.jctc.7b00174)


                         Additional Contributions by
    P. Kraus, H. Kruse, M. H. Lechner, M. C. Schieber, R. A. Shaw,
    A. Alenaizan, R. Galvelis, Z. L. Glick, S. Lehtola, and J. P. Misiewicz

    -----------------------------------------------------------------------


    Psi4 started on: Tuesday, 03 November 2020 10:36AM

    Process ID: 12475
    Host:       node37.bme.utexas.edu
    PSIDATADIR: /home/xy3866/psi4conda/share/psi4
    Memory:     500.0 MiB
    Threads:    8
    
  ==> Input File <==

--------------------------------------------------------------------------
#psi4
#
memory 32 gb

molecule  {
0 1
  O        0.9113620    -1.1273677     0.6695975
  N       -0.3938395     0.6246287    -0.1233827
  C       -1.6800190    -0.0563620     0.2358630
  C       -2.0872990    -1.0630810    -0.8349870
  C       -2.7390930     1.0113430     0.4650240
  C        0.7808810    -0.0406060     0.0960010
  C        1.9924560     0.7166710    -0.4292430
  C        3.2969670     0.0166800    -0.0788280
  H       -1.4931140    -0.5968520     1.1678280
  H       -0.4432210     1.3965910    -0.7180680
  H       -3.0167340    -1.5709650    -0.5578120
  H       -2.2433890    -0.5581650    -1.7943680
  H       -1.3035910    -1.8142070    -0.9546500
  H       -2.4287380     1.7063800     1.2494310
  H       -3.6863690     0.5519340     0.7608270
  H       -2.9190420     1.5806020    -0.4540200
  H        1.8890940     0.8204890    -1.5196510
  H        1.9757950     1.7355060    -0.0222730
  H        3.3123780    -0.9936500    -0.4915720
  H        4.1482470     0.5747890    -0.4771690
  H        3.4100600    -0.0687260     1.0041520
units angstrom
no_reorient  #important for SAPT in psi4, default
symmetry c1  #important for SAPT in psi4, default
}

set PROPERTIES_ORIGIN ["COM"]
properties('MP2/aug-cc-pvtz', properties = ['dipole'])
--------------------------------------------------------------------------

  Memory set to  29.802 GiB by Python driver.
    SCF Algorithm Type (re)set to DF.

*** tstart() called on node37.bme.utexas.edu
*** at Tue Nov  3 10:36:45 2020

   => Loading Basis Set <=

    Name: AUG-CC-PVTZ
    Role: ORBITAL
    Keyword: BASIS
    atoms 1    entry O          line   327 file /home/xy3866/psi4conda/share/psi4/basis/aug-cc-pvtz.gbs 
    atoms 2    entry N          line   281 file /home/xy3866/psi4conda/share/psi4/basis/aug-cc-pvtz.gbs 
    atoms 3-8  entry C          line   235 file /home/xy3866/psi4conda/share/psi4/basis/aug-cc-pvtz.gbs 
    atoms 9-21 entry H          line    36 file /home/xy3866/psi4conda/share/psi4/basis/aug-cc-pvtz.gbs 


         ---------------------------------------------------------
                                   SCF
               by Justin Turney, Rob Parrish, Andy Simmonett
                          and Daniel G. A. Smith
                              RHF Reference
                        8 Threads,  30517 MiB Core
         ---------------------------------------------------------

  ==> Geometry <==

    Molecular point group: c1
    Full point group: C1

    Geometry (in Angstrom), charge = 0, multiplicity = 1:

       Center              X                  Y                   Z               Mass       
    ------------   -----------------  -----------------  -----------------  -----------------
         O            0.902601019154    -1.131847850575     0.673080869228    15.994914619570
         N           -0.402600480846     0.620148549425    -0.119899330772    14.003074004430
         C           -1.688779980846    -0.060842150575     0.239346369228    12.000000000000
         C           -2.096059980846    -1.067561150575    -0.831503630772    12.000000000000
         C           -2.747853980846     1.006862849425     0.468507369228    12.000000000000
         C            0.772120019154    -0.045086150575     0.099484369228    12.000000000000
         C            1.983695019154     0.712190849425    -0.425759630772    12.000000000000
         C            3.288206019154     0.012199849425    -0.075344630772    12.000000000000
         H           -1.501874980846    -0.601332150575     1.171311369228     1.007825032230
         H           -0.451981980846     1.392110849425    -0.714584630772     1.007825032230
         H           -3.025494980846    -1.575445150575    -0.554328630772     1.007825032230
         H           -2.252149980846    -0.562645150575    -1.790884630772     1.007825032230
         H           -1.312351980846    -1.818687150575    -0.951166630772     1.007825032230
         H           -2.437498980846     1.701899849425     1.252914369228     1.007825032230
         H           -3.695129980846     0.547453849425     0.764310369228     1.007825032230
         H           -2.927802980846     1.576121849425    -0.450536630772     1.007825032230
         H            1.880333019154     0.816008849425    -1.516167630772     1.007825032230
         H            1.967034019154     1.731025849425    -0.018789630772     1.007825032230
         H            3.303617019154    -0.998130150575    -0.488088630772     1.007825032230
         H            4.139486019154     0.570308849425    -0.473685630772     1.007825032230
         H            3.401299019154    -0.073206150575     1.007635369228     1.007825032230

  Running in c1 symmetry.

  Rotational constants: A =      0.15196  B =      0.03336  C =      0.03073 [cm^-1]
  Rotational constants: A =   4555.57542  B =   1000.17121  C =    921.37241 [MHz]
  Nuclear repulsion =  391.835701260645124

  Charge       = 0
  Multiplicity = 1
  Electrons    = 64
  Nalpha       = 32
  Nbeta        = 32

  ==> Algorithm <==

  SCF Algorithm Type is DF.
  DIIS enabled.
  MOM disabled.
  Fractional occupation disabled.
  Guess Type is SAD.
  Energy threshold   = 1.00e-10
  Density threshold  = 1.00e-10
  Integral threshold = 0.00e+00

  ==> Primary Basis <==

  Basis Set: AUG-CC-PVTZ
    Blend: AUG-CC-PVTZ
    Number of shells: 229
    Number of basis function: 667
    Number of Cartesian functions: 765
    Spherical Harmonics?: true
    Max angular momentum: 3

   => Loading Basis Set <=

    Name: (AUG-CC-PVTZ AUX)
    Role: JKFIT
    Keyword: DF_BASIS_SCF
    atoms 1    entry O          line   286 file /home/xy3866/psi4conda/share/psi4/basis/aug-cc-pvtz-jkfit.gbs 
    atoms 2    entry N          line   224 file /home/xy3866/psi4conda/share/psi4/basis/aug-cc-pvtz-jkfit.gbs 
    atoms 3-8  entry C          line   162 file /home/xy3866/psi4conda/share/psi4/basis/aug-cc-pvtz-jkfit.gbs 
    atoms 9-21 entry H          line    70 file /home/xy3866/psi4conda/share/psi4/basis/aug-cc-pvtz-jkfit.gbs 

  ==> Pre-Iterations <==

   -------------------------------------------------------
    Irrep   Nso     Nmo     Nalpha   Nbeta   Ndocc  Nsocc
   -------------------------------------------------------
     A        667     667       0       0       0       0
   -------------------------------------------------------
    Total     667     667      32      32      32       0
   -------------------------------------------------------

  ==> Integral Setup <==

  DFHelper Memory: AOs need 4.546 GiB; user supplied 22.352 GiB. Using in-core AOs.

  ==> MemDFJK: Density-Fitted J/K Matrices <==

    J tasked:                   Yes
    K tasked:                   Yes
    wK tasked:                   No
    OpenMP threads:               8
    Memory [MiB]:             22888
    Algorithm:                 Disk
    Schwarz Cutoff:           1E-12
    Mask sparsity (%):       6.8655
    Fitting Condition:        1E-10

   => Auxiliary Basis Set <=

  Basis Set: (AUG-CC-PVTZ AUX)
    Blend: AUG-CC-PVTZ-JKFIT
    Number of shells: 422
    Number of basis function: 1430
    Number of Cartesian functions: 1763
    Spherical Harmonics?: true
    Max angular momentum: 4

  Minimum eigenvalue in the overlap matrix is 3.1937848720E-06.
  Using Symmetric Orthogonalization.

  SCF Guess: Superposition of Atomic Densities via on-the-fly atomic UHF.

  ==> Iterations <==

                           Total Energy        Delta E     RMS |[F,P]|

   @DF-RHF iter SAD:  -363.40480504401108   -3.63405e+02   0.00000e+00 
   @DF-RHF iter   1:  -363.90074654819335   -4.95942e-01   1.17939e-03 DIIS
   @DF-RHF iter   2:  -364.17413437768141   -2.73388e-01   6.12291e-04 DIIS
   @DF-RHF iter   3:  -364.24043325980801   -6.62989e-02   1.37237e-04 DIIS
   @DF-RHF iter   4:  -364.24517826646604   -4.74501e-03   6.23757e-05 DIIS
   @DF-RHF iter   5:  -364.24614823711755   -9.69971e-04   9.58699e-06 DIIS
   @DF-RHF iter   6:  -364.24619407931772   -4.58422e-05   4.30758e-06 DIIS
   @DF-RHF iter   7:  -364.24620142227820   -7.34296e-06   1.52908e-06 DIIS
   @DF-RHF iter   8:  -364.24620296374968   -1.54147e-06   6.64571e-07 DIIS
   @DF-RHF iter   9:  -364.24620327104935   -3.07300e-07   2.01673e-07 DIIS
   @DF-RHF iter  10:  -364.24620329718647   -2.61371e-08   6.10842e-08 DIIS
   @DF-RHF iter  11:  -364.24620329931213   -2.12566e-09   1.69633e-08 DIIS
   @DF-RHF iter  12:  -364.24620329943315   -1.21020e-10   5.03328e-09 DIIS
   @DF-RHF iter  13:  -364.24620329944548   -1.23350e-11   1.54731e-09 DIIS
   @DF-RHF iter  14:  -364.24620329944810   -2.61480e-12   5.34274e-10 DIIS
   @DF-RHF iter  15:  -364.24620329944435    3.75167e-12   1.30806e-10 DIIS
   @DF-RHF iter  16:  -364.24620329944941   -5.05906e-12   3.95688e-11 DIIS
  Energy and wave function converged.


  ==> Post-Iterations <==

    Orbital Energies [Eh]
    ---------------------

    Doubly Occupied:                                                      

       1A    -20.515795     2A    -15.577918     3A    -11.345423  
       4A    -11.269937     5A    -11.235334     6A    -11.224933  
       7A    -11.215195     8A    -11.210342     9A     -1.366224  
      10A     -1.229309    11A     -1.065711    12A     -1.029351  
      13A     -0.941485    14A     -0.884582    15A     -0.807076  
      16A     -0.787279    17A     -0.680948    18A     -0.653513  
      19A     -0.633518    20A     -0.614051    21A     -0.595827  
      22A     -0.580072    23A     -0.548500    24A     -0.546909  
      25A     -0.526187    26A     -0.510239    27A     -0.504401  
      28A     -0.495877    29A     -0.488965    30A     -0.478451  
      31A     -0.415240    32A     -0.391174  

    Virtual:                                                              

      33A      0.023894    34A      0.031555    35A      0.035510  
      36A      0.038421    37A      0.048214    38A      0.050330  
      39A      0.050893    40A      0.058074    41A      0.060265  
      42A      0.068658    43A      0.073990    44A      0.076938  
      45A      0.080805    46A      0.104514    47A      0.111890  
      48A      0.116176    49A      0.121065    50A      0.122861  
      51A      0.126803    52A      0.127522    53A      0.134037  
      54A      0.137161    55A      0.140814    56A      0.142677  
      57A      0.144539    58A      0.145852    59A      0.149610  
      60A      0.161248    61A      0.166307    62A      0.170789  
      63A      0.177116    64A      0.180017    65A      0.185462  
      66A      0.191069    67A      0.206020    68A      0.207670  
      69A      0.211623    70A      0.229242    71A      0.230744  
      72A      0.236457    73A      0.244395    74A      0.249318  
      75A      0.252352    76A      0.265222    77A      0.267090  
      78A      0.271787    79A      0.275034    80A      0.282271  
      81A      0.291327    82A      0.296661    83A      0.300191  
      84A      0.304798    85A      0.311133    86A      0.318638  
      87A      0.321926    88A      0.327581    89A      0.330494  
      90A      0.340297    91A      0.342503    92A      0.344766  
      93A      0.348256    94A      0.356939    95A      0.359314  
      96A      0.361925    97A      0.365082    98A      0.372334  
      99A      0.373648   100A      0.374266   101A      0.382872  
     102A      0.388934   103A      0.395781   104A      0.398785  
     105A      0.406029   106A      0.409358   107A      0.411441  
     108A      0.417914   109A      0.419209   110A      0.421435  
     111A      0.431555   112A      0.433748   113A      0.438172  
     114A      0.442840   115A      0.448608   116A      0.451471  
     117A      0.454752   118A      0.462175   119A      0.463861  
     120A      0.464924   121A      0.467815   122A      0.472877  
     123A      0.476980   124A      0.482741   125A      0.489058  
     126A      0.489326   127A      0.496391   128A      0.500611  
     129A      0.503350   130A      0.508779   131A      0.514412  
     132A      0.520151   133A      0.526175   134A      0.529386  
     135A      0.533199   136A      0.540534   137A      0.540907  
     138A      0.543501   139A      0.548295   140A      0.558085  
     141A      0.560936   142A      0.568782   143A      0.576270  
     144A      0.583123   145A      0.588645   146A      0.590669  
     147A      0.596953   148A      0.602246   149A      0.605725  
     150A      0.608023   151A      0.616586   152A      0.623391  
     153A      0.637645   154A      0.643697   155A      0.651196  
     156A      0.658739   157A      0.662255   158A      0.674127  
     159A      0.681663   160A      0.689328   161A      0.692773  
     162A      0.698494   163A      0.706836   164A      0.725617  
     165A      0.739849   166A      0.753014   167A      0.756763  
     168A      0.765045   169A      0.767260   170A      0.778493  
     171A      0.787183   172A      0.794317   173A      0.806759  
     174A      0.809277   175A      0.820903   176A      0.821331  
     177A      0.824561   178A      0.833719   179A      0.840476  
     180A      0.847717   181A      0.850213   182A      0.853413  
     183A      0.863901   184A      0.867893   185A      0.878978  
     186A      0.880820   187A      0.882958   188A      0.889078  
     189A      0.898981   190A      0.900091   191A      0.908148  
     192A      0.914027   193A      0.929080   194A      0.931939  
     195A      0.934964   196A      0.939390   197A      0.944112  
     198A      0.946743   199A      0.951406   200A      0.956149  
     201A      0.962936   202A      0.969816   203A      0.971280  
     204A      0.979282   205A      0.985558   206A      0.992591  
     207A      0.999779   208A      1.003314   209A      1.008140  
     210A      1.013109   211A      1.020956   212A      1.033392  
     213A      1.034725   214A      1.038769   215A      1.048210  
     216A      1.053573   217A      1.062783   218A      1.071629  
     219A      1.073184   220A      1.076421   221A      1.087460  
     222A      1.098306   223A      1.105908   224A      1.111550  
     225A      1.119851   226A      1.121275   227A      1.128439  
     228A      1.129736   229A      1.132440   230A      1.148108  
     231A      1.150579   232A      1.160611   233A      1.168494  
     234A      1.170417   235A      1.171664   236A      1.180286  
     237A      1.190908   238A      1.194303   239A      1.202695  
     240A      1.209595   241A      1.215583   242A      1.222219  
     243A      1.224596   244A      1.238136   245A      1.238853  
     246A      1.240726   247A      1.253554   248A      1.260475  
     249A      1.271249   250A      1.273890   251A      1.282360  
     252A      1.293564   253A      1.301227   254A      1.305275  
     255A      1.312374   256A      1.322535   257A      1.331477  
     258A      1.333651   259A      1.344379   260A      1.356052  
     261A      1.361386   262A      1.365778   263A      1.376046  
     264A      1.386586   265A      1.396164   266A      1.408146  
     267A      1.409632   268A      1.424246   269A      1.432238  
     270A      1.436468   271A      1.440868   272A      1.443472  
     273A      1.449390   274A      1.461553   275A      1.467466  
     276A      1.469798   277A      1.483075   278A      1.489072  
     279A      1.495492   280A      1.507540   281A      1.514160  
     282A      1.517526   283A      1.532359   284A      1.545474  
     285A      1.550712   286A      1.564773   287A      1.569721  
     288A      1.586682   289A      1.594893   290A      1.606007  
     291A      1.608424   292A      1.622569   293A      1.629800  
     294A      1.635781   295A      1.641142   296A      1.649749  
     297A      1.659072   298A      1.664954   299A      1.671649  
     300A      1.675822   301A      1.688364   302A      1.689604  
     303A      1.701169   304A      1.704472   305A      1.711688  
     306A      1.712727   307A      1.728378   308A      1.731588  
     309A      1.738265   310A      1.741630   311A      1.743057  
     312A      1.745412   313A      1.751234   314A      1.759612  
     315A      1.771415   316A      1.778798   317A      1.785869  
     318A      1.791424   319A      1.805289   320A      1.812173  
     321A      1.823355   322A      1.829846   323A      1.839282  
     324A      1.854347   325A      1.861220   326A      1.872774  
     327A      1.878716   328A      1.882821   329A      1.895539  
     330A      1.900604   331A      1.912069   332A      1.923710  
     333A      1.932904   334A      1.942876   335A      1.946890  
     336A      1.958419   337A      1.962062   338A      1.965621  
     339A      1.971273   340A      1.984705   341A      1.995633  
     342A      2.005800   343A      2.011201   344A      2.020282  
     345A      2.032429   346A      2.046018   347A      2.055375  
     348A      2.060020   349A      2.062417   350A      2.080623  
     351A      2.096335   352A      2.104643   353A      2.111864  
     354A      2.132535   355A      2.145587   356A      2.146946  
     357A      2.161700   358A      2.176421   359A      2.189465  
     360A      2.203601   361A      2.222049   362A      2.237239  
     363A      2.240445   364A      2.245083   365A      2.252385  
     366A      2.259788   367A      2.265943   368A      2.278046  
     369A      2.280584   370A      2.294308   371A      2.298600  
     372A      2.305344   373A      2.321115   374A      2.323971  
     375A      2.345401   376A      2.367240   377A      2.372645  
     378A      2.384229   379A      2.394056   380A      2.404287  
     381A      2.416766   382A      2.427432   383A      2.442369  
     384A      2.454591   385A      2.476626   386A      2.487362  
     387A      2.519685   388A      2.520461   389A      2.540306  
     390A      2.553134   391A      2.561294   392A      2.565477  
     393A      2.593305   394A      2.598283   395A      2.624454  
     396A      2.666345   397A      2.669801   398A      2.680241  
     399A      2.712906   400A      2.740715   401A      2.760398  
     402A      2.770070   403A      2.800069   404A      2.813158  
     405A      2.836845   406A      2.855741   407A      2.869047  
     408A      2.894704   409A      2.939407   410A      2.948346  
     411A      2.974274   412A      3.010318   413A      3.025679  
     414A      3.041262   415A      3.067689   416A      3.131395  
     417A      3.137552   418A      3.143525   419A      3.226719  
     420A      3.267715   421A      3.280900   422A      3.326133  
     423A      3.373174   424A      3.382547   425A      3.404753  
     426A      3.422585   427A      3.430770   428A      3.461709  
     429A      3.471106   430A      3.483048   431A      3.491370  
     432A      3.505244   433A      3.519296   434A      3.536097  
     435A      3.539654   436A      3.548474   437A      3.578471  
     438A      3.593011   439A      3.612031   440A      3.623397  
     441A      3.633888   442A      3.641812   443A      3.665296  
     444A      3.677581   445A      3.684374   446A      3.688508  
     447A      3.697418   448A      3.716479   449A      3.726449  
     450A      3.736369   451A      3.741074   452A      3.756456  
     453A      3.760637   454A      3.777271   455A      3.786759  
     456A      3.789938   457A      3.797219   458A      3.807708  
     459A      3.821713   460A      3.832756   461A      3.850938  
     462A      3.858031   463A      3.870440   464A      3.878172  
     465A      3.895238   466A      3.902421   467A      3.905662  
     468A      3.921759   469A      3.931479   470A      3.942576  
     471A      3.948399   472A      3.962210   473A      3.973802  
     474A      3.989186   475A      3.997375   476A      4.003920  
     477A      4.014806   478A      4.019446   479A      4.024423  
     480A      4.037698   481A      4.048777   482A      4.049435  
     483A      4.071026   484A      4.074558   485A      4.093020  
     486A      4.099592   487A      4.125794   488A      4.137233  
     489A      4.149245   490A      4.166496   491A      4.171080  
     492A      4.191766   493A      4.205137   494A      4.210580  
     495A      4.215289   496A      4.226906   497A      4.232081  
     498A      4.238438   499A      4.249203   500A      4.258714  
     501A      4.264501   502A      4.273594   503A      4.286260  
     504A      4.299839   505A      4.321722   506A      4.329158  
     507A      4.334020   508A      4.356695   509A      4.369802  
     510A      4.395240   511A      4.401558   512A      4.435113  
     513A      4.442350   514A      4.466399   515A      4.475629  
     516A      4.484144   517A      4.492595   518A      4.517598  
     519A      4.533461   520A      4.536082   521A      4.541329  
     522A      4.566735   523A      4.579577   524A      4.611600  
     525A      4.617463   526A      4.630335   527A      4.649251  
     528A      4.659641   529A      4.678556   530A      4.694534  
     531A      4.698608   532A      4.717737   533A      4.724885  
     534A      4.734495   535A      4.769515   536A      4.772429  
     537A      4.799681   538A      4.807665   539A      4.829659  
     540A      4.838434   541A      4.849067   542A      4.861592  
     543A      4.867958   544A      4.878418   545A      4.884359  
     546A      4.897133   547A      4.906195   548A      4.912231  
     549A      4.940286   550A      4.947177   551A      4.958659  
     552A      4.964778   553A      4.986467   554A      5.019464  
     555A      5.038467   556A      5.060695   557A      5.071548  
     558A      5.090909   559A      5.108235   560A      5.113628  
     561A      5.132668   562A      5.138817   563A      5.157652  
     564A      5.175814   565A      5.184664   566A      5.186713  
     567A      5.204094   568A      5.210769   569A      5.232229  
     570A      5.242118   571A      5.271508   572A      5.273359  
     573A      5.289672   574A      5.313456   575A      5.329550  
     576A      5.352561   577A      5.361764   578A      5.380914  
     579A      5.387052   580A      5.403360   581A      5.413562  
     582A      5.416341   583A      5.427465   584A      5.443753  
     585A      5.463948   586A      5.470491   587A      5.482397  
     588A      5.496159   589A      5.504119   590A      5.521965  
     591A      5.543106   592A      5.558742   593A      5.602727  
     594A      5.611209   595A      5.647732   596A      5.653402  
     597A      5.663295   598A      5.684164   599A      5.705376  
     600A      5.717195   601A      5.743499   602A      5.767535  
     603A      5.782667   604A      5.805766   605A      5.831836  
     606A      5.842930   607A      5.862707   608A      5.876412  
     609A      5.896156   610A      5.919120   611A      5.949455  
     612A      5.983080   613A      5.994641   614A      6.016997  
     615A      6.049604   616A      6.060663   617A      6.096850  
     618A      6.145193   619A      6.172595   620A      6.189783  
     621A      6.209335   622A      6.214348   623A      6.222622  
     624A      6.232962   625A      6.248062   626A      6.276082  
     627A      6.310151   628A      6.325686   629A      6.337971  
     630A      6.397520   631A      6.460873   632A      6.471297  
     633A      6.548789   634A      6.575881   635A      6.673411  
     636A      6.750868   637A      6.774059   638A      6.819106  
     639A      6.833721   640A      6.856861   641A      6.858832  
     642A      6.881806   643A      6.900028   644A      6.934411  
     645A      6.962292   646A      6.977158   647A      7.000260  
     648A      7.010014   649A      7.135968   650A      7.248903  
     651A      7.279132   652A      7.504373   653A      7.530362  
     654A      7.629186   655A      7.765065   656A      7.783734  
     657A      7.835010   658A      8.012858   659A      8.104016  
     660A     15.760775   661A     17.424002   662A     17.723863  
     663A     18.171284   664A     18.286193   665A     18.804286  
     666A     19.298085   667A     21.108947  

    Final Occupation by Irrep:
              A 
    DOCC [    32 ]

  @DF-RHF Final Energy:  -364.24620329944941

   => Energetics <=

    Nuclear Repulsion Energy =            391.8357012606451235
    One-Electron Energy =               -1271.4242761247305680
    Two-Electron Energy =                 515.3423715646360961
    Total Energy =                       -364.2462032994493484

Computation Completed

*** tstop() called on node37.bme.utexas.edu at Tue Nov  3 10:38:31 2020
Module time:
	user time   =     345.01 seconds =       5.75 minutes
	system time =      83.58 seconds =       1.39 minutes
	total time  =        106 seconds =       1.77 minutes
Total time:
	user time   =     345.01 seconds =       5.75 minutes
	system time =      83.58 seconds =       1.39 minutes
	total time  =        106 seconds =       1.77 minutes
   => Loading Basis Set <=

    Name: (AUG-CC-PVTZ AUX)
    Role: RIFIT
    Keyword: DF_BASIS_MP2
    atoms 1    entry O          line   264 file /home/xy3866/psi4conda/share/psi4/basis/aug-cc-pvtz-ri.gbs 
    atoms 2    entry N          line   206 file /home/xy3866/psi4conda/share/psi4/basis/aug-cc-pvtz-ri.gbs 
    atoms 3-8  entry C          line   148 file /home/xy3866/psi4conda/share/psi4/basis/aug-cc-pvtz-ri.gbs 
    atoms 9-21 entry H          line    30 file /home/xy3866/psi4conda/share/psi4/basis/aug-cc-pvtz-ri.gbs 


*** tstart() called on node37.bme.utexas.edu
*** at Tue Nov  3 10:38:31 2020


  //>>>>>>>>>>>>>>>>>>>>>>>>>>>>>>>>>>>//
  //               DFMP2               //
  //<<<<<<<<<<<<<<<<<<<<<<<<<<<<<<<<<<<//

	 --------------------------------------------------------
	                          DF-MP2                         
	      2nd-Order Density-Fitted Moller-Plesset Theory     
	              RMP2 Wavefunction,   8 Threads             
	                                                         
	        Rob Parrish, Justin Turney, Andy Simmonett,      
	           Ed Hohenstein, and C. David Sherrill          
	 --------------------------------------------------------

   => Auxiliary Basis Set <=

  Basis Set: (AUG-CC-PVTZ AUX)
    Blend: AUG-CC-PVTZ-RI
    Number of shells: 406
    Number of basis function: 1446
    Number of Cartesian functions: 1803
    Spherical Harmonics?: true
    Max angular momentum: 4

	 --------------------------------------------------------
	                 NBF =   667, NAUX =  1446
	 --------------------------------------------------------
	   CLASS    FOCC     OCC    AOCC    AVIR     VIR    FVIR
	   PAIRS       0      32      32     635     635       0
	 --------------------------------------------------------

  DFHelper Memory: AOs need 4.546 GiB; user supplied 22.352 GiB. Using in-core AOs.


         ------------------------------------------------------------
                                     CPHF                           
                                  Rob Parrish                       
         ------------------------------------------------------------

  ==> Geometry <==

    Molecular point group: c1
    Full point group: C1

    Geometry (in Angstrom), charge = 0, multiplicity = 1:

       Center              X                  Y                   Z               Mass       
    ------------   -----------------  -----------------  -----------------  -----------------
         O            0.902601019154    -1.131847850575     0.673080869228    15.994914619570
         N           -0.402600480846     0.620148549425    -0.119899330772    14.003074004430
         C           -1.688779980846    -0.060842150575     0.239346369228    12.000000000000
         C           -2.096059980846    -1.067561150575    -0.831503630772    12.000000000000
         C           -2.747853980846     1.006862849425     0.468507369228    12.000000000000
         C            0.772120019154    -0.045086150575     0.099484369228    12.000000000000
         C            1.983695019154     0.712190849425    -0.425759630772    12.000000000000
         C            3.288206019154     0.012199849425    -0.075344630772    12.000000000000
         H           -1.501874980846    -0.601332150575     1.171311369228     1.007825032230
         H           -0.451981980846     1.392110849425    -0.714584630772     1.007825032230
         H           -3.025494980846    -1.575445150575    -0.554328630772     1.007825032230
         H           -2.252149980846    -0.562645150575    -1.790884630772     1.007825032230
         H           -1.312351980846    -1.818687150575    -0.951166630772     1.007825032230
         H           -2.437498980846     1.701899849425     1.252914369228     1.007825032230
         H           -3.695129980846     0.547453849425     0.764310369228     1.007825032230
         H           -2.927802980846     1.576121849425    -0.450536630772     1.007825032230
         H            1.880333019154     0.816008849425    -1.516167630772     1.007825032230
         H            1.967034019154     1.731025849425    -0.018789630772     1.007825032230
         H            3.303617019154    -0.998130150575    -0.488088630772     1.007825032230
         H            4.139486019154     0.570308849425    -0.473685630772     1.007825032230
         H            3.401299019154    -0.073206150575     1.007635369228     1.007825032230

  Nuclear repulsion =  391.835701260645124
  Reference energy  = -364.246203299449405

  ==> Basis Set <==

  Basis Set: AUG-CC-PVTZ
    Blend: AUG-CC-PVTZ
    Number of shells: 229
    Number of basis function: 667
    Number of Cartesian functions: 765
    Spherical Harmonics?: true
    Max angular momentum: 3

  ==> CGRSolver (by Rob Parrish) <==

   Number of roots    =         1
   Preconditioning    =    JACOBI
   Convergence cutoff =     1E-06
   Maximum iterations =       100

  ==> CPHFRHamiltonian (by Rob Parrish) <== 

  ==> MemDFJK: Density-Fitted J/K Matrices <==

    J tasked:                   Yes
    K tasked:                   Yes
    wK tasked:                   No
    OpenMP threads:               8
    Memory [MiB]:             22888
    Algorithm:                 Disk
    Schwarz Cutoff:           1E-12
    Mask sparsity (%):       6.8655
    Fitting Condition:        1E-10

   => Auxiliary Basis Set <=

  Basis Set: (AUG-CC-PVTZ AUX)
    Blend: AUG-CC-PVTZ-JKFIT
    Number of shells: 422
    Number of basis function: 1430
    Number of Cartesian functions: 1763
    Spherical Harmonics?: true
    Max angular momentum: 4

  ==> CPHF Iterations <==

  => Iterations <=

             Iter  Converged  Remaining    Residual
  CGR           1          0          1   1.150E-01
  CGR           2          0          1   3.413E-02
  CGR           3          0          1   1.258E-02
  CGR           4          0          1   3.363E-03
  CGR           5          0          1   1.272E-03
  CGR           6          0          1   3.700E-04
  CGR           7          0          1   1.207E-04
  CGR           8          0          1   5.282E-05
  CGR           9          0          1   2.092E-05
  CGR          10          0          1   6.636E-06
  CGR          11          0          1   1.994E-06
  CGR          12          1          0   7.581E-07

    CGRSolver converged.

	-----------------------------------------------------------
	 ==================> DF-MP2 Energies <==================== 
	-----------------------------------------------------------
	 Reference Energy          =    -364.2462032994494052 [Eh]
	 Singles Energy            =      -0.0000000000000000 [Eh]
	 Same-Spin Energy          =      -0.3753895403490320 [Eh]
	 Opposite-Spin Energy      =      -1.2749238844072917 [Eh]
	 Correlation Energy        =      -1.6503134247563236 [Eh]
	 Total Energy              =    -365.8965167242057532 [Eh]
	-----------------------------------------------------------
	 ================> DF-SCS-MP2 Energies <================== 
	-----------------------------------------------------------
	 SCS Same-Spin Scale       =       0.3333333333333333 [-]
	 SCS Opposite-Spin Scale   =       1.2000000000000000 [-]
	 SCS Same-Spin Energy      =      -0.1251298467830106 [Eh]
	 SCS Opposite-Spin Energy  =      -1.5299086612887500 [Eh]
	 SCS Correlation Energy    =      -1.6550385080717607 [Eh]
	 SCS Total Energy          =    -365.9012418075211599 [Eh]
	-----------------------------------------------------------



Properties will be evaluated at   0.000000,   0.000000,  -0.000000 [a0]

Properties computed using the MP2 density matrix

  Nuclear Dipole Moment: [e a0]
     X:    -2.7249      Y:     2.5291      Z:    -2.5858

  Electronic Dipole Moment: [e a0]
     X:     2.1172      Y:    -1.4887      Z:     1.9543

  Dipole Moment: [e a0]
     X:    -0.6077      Y:     1.0403      Z:    -0.6315     Total:     1.3603

  Dipole Moment: [D]
     X:    -1.5447      Y:     2.6443      Z:    -1.6050     Total:     3.4575


*** tstop() called on node37.bme.utexas.edu at Tue Nov  3 10:41:53 2020
Module time:
	user time   =     968.13 seconds =      16.14 minutes
	system time =     108.16 seconds =       1.80 minutes
	total time  =        202 seconds =       3.37 minutes
Total time:
	user time   =    1314.04 seconds =      21.90 minutes
	system time =     191.80 seconds =       3.20 minutes
	total time  =        308 seconds =       5.13 minutes

    Psi4 stopped on: Tuesday, 03 November 2020 10:41AM
    Psi4 wall time for execution: 0:05:07.56

*** Psi4 exiting successfully. Buy a developer a beer!
