
    -----------------------------------------------------------------------
          Psi4: An Open-Source Ab Initio Electronic Structure Package
                               Psi4 1.3.2 release

                         Git: Rev {HEAD} ecbda83 


    R. M. Parrish, L. A. Burns, D. G. A. Smith, A. C. Simmonett,
    A. E. DePrince III, E. G. Hohenstein, U. Bozkaya, A. Yu. Sokolov,
    R. Di Remigio, R. M. Richard, J. F. Gonthier, A. M. James,
    H. R. McAlexander, A. Kumar, M. Saitow, X. Wang, B. P. Pritchard,
    P. Verma, H. F. Schaefer III, K. Patkowski, R. A. King, E. F. Valeev,
    F. A. Evangelista, J. M. Turney, T. D. Crawford, and C. D. Sherrill,
    J. Chem. Theory Comput. 13(7) pp 3185--3197 (2017).
    (doi: 10.1021/acs.jctc.7b00174)


                         Additional Contributions by
    P. Kraus, H. Kruse, M. H. Lechner, M. C. Schieber, R. A. Shaw,
    A. Alenaizan, R. Galvelis, Z. L. Glick, S. Lehtola, and J. P. Misiewicz

    -----------------------------------------------------------------------


    Psi4 started on: Tuesday, 03 November 2020 05:19PM

    Process ID: 26723
    Host:       node37.bme.utexas.edu
    PSIDATADIR: /home/xy3866/psi4conda/share/psi4
    Memory:     500.0 MiB
    Threads:    8
    
  ==> Input File <==

--------------------------------------------------------------------------
#psi4
#
memory 32 gb

molecule  {
0 1
  O        0.8686370    -1.1285810     0.6753960
  N       -0.4170490     0.5891890    -0.1013730
  C       -1.6161870    -0.0381481     0.1914856
  C       -2.0872990    -1.0630810    -0.8349870
  C       -2.7390930     1.0113430     0.4650240
  C        0.7808810    -0.0406060     0.0960010
  C        1.9924560     0.7166710    -0.4292430
  C        3.2969670     0.0166800    -0.0788280
  H       -1.4931140    -0.5968520     1.1678280
  H       -0.4432210     1.3965910    -0.7180680
  H       -3.0133478    -1.6006294    -0.6067395
  H       -2.2433890    -0.5581650    -1.7943680
  H       -1.3035910    -1.8142070    -0.9546500
  H       -2.4287380     1.7063800     1.2494310
  H       -3.6863690     0.5519340     0.7608270
  H       -2.9190420     1.5806020    -0.4540200
  H        1.8890940     0.8204890    -1.5196510
  H        1.9757950     1.7355060    -0.0222730
  H        3.3123780    -0.9936500    -0.4915720
  H        4.1482470     0.5747890    -0.4771690
  H        3.4100600    -0.0687260     1.0041520
units angstrom
no_reorient  #important for SAPT in psi4, default
symmetry c1  #important for SAPT in psi4, default
}

set PROPERTIES_ORIGIN ["COM"]
properties('MP2/aug-cc-pvtz', properties = ['dipole'])
--------------------------------------------------------------------------

  Memory set to  29.802 GiB by Python driver.
    SCF Algorithm Type (re)set to DF.

*** tstart() called on node37.bme.utexas.edu
*** at Tue Nov  3 17:19:23 2020

   => Loading Basis Set <=

    Name: AUG-CC-PVTZ
    Role: ORBITAL
    Keyword: BASIS
    atoms 1    entry O          line   327 file /home/xy3866/psi4conda/share/psi4/basis/aug-cc-pvtz.gbs 
    atoms 2    entry N          line   281 file /home/xy3866/psi4conda/share/psi4/basis/aug-cc-pvtz.gbs 
    atoms 3-8  entry C          line   235 file /home/xy3866/psi4conda/share/psi4/basis/aug-cc-pvtz.gbs 
    atoms 9-21 entry H          line    36 file /home/xy3866/psi4conda/share/psi4/basis/aug-cc-pvtz.gbs 


         ---------------------------------------------------------
                                   SCF
               by Justin Turney, Rob Parrish, Andy Simmonett
                          and Daniel G. A. Smith
                              RHF Reference
                        8 Threads,  30517 MiB Core
         ---------------------------------------------------------

  ==> Geometry <==

    Molecular point group: c1
    Full point group: C1

    Geometry (in Angstrom), charge = 0, multiplicity = 1:

       Center              X                  Y                   Z               Mass       
    ------------   -----------------  -----------------  -----------------  -----------------
         O            0.861952395955    -1.130220126170     0.680450956008    15.994914619570
         N           -0.423733604045     0.587549873830    -0.096318043992    14.003074004430
         C           -1.622871604045    -0.039787226170     0.196540556008    12.000000000000
         C           -2.093983604045    -1.064720126170    -0.829932043992    12.000000000000
         C           -2.745777604045     1.009703873830     0.470078956008    12.000000000000
         C            0.774196395955    -0.042245126170     0.101055956008    12.000000000000
         C            1.985771395955     0.715031873830    -0.424188043992    12.000000000000
         C            3.290282395955     0.015040873830    -0.073773043992    12.000000000000
         H           -1.499798604045    -0.598491126170     1.172882956008     1.007825032230
         H           -0.449905604045     1.394951873830    -0.713013043992     1.007825032230
         H           -3.020032404045    -1.602268526170    -0.601684543992     1.007825032230
         H           -2.250073604045    -0.559804126170    -1.789313043992     1.007825032230
         H           -1.310275604045    -1.815846126170    -0.949595043992     1.007825032230
         H           -2.435422604045     1.704740873830     1.254485956008     1.007825032230
         H           -3.693053604045     0.550294873830     0.765881956008     1.007825032230
         H           -2.925726604045     1.578962873830    -0.448965043992     1.007825032230
         H            1.882409395955     0.818849873830    -1.514596043992     1.007825032230
         H            1.969110395955     1.733866873830    -0.017218043992     1.007825032230
         H            3.305693395955    -0.995289126170    -0.486517043992     1.007825032230
         H            4.141562395955     0.573149873830    -0.472114043992     1.007825032230
         H            3.403375395955    -0.070365126170     1.009206956008     1.007825032230

  Running in c1 symmetry.

  Rotational constants: A =      0.15275  B =      0.03361  C =      0.03096 [cm^-1]
  Rotational constants: A =   4579.35326  B =   1007.45347  C =    928.06939 [MHz]
  Nuclear repulsion =  393.359100640950828

  Charge       = 0
  Multiplicity = 1
  Electrons    = 64
  Nalpha       = 32
  Nbeta        = 32

  ==> Algorithm <==

  SCF Algorithm Type is DF.
  DIIS enabled.
  MOM disabled.
  Fractional occupation disabled.
  Guess Type is SAD.
  Energy threshold   = 1.00e-10
  Density threshold  = 1.00e-10
  Integral threshold = 0.00e+00

  ==> Primary Basis <==

  Basis Set: AUG-CC-PVTZ
    Blend: AUG-CC-PVTZ
    Number of shells: 229
    Number of basis function: 667
    Number of Cartesian functions: 765
    Spherical Harmonics?: true
    Max angular momentum: 3

   => Loading Basis Set <=

    Name: (AUG-CC-PVTZ AUX)
    Role: JKFIT
    Keyword: DF_BASIS_SCF
    atoms 1    entry O          line   286 file /home/xy3866/psi4conda/share/psi4/basis/aug-cc-pvtz-jkfit.gbs 
    atoms 2    entry N          line   224 file /home/xy3866/psi4conda/share/psi4/basis/aug-cc-pvtz-jkfit.gbs 
    atoms 3-8  entry C          line   162 file /home/xy3866/psi4conda/share/psi4/basis/aug-cc-pvtz-jkfit.gbs 
    atoms 9-21 entry H          line    70 file /home/xy3866/psi4conda/share/psi4/basis/aug-cc-pvtz-jkfit.gbs 

  ==> Pre-Iterations <==

   -------------------------------------------------------
    Irrep   Nso     Nmo     Nalpha   Nbeta   Ndocc  Nsocc
   -------------------------------------------------------
     A        667     667       0       0       0       0
   -------------------------------------------------------
    Total     667     667      32      32      32       0
   -------------------------------------------------------

  ==> Integral Setup <==

  DFHelper Memory: AOs need 4.547 GiB; user supplied 22.352 GiB. Using in-core AOs.

  ==> MemDFJK: Density-Fitted J/K Matrices <==

    J tasked:                   Yes
    K tasked:                   Yes
    wK tasked:                   No
    OpenMP threads:               8
    Memory [MiB]:             22888
    Algorithm:                 Disk
    Schwarz Cutoff:           1E-12
    Mask sparsity (%):       6.8332
    Fitting Condition:        1E-10

   => Auxiliary Basis Set <=

  Basis Set: (AUG-CC-PVTZ AUX)
    Blend: AUG-CC-PVTZ-JKFIT
    Number of shells: 422
    Number of basis function: 1430
    Number of Cartesian functions: 1763
    Spherical Harmonics?: true
    Max angular momentum: 4

  Minimum eigenvalue in the overlap matrix is 2.7646919567E-06.
  Using Symmetric Orthogonalization.

  SCF Guess: Superposition of Atomic Densities via on-the-fly atomic UHF.

  ==> Iterations <==

                           Total Energy        Delta E     RMS |[F,P]|

   @DF-RHF iter SAD:  -363.51161318796966   -3.63512e+02   0.00000e+00 
   @DF-RHF iter   1:  -363.89092696244444   -3.79314e-01   1.18790e-03 DIIS
   @DF-RHF iter   2:  -364.16585938677673   -2.74932e-01   6.26049e-04 DIIS
   @DF-RHF iter   3:  -364.23547650036880   -6.96171e-02   1.36566e-04 DIIS
   @DF-RHF iter   4:  -364.24029531529163   -4.81881e-03   6.17889e-05 DIIS
   @DF-RHF iter   5:  -364.24125951605157   -9.64201e-04   1.01700e-05 DIIS
   @DF-RHF iter   6:  -364.24130957821620   -5.00622e-05   4.87468e-06 DIIS
   @DF-RHF iter   7:  -364.24131870887908   -9.13066e-06   1.63969e-06 DIIS
   @DF-RHF iter   8:  -364.24132057045142   -1.86157e-06   7.06309e-07 DIIS
   @DF-RHF iter   9:  -364.24132090931226   -3.38861e-07   2.19358e-07 DIIS
   @DF-RHF iter  10:  -364.24132093903359   -2.97213e-08   6.53757e-08 DIIS
   @DF-RHF iter  11:  -364.24132094153640   -2.50282e-09   1.76687e-08 DIIS
   @DF-RHF iter  12:  -364.24132094167555   -1.39153e-10   5.24494e-09 DIIS
   @DF-RHF iter  13:  -364.24132094169272   -1.71667e-11   1.61946e-09 DIIS
   @DF-RHF iter  14:  -364.24132094169107    1.64846e-12   5.51961e-10 DIIS
   @DF-RHF iter  15:  -364.24132094169153   -4.54747e-13   1.29444e-10 DIIS
   @DF-RHF iter  16:  -364.24132094169079    7.38964e-13   3.63736e-11 DIIS
  Energy and wave function converged.


  ==> Post-Iterations <==

    Orbital Energies [Eh]
    ---------------------

    Doubly Occupied:                                                      

       1A    -20.517605     2A    -15.582483     3A    -11.348639  
       4A    -11.263991     5A    -11.242849     6A    -11.222446  
       7A    -11.215304     8A    -11.210255     9A     -1.372792  
      10A     -1.247114    11A     -1.065238    12A     -1.026048  
      13A     -0.935901    14A     -0.894521    15A     -0.811649  
      16A     -0.785290    17A     -0.685461    18A     -0.656748  
      19A     -0.639891    20A     -0.612773    21A     -0.596781  
      22A     -0.579516    23A     -0.552769    24A     -0.540912  
      25A     -0.526413    26A     -0.518808    27A     -0.514658  
      28A     -0.494984    29A     -0.480850    30A     -0.461891  
      31A     -0.422122    32A     -0.385709  

    Virtual:                                                              

      33A      0.023580    34A      0.031546    35A      0.035347  
      36A      0.038330    37A      0.048325    38A      0.050117  
      39A      0.050692    40A      0.058103    41A      0.060994  
      42A      0.068741    43A      0.074119    44A      0.076756  
      45A      0.080887    46A      0.103826    47A      0.110536  
      48A      0.116698    49A      0.120337    50A      0.122752  
      51A      0.127589    52A      0.128172    53A      0.134138  
      54A      0.136309    55A      0.140996    56A      0.142189  
      57A      0.144643    58A      0.145315    59A      0.148588  
      60A      0.160528    61A      0.166079    62A      0.171297  
      63A      0.176766    64A      0.179424    65A      0.185627  
      66A      0.190883    67A      0.206025    68A      0.209965  
      69A      0.211056    70A      0.227951    71A      0.228478  
      72A      0.236697    73A      0.243718    74A      0.248975  
      75A      0.251122    76A      0.265569    77A      0.267561  
      78A      0.271677    79A      0.273750    80A      0.282629  
      81A      0.291785    82A      0.296859    83A      0.302277  
      84A      0.303516    85A      0.309863    86A      0.319812  
      87A      0.321605    88A      0.326925    89A      0.333036  
      90A      0.338761    91A      0.342353    92A      0.345406  
      93A      0.348501    94A      0.356825    95A      0.358567  
      96A      0.361849    97A      0.364978    98A      0.372267  
      99A      0.373352   100A      0.374383   101A      0.382167  
     102A      0.392589   103A      0.394391   104A      0.397779  
     105A      0.405894   106A      0.409776   107A      0.410867  
     108A      0.416970   109A      0.419885   110A      0.421460  
     111A      0.429593   112A      0.433644   113A      0.440951  
     114A      0.442332   115A      0.449493   116A      0.452058  
     117A      0.455731   118A      0.462471   119A      0.464078  
     120A      0.465655   121A      0.469849   122A      0.473486  
     123A      0.479080   124A      0.482605   125A      0.488388  
     126A      0.489565   127A      0.496515   128A      0.499499  
     129A      0.503214   130A      0.510304   131A      0.514203  
     132A      0.518965   133A      0.526397   134A      0.528380  
     135A      0.531468   136A      0.539345   137A      0.542784  
     138A      0.544375   139A      0.547824   140A      0.559578  
     141A      0.563573   142A      0.568955   143A      0.575358  
     144A      0.582687   145A      0.588682   146A      0.592769  
     147A      0.596582   148A      0.605436   149A      0.608521  
     150A      0.610296   151A      0.615812   152A      0.623396  
     153A      0.637722   154A      0.648290   155A      0.650737  
     156A      0.655882   157A      0.666733   158A      0.678248  
     159A      0.678443   160A      0.688769   161A      0.694579  
     162A      0.704436   163A      0.711947   164A      0.723589  
     165A      0.748608   166A      0.749304   167A      0.758832  
     168A      0.763576   169A      0.766249   170A      0.775331  
     171A      0.788986   172A      0.794922   173A      0.807793  
     174A      0.811626   175A      0.820326   176A      0.821411  
     177A      0.828413   178A      0.832527   179A      0.837677  
     180A      0.847049   181A      0.848893   182A      0.851818  
     183A      0.862675   184A      0.869413   185A      0.878966  
     186A      0.881450   187A      0.882121   188A      0.887578  
     189A      0.899608   190A      0.900688   191A      0.909951  
     192A      0.913576   193A      0.928220   194A      0.931680  
     195A      0.935326   196A      0.940223   197A      0.943171  
     198A      0.947713   199A      0.950172   200A      0.959794  
     201A      0.963029   202A      0.968270   203A      0.973097  
     204A      0.980815   205A      0.984734   206A      0.993846  
     207A      1.001230   208A      1.008371   209A      1.009905  
     210A      1.014022   211A      1.019308   212A      1.033734  
     213A      1.036477   214A      1.039930   215A      1.048392  
     216A      1.052527   217A      1.062155   218A      1.070436  
     219A      1.071609   220A      1.081910   221A      1.088383  
     222A      1.099154   223A      1.105759   224A      1.114259  
     225A      1.119205   226A      1.122945   227A      1.126590  
     228A      1.130668   229A      1.135925   230A      1.149960  
     231A      1.154953   232A      1.160180   233A      1.167039  
     234A      1.170367   235A      1.172433   236A      1.180697  
     237A      1.187199   238A      1.192097   239A      1.204024  
     240A      1.207040   241A      1.214642   242A      1.223180  
     243A      1.225139   244A      1.236208   245A      1.240884  
     246A      1.246585   247A      1.253022   248A      1.260824  
     249A      1.270380   250A      1.275517   251A      1.279966  
     252A      1.294881   253A      1.298222   254A      1.306030  
     255A      1.313452   256A      1.322534   257A      1.330384  
     258A      1.332388   259A      1.349093   260A      1.354927  
     261A      1.360505   262A      1.367576   263A      1.382282  
     264A      1.386167   265A      1.392444   266A      1.401635  
     267A      1.410800   268A      1.420691   269A      1.430098  
     270A      1.433437   271A      1.437783   272A      1.443960  
     273A      1.445614   274A      1.457830   275A      1.468152  
     276A      1.471635   277A      1.483095   278A      1.487888  
     279A      1.490336   280A      1.507212   281A      1.516091  
     282A      1.519700   283A      1.528077   284A      1.544554  
     285A      1.547150   286A      1.565832   287A      1.570112  
     288A      1.590246   289A      1.594198   290A      1.599481  
     291A      1.607929   292A      1.617413   293A      1.627027  
     294A      1.633613   295A      1.641342   296A      1.651795  
     297A      1.659494   298A      1.663161   299A      1.673498  
     300A      1.677694   301A      1.687168   302A      1.690315  
     303A      1.700583   304A      1.705618   305A      1.709885  
     306A      1.715146   307A      1.723611   308A      1.730697  
     309A      1.738893   310A      1.740637   311A      1.743417  
     312A      1.749256   313A      1.759172   314A      1.766759  
     315A      1.774110   316A      1.778230   317A      1.782612  
     318A      1.790595   319A      1.807817   320A      1.811530  
     321A      1.825204   322A      1.835521   323A      1.841100  
     324A      1.853355   325A      1.863287   326A      1.869344  
     327A      1.875722   328A      1.884428   329A      1.896672  
     330A      1.911401   331A      1.921066   332A      1.929114  
     333A      1.935056   334A      1.939463   335A      1.950889  
     336A      1.957857   337A      1.960653   338A      1.969629  
     339A      1.977245   340A      1.987095   341A      1.999204  
     342A      2.007089   343A      2.012848   344A      2.020334  
     345A      2.033372   346A      2.047372   347A      2.054402  
     348A      2.061078   349A      2.065154   350A      2.082209  
     351A      2.097520   352A      2.101519   353A      2.110523  
     354A      2.129156   355A      2.143924   356A      2.152987  
     357A      2.163341   358A      2.180254   359A      2.187079  
     360A      2.195929   361A      2.217850   362A      2.228439  
     363A      2.239406   364A      2.251661   365A      2.254640  
     366A      2.259367   367A      2.265261   368A      2.277027  
     369A      2.279029   370A      2.294962   371A      2.297669  
     372A      2.304846   373A      2.312186   374A      2.326218  
     375A      2.353932   376A      2.368435   377A      2.375870  
     378A      2.384952   379A      2.398474   380A      2.404455  
     381A      2.415577   382A      2.445886   383A      2.450710  
     384A      2.459403   385A      2.468808   386A      2.495810  
     387A      2.510527   388A      2.520864   389A      2.538367  
     390A      2.551506   391A      2.563155   392A      2.576745  
     393A      2.597183   394A      2.603367   395A      2.627558  
     396A      2.664850   397A      2.671323   398A      2.674818  
     399A      2.706165   400A      2.727983   401A      2.742945  
     402A      2.771468   403A      2.803638   404A      2.822437  
     405A      2.850279   406A      2.871724   407A      2.886602  
     408A      2.918447   409A      2.958612   410A      2.976554  
     411A      2.989058   412A      3.025588   413A      3.039377  
     414A      3.046759   415A      3.086972   416A      3.134826  
     417A      3.143988   418A      3.155649   419A      3.236077  
     420A      3.268586   421A      3.290166   422A      3.330961  
     423A      3.368720   424A      3.386154   425A      3.396778  
     426A      3.423293   427A      3.431780   428A      3.465694  
     429A      3.476059   430A      3.493010   431A      3.500491  
     432A      3.509705   433A      3.530714   434A      3.549679  
     435A      3.554009   436A      3.564989   437A      3.581124  
     438A      3.590271   439A      3.608906   440A      3.625505  
     441A      3.633294   442A      3.643835   443A      3.658057  
     444A      3.672480   445A      3.682071   446A      3.689748  
     447A      3.705101   448A      3.713416   449A      3.721040  
     450A      3.735085   451A      3.739016   452A      3.750374  
     453A      3.762291   454A      3.777516   455A      3.784391  
     456A      3.785589   457A      3.794724   458A      3.811996  
     459A      3.823483   460A      3.835250   461A      3.849831  
     462A      3.855942   463A      3.867564   464A      3.878352  
     465A      3.891148   466A      3.899474   467A      3.909093  
     468A      3.912852   469A      3.933501   470A      3.944938  
     471A      3.957723   472A      3.971018   473A      3.974099  
     474A      3.992114   475A      3.996816   476A      4.000628  
     477A      4.009948   478A      4.016264   479A      4.033137  
     480A      4.040212   481A      4.046585   482A      4.055195  
     483A      4.077908   484A      4.085775   485A      4.090596  
     486A      4.111515   487A      4.135520   488A      4.139208  
     489A      4.156870   490A      4.172605   491A      4.179447  
     492A      4.190935   493A      4.200352   494A      4.205406  
     495A      4.216204   496A      4.224969   497A      4.227454  
     498A      4.243174   499A      4.247151   500A      4.264049  
     501A      4.273400   502A      4.276266   503A      4.291460  
     504A      4.298386   505A      4.313972   506A      4.334382  
     507A      4.352852   508A      4.374763   509A      4.376400  
     510A      4.394292   511A      4.407957   512A      4.440835  
     513A      4.456903   514A      4.466948   515A      4.470857  
     516A      4.478156   517A      4.503062   518A      4.517302  
     519A      4.534452   520A      4.542141   521A      4.564590  
     522A      4.582300   523A      4.590776   524A      4.611530  
     525A      4.613631   526A      4.624633   527A      4.650988  
     528A      4.655558   529A      4.675201   530A      4.691295  
     531A      4.702908   532A      4.714193   533A      4.722165  
     534A      4.730198   535A      4.766831   536A      4.775721  
     537A      4.796496   538A      4.798187   539A      4.821647  
     540A      4.836102   541A      4.845610   542A      4.858164  
     543A      4.867017   544A      4.874442   545A      4.881576  
     546A      4.890359   547A      4.902300   548A      4.911011  
     549A      4.923358   550A      4.944518   551A      4.948040  
     552A      4.961230   553A      4.975217   554A      5.014803  
     555A      5.036017   556A      5.053179   557A      5.068931  
     558A      5.084115   559A      5.089291   560A      5.107022  
     561A      5.129289   562A      5.147866   563A      5.152099  
     564A      5.167594   565A      5.174840   566A      5.181037  
     567A      5.200606   568A      5.212041   569A      5.220130  
     570A      5.239421   571A      5.247790   572A      5.274433  
     573A      5.283160   574A      5.310531   575A      5.324896  
     576A      5.342773   577A      5.354787   578A      5.378986  
     579A      5.387614   580A      5.398790   581A      5.403925  
     582A      5.407265   583A      5.423963   584A      5.440889  
     585A      5.446335   586A      5.458360   587A      5.476776  
     588A      5.496515   589A      5.510503   590A      5.524858  
     591A      5.533346   592A      5.555368   593A      5.607845  
     594A      5.629945   595A      5.641707   596A      5.652815  
     597A      5.658774   598A      5.685449   599A      5.693375  
     600A      5.724912   601A      5.737748   602A      5.760818  
     603A      5.786100   604A      5.795541   605A      5.839292  
     606A      5.849008   607A      5.862155   608A      5.878807  
     609A      5.889503   610A      5.944799   611A      5.968606  
     612A      5.985829   613A      6.013260   614A      6.027909  
     615A      6.043583   616A      6.076890   617A      6.097271  
     618A      6.148369   619A      6.165129   620A      6.171638  
     621A      6.175705   622A      6.214137   623A      6.221745  
     624A      6.233550   625A      6.245643   626A      6.268517  
     627A      6.297518   628A      6.321118   629A      6.344351  
     630A      6.402861   631A      6.466911   632A      6.495610  
     633A      6.556156   634A      6.625421   635A      6.705722  
     636A      6.749071   637A      6.787573   638A      6.822043  
     639A      6.845154   640A      6.856874   641A      6.862479  
     642A      6.877302   643A      6.890458   644A      6.938107  
     645A      6.948119   646A      6.974300   647A      7.009316  
     648A      7.100069   649A      7.134889   650A      7.277105  
     651A      7.291069   652A      7.506719   653A      7.530506  
     654A      7.678030   655A      7.725763   656A      7.763359  
     657A      7.785514   658A      8.022293   659A      8.103831  
     660A     15.736624   661A     17.693561   662A     17.827385  
     663A     18.150073   664A     18.338908   665A     18.782359  
     666A     19.405060   667A     21.296954  

    Final Occupation by Irrep:
              A 
    DOCC [    32 ]

  @DF-RHF Final Energy:  -364.24132094169079

   => Energetics <=

    Nuclear Repulsion Energy =            393.3591006409508282
    One-Electron Energy =               -1274.3760252075530843
    Two-Electron Energy =                 516.7756036249114686
    Total Energy =                       -364.2413209416907875

Computation Completed

*** tstop() called on node37.bme.utexas.edu at Tue Nov  3 17:21:08 2020
Module time:
	user time   =     347.46 seconds =       5.79 minutes
	system time =      81.82 seconds =       1.36 minutes
	total time  =        105 seconds =       1.75 minutes
Total time:
	user time   =     347.46 seconds =       5.79 minutes
	system time =      81.82 seconds =       1.36 minutes
	total time  =        105 seconds =       1.75 minutes
   => Loading Basis Set <=

    Name: (AUG-CC-PVTZ AUX)
    Role: RIFIT
    Keyword: DF_BASIS_MP2
    atoms 1    entry O          line   264 file /home/xy3866/psi4conda/share/psi4/basis/aug-cc-pvtz-ri.gbs 
    atoms 2    entry N          line   206 file /home/xy3866/psi4conda/share/psi4/basis/aug-cc-pvtz-ri.gbs 
    atoms 3-8  entry C          line   148 file /home/xy3866/psi4conda/share/psi4/basis/aug-cc-pvtz-ri.gbs 
    atoms 9-21 entry H          line    30 file /home/xy3866/psi4conda/share/psi4/basis/aug-cc-pvtz-ri.gbs 


*** tstart() called on node37.bme.utexas.edu
*** at Tue Nov  3 17:21:08 2020


  //>>>>>>>>>>>>>>>>>>>>>>>>>>>>>>>>>>>//
  //               DFMP2               //
  //<<<<<<<<<<<<<<<<<<<<<<<<<<<<<<<<<<<//

	 --------------------------------------------------------
	                          DF-MP2                         
	      2nd-Order Density-Fitted Moller-Plesset Theory     
	              RMP2 Wavefunction,   8 Threads             
	                                                         
	        Rob Parrish, Justin Turney, Andy Simmonett,      
	           Ed Hohenstein, and C. David Sherrill          
	 --------------------------------------------------------

   => Auxiliary Basis Set <=

  Basis Set: (AUG-CC-PVTZ AUX)
    Blend: AUG-CC-PVTZ-RI
    Number of shells: 406
    Number of basis function: 1446
    Number of Cartesian functions: 1803
    Spherical Harmonics?: true
    Max angular momentum: 4

	 --------------------------------------------------------
	                 NBF =   667, NAUX =  1446
	 --------------------------------------------------------
	   CLASS    FOCC     OCC    AOCC    AVIR     VIR    FVIR
	   PAIRS       0      32      32     635     635       0
	 --------------------------------------------------------

  DFHelper Memory: AOs need 4.547 GiB; user supplied 22.352 GiB. Using in-core AOs.


         ------------------------------------------------------------
                                     CPHF                           
                                  Rob Parrish                       
         ------------------------------------------------------------

  ==> Geometry <==

    Molecular point group: c1
    Full point group: C1

    Geometry (in Angstrom), charge = 0, multiplicity = 1:

       Center              X                  Y                   Z               Mass       
    ------------   -----------------  -----------------  -----------------  -----------------
         O            0.861952395955    -1.130220126170     0.680450956008    15.994914619570
         N           -0.423733604045     0.587549873830    -0.096318043992    14.003074004430
         C           -1.622871604045    -0.039787226170     0.196540556008    12.000000000000
         C           -2.093983604045    -1.064720126170    -0.829932043992    12.000000000000
         C           -2.745777604045     1.009703873830     0.470078956008    12.000000000000
         C            0.774196395955    -0.042245126170     0.101055956008    12.000000000000
         C            1.985771395955     0.715031873830    -0.424188043992    12.000000000000
         C            3.290282395955     0.015040873830    -0.073773043992    12.000000000000
         H           -1.499798604045    -0.598491126170     1.172882956008     1.007825032230
         H           -0.449905604045     1.394951873830    -0.713013043992     1.007825032230
         H           -3.020032404045    -1.602268526170    -0.601684543992     1.007825032230
         H           -2.250073604045    -0.559804126170    -1.789313043992     1.007825032230
         H           -1.310275604045    -1.815846126170    -0.949595043992     1.007825032230
         H           -2.435422604045     1.704740873830     1.254485956008     1.007825032230
         H           -3.693053604045     0.550294873830     0.765881956008     1.007825032230
         H           -2.925726604045     1.578962873830    -0.448965043992     1.007825032230
         H            1.882409395955     0.818849873830    -1.514596043992     1.007825032230
         H            1.969110395955     1.733866873830    -0.017218043992     1.007825032230
         H            3.305693395955    -0.995289126170    -0.486517043992     1.007825032230
         H            4.141562395955     0.573149873830    -0.472114043992     1.007825032230
         H            3.403375395955    -0.070365126170     1.009206956008     1.007825032230

  Nuclear repulsion =  393.359100640950828
  Reference energy  = -364.241320941690788

  ==> Basis Set <==

  Basis Set: AUG-CC-PVTZ
    Blend: AUG-CC-PVTZ
    Number of shells: 229
    Number of basis function: 667
    Number of Cartesian functions: 765
    Spherical Harmonics?: true
    Max angular momentum: 3

  ==> CGRSolver (by Rob Parrish) <==

   Number of roots    =         1
   Preconditioning    =    JACOBI
   Convergence cutoff =     1E-06
   Maximum iterations =       100

  ==> CPHFRHamiltonian (by Rob Parrish) <== 

  ==> MemDFJK: Density-Fitted J/K Matrices <==

    J tasked:                   Yes
    K tasked:                   Yes
    wK tasked:                   No
    OpenMP threads:               8
    Memory [MiB]:             22888
    Algorithm:                 Disk
    Schwarz Cutoff:           1E-12
    Mask sparsity (%):       6.8332
    Fitting Condition:        1E-10

   => Auxiliary Basis Set <=

  Basis Set: (AUG-CC-PVTZ AUX)
    Blend: AUG-CC-PVTZ-JKFIT
    Number of shells: 422
    Number of basis function: 1430
    Number of Cartesian functions: 1763
    Spherical Harmonics?: true
    Max angular momentum: 4

  ==> CPHF Iterations <==

  => Iterations <=

             Iter  Converged  Remaining    Residual
  CGR           1          0          1   1.166E-01
  CGR           2          0          1   3.466E-02
  CGR           3          0          1   1.266E-02
  CGR           4          0          1   3.257E-03
  CGR           5          0          1   1.194E-03
  CGR           6          0          1   3.795E-04
  CGR           7          0          1   1.369E-04
  CGR           8          0          1   6.539E-05
  CGR           9          0          1   2.418E-05
  CGR          10          0          1   6.901E-06
  CGR          11          0          1   1.992E-06
  CGR          12          1          0   8.108E-07

    CGRSolver converged.

	-----------------------------------------------------------
	 ==================> DF-MP2 Energies <==================== 
	-----------------------------------------------------------
	 Reference Energy          =    -364.2413209416907875 [Eh]
	 Singles Energy            =      -0.0000000000000000 [Eh]
	 Same-Spin Energy          =      -0.3763246283692312 [Eh]
	 Opposite-Spin Energy      =      -1.2757065654668951 [Eh]
	 Correlation Energy        =      -1.6520311938361263 [Eh]
	 Total Energy              =    -365.8933521355269249 [Eh]
	-----------------------------------------------------------
	 ================> DF-SCS-MP2 Energies <================== 
	-----------------------------------------------------------
	 SCS Same-Spin Scale       =       0.3333333333333333 [-]
	 SCS Opposite-Spin Scale   =       1.2000000000000000 [-]
	 SCS Same-Spin Energy      =      -0.1254415427897437 [Eh]
	 SCS Opposite-Spin Energy  =      -1.5308478785602742 [Eh]
	 SCS Correlation Energy    =      -1.6562894213500179 [Eh]
	 SCS Total Energy          =    -365.8976103630408261 [Eh]
	-----------------------------------------------------------



Properties will be evaluated at   0.000000,   0.000000,  -0.000000 [a0]

Properties computed using the MP2 density matrix

  Nuclear Dipole Moment: [e a0]
     X:    -2.6965      Y:     2.5360      Z:    -2.6125

  Electronic Dipole Moment: [e a0]
     X:     2.2936      Y:    -1.4654      Z:     1.9544

  Dipole Moment: [e a0]
     X:    -0.4030      Y:     1.0706      Z:    -0.6581     Total:     1.3197

  Dipole Moment: [D]
     X:    -1.0242      Y:     2.7211      Z:    -1.6728     Total:     3.3544


*** tstop() called on node37.bme.utexas.edu at Tue Nov  3 17:24:47 2020
Module time:
	user time   =    1029.69 seconds =      17.16 minutes
	system time =     156.73 seconds =       2.61 minutes
	total time  =        219 seconds =       3.65 minutes
Total time:
	user time   =    1378.06 seconds =      22.97 minutes
	system time =     238.60 seconds =       3.98 minutes
	total time  =        324 seconds =       5.40 minutes

    Psi4 stopped on: Tuesday, 03 November 2020 05:24PM
    Psi4 wall time for execution: 0:05:24.81

*** Psi4 exiting successfully. Buy a developer a beer!
