
    -----------------------------------------------------------------------
          Psi4: An Open-Source Ab Initio Electronic Structure Package
                               Psi4 1.3.2 release

                         Git: Rev {HEAD} ecbda83 


    R. M. Parrish, L. A. Burns, D. G. A. Smith, A. C. Simmonett,
    A. E. DePrince III, E. G. Hohenstein, U. Bozkaya, A. Yu. Sokolov,
    R. Di Remigio, R. M. Richard, J. F. Gonthier, A. M. James,
    H. R. McAlexander, A. Kumar, M. Saitow, X. Wang, B. P. Pritchard,
    P. Verma, H. F. Schaefer III, K. Patkowski, R. A. King, E. F. Valeev,
    F. A. Evangelista, J. M. Turney, T. D. Crawford, and C. D. Sherrill,
    J. Chem. Theory Comput. 13(7) pp 3185--3197 (2017).
    (doi: 10.1021/acs.jctc.7b00174)


                         Additional Contributions by
    P. Kraus, H. Kruse, M. H. Lechner, M. C. Schieber, R. A. Shaw,
    A. Alenaizan, R. Galvelis, Z. L. Glick, S. Lehtola, and J. P. Misiewicz

    -----------------------------------------------------------------------


    Psi4 started on: Sunday, 08 November 2020 07:06PM

    Process ID: 103706
    Host:       node59.bme.utexas.edu
    PSIDATADIR: /home/xy3866/psi4conda/share/psi4
    Memory:     500.0 MiB
    Threads:    8
    
  ==> Input File <==

--------------------------------------------------------------------------
#psi4
#
memory 32 gb

molecule  {
0 1
  O       -2.3004000     0.0048630     0.0003410
  N       -0.3010450    -1.1173380    -0.0002690
  C        1.1207170     1.2010130     0.0000540
  C        1.8075300    -0.0461910     0.0000640
  C        1.0639000    -1.1911280     0.0001230
  C       -1.0661860     0.0622010    -0.0003390
  C       -0.2468550     1.2588270    -0.0001630
  H        1.6948200     2.1249460     0.0001000
  H        2.8897080    -0.0994484     0.0503790
  H        1.4903610    -2.1891700     0.0001730
  H       -0.7789320     2.2044920     0.0000230
  H       -0.8600860    -1.9666840     0.0000480
units angstrom
no_reorient  #important for SAPT in psi4, default
symmetry c1  #important for SAPT in psi4, default
}

set PROPERTIES_ORIGIN ["COM"]
properties('MP2/aug-cc-pvtz', properties = ['dipole'])
--------------------------------------------------------------------------

  Memory set to  29.802 GiB by Python driver.
    SCF Algorithm Type (re)set to DF.

*** tstart() called on node59.bme.utexas.edu
*** at Sun Nov  8 19:06:22 2020

   => Loading Basis Set <=

    Name: AUG-CC-PVTZ
    Role: ORBITAL
    Keyword: BASIS
    atoms 1    entry O          line   327 file /home/xy3866/psi4conda/share/psi4/basis/aug-cc-pvtz.gbs 
    atoms 2    entry N          line   281 file /home/xy3866/psi4conda/share/psi4/basis/aug-cc-pvtz.gbs 
    atoms 3-7  entry C          line   235 file /home/xy3866/psi4conda/share/psi4/basis/aug-cc-pvtz.gbs 
    atoms 8-12 entry H          line    36 file /home/xy3866/psi4conda/share/psi4/basis/aug-cc-pvtz.gbs 


         ---------------------------------------------------------
                                   SCF
               by Justin Turney, Rob Parrish, Andy Simmonett
                          and Daniel G. A. Smith
                              RHF Reference
                        8 Threads,  30517 MiB Core
         ---------------------------------------------------------

  ==> Geometry <==

    Molecular point group: c1
    Full point group: C1

    Geometry (in Angstrom), charge = 0, multiplicity = 1:

       Center              X                  Y                   Z               Mass       
    ------------   -----------------  -----------------  -----------------  -----------------
         O           -2.254203277518     0.005673248919    -0.000181694199    15.994914619570
         N           -0.254848277518    -1.116527751081    -0.000791694199    14.003074004430
         C            1.166913722482     1.201823248919    -0.000468694199    12.000000000000
         C            1.853726722482    -0.045380751081    -0.000458694199    12.000000000000
         C            1.110096722482    -1.190317751081    -0.000399694199    12.000000000000
         C           -1.019989277518     0.063011248919    -0.000861694199    12.000000000000
         C           -0.200658277518     1.259637248919    -0.000685694199    12.000000000000
         H            1.741016722482     2.125756248919    -0.000422694199     1.007825032230
         H            2.935904722482    -0.098638151081     0.049856305801     1.007825032230
         H            1.536557722482    -2.188359751081    -0.000349694199     1.007825032230
         H           -0.732735277518     2.205302248919    -0.000499694199     1.007825032230
         H           -0.813889277518    -1.965873751081    -0.000474694199     1.007825032230

  Running in c1 symmetry.

  Rotational constants: A =      0.18921  B =      0.09219  C =      0.06199 [cm^-1]
  Rotational constants: A =   5672.43972  B =   2763.89213  C =   1858.42505 [MHz]
  Nuclear repulsion =  274.529437974404686

  Charge       = 0
  Multiplicity = 1
  Electrons    = 50
  Nalpha       = 25
  Nbeta        = 25

  ==> Algorithm <==

  SCF Algorithm Type is DF.
  DIIS enabled.
  MOM disabled.
  Fractional occupation disabled.
  Guess Type is SAD.
  Energy threshold   = 1.00e-10
  Density threshold  = 1.00e-10
  Integral threshold = 0.00e+00

  ==> Primary Basis <==

  Basis Set: AUG-CC-PVTZ
    Blend: AUG-CC-PVTZ
    Number of shells: 143
    Number of basis function: 437
    Number of Cartesian functions: 510
    Spherical Harmonics?: true
    Max angular momentum: 3

   => Loading Basis Set <=

    Name: (AUG-CC-PVTZ AUX)
    Role: JKFIT
    Keyword: DF_BASIS_SCF
    atoms 1    entry O          line   286 file /home/xy3866/psi4conda/share/psi4/basis/aug-cc-pvtz-jkfit.gbs 
    atoms 2    entry N          line   224 file /home/xy3866/psi4conda/share/psi4/basis/aug-cc-pvtz-jkfit.gbs 
    atoms 3-7  entry C          line   162 file /home/xy3866/psi4conda/share/psi4/basis/aug-cc-pvtz-jkfit.gbs 
    atoms 8-12 entry H          line    70 file /home/xy3866/psi4conda/share/psi4/basis/aug-cc-pvtz-jkfit.gbs 

  ==> Pre-Iterations <==

   -------------------------------------------------------
    Irrep   Nso     Nmo     Nalpha   Nbeta   Ndocc  Nsocc
   -------------------------------------------------------
     A        437     437       0       0       0       0
   -------------------------------------------------------
    Total     437     437      25      25      25       0
   -------------------------------------------------------

  ==> Integral Setup <==

  DFHelper Memory: AOs need 1.395 GiB; user supplied 22.352 GiB. Using in-core AOs.

  ==> MemDFJK: Density-Fitted J/K Matrices <==

    J tasked:                   Yes
    K tasked:                   Yes
    wK tasked:                   No
    OpenMP threads:               8
    Memory [MiB]:             22888
    Algorithm:                 Core
    Schwarz Cutoff:           1E-12
    Mask sparsity (%):       1.7930
    Fitting Condition:        1E-10

   => Auxiliary Basis Set <=

  Basis Set: (AUG-CC-PVTZ AUX)
    Blend: AUG-CC-PVTZ-JKFIT
    Number of shells: 280
    Number of basis function: 958
    Number of Cartesian functions: 1192
    Spherical Harmonics?: true
    Max angular momentum: 4

  Minimum eigenvalue in the overlap matrix is 2.3765801695E-06.
  Using Symmetric Orthogonalization.

  SCF Guess: Superposition of Atomic Densities via on-the-fly atomic UHF.

  ==> Iterations <==

                           Total Energy        Delta E     RMS |[F,P]|

   @DF-RHF iter SAD:  -320.97880931374590   -3.20979e+02   0.00000e+00 
   @DF-RHF iter   1:  -321.47762405975345   -4.98815e-01   1.44168e-03 DIIS
   @DF-RHF iter   2:  -321.62963523394865   -1.52011e-01   8.34740e-04 DIIS
   @DF-RHF iter   3:  -321.67731073523277   -4.76755e-02   1.62207e-04 DIIS
   @DF-RHF iter   4:  -321.68018799581506   -2.87726e-03   7.64273e-05 DIIS
   @DF-RHF iter   5:  -321.68088376333793   -6.95768e-04   1.61834e-05 DIIS
   @DF-RHF iter   6:  -321.68100389782285   -1.20134e-04   8.46068e-06 DIIS
   @DF-RHF iter   7:  -321.68103737771764   -3.34799e-05   3.64312e-06 DIIS
   @DF-RHF iter   8:  -321.68104241868127   -5.04096e-06   1.04836e-06 DIIS
   @DF-RHF iter   9:  -321.68104278749928   -3.68818e-07   3.39906e-07 DIIS
   @DF-RHF iter  10:  -321.68104282212920   -3.46299e-08   1.90342e-07 DIIS
   @DF-RHF iter  11:  -321.68104283216934   -1.00401e-08   6.54752e-08 DIIS
   @DF-RHF iter  12:  -321.68104283416471   -1.99537e-09   2.14217e-08 DIIS
   @DF-RHF iter  13:  -321.68104283437725   -2.12538e-10   8.01543e-09 DIIS
   @DF-RHF iter  14:  -321.68104283440073   -2.34763e-11   3.87804e-09 DIIS
   @DF-RHF iter  15:  -321.68104283440647   -5.74119e-12   1.24465e-09 DIIS
   @DF-RHF iter  16:  -321.68104283440704   -5.68434e-13   3.81006e-10 DIIS
   @DF-RHF iter  17:  -321.68104283440772   -6.82121e-13   1.64238e-10 DIIS
   @DF-RHF iter  18:  -321.68104283440653    1.19371e-12   4.96247e-11 DIIS
  Energy and wave function converged.


  ==> Post-Iterations <==

    Orbital Energies [Eh]
    ---------------------

    Doubly Occupied:                                                      

       1A    -20.512029     2A    -15.628755     3A    -11.357061  
       4A    -11.317133     5A    -11.276578     6A    -11.246137  
       7A    -11.243087     8A     -1.372408     9A     -1.274633  
      10A     -1.109129    11A     -1.032608    12A     -0.889020  
      13A     -0.862783    14A     -0.756294    15A     -0.696158  
      16A     -0.679304    17A     -0.639848    18A     -0.613085  
      19A     -0.605727    20A     -0.560136    21A     -0.540266  
      22A     -0.485796    23A     -0.426893    24A     -0.426287  
      25A     -0.316500  

    Virtual:                                                              

      26A      0.020405    27A      0.028375    28A      0.037346  
      29A      0.050733    30A      0.055644    31A      0.065722  
      32A      0.074967    33A      0.093662    34A      0.098967  
      35A      0.102633    36A      0.104606    37A      0.106640  
      38A      0.107913    39A      0.114039    40A      0.123166  
      41A      0.124665    42A      0.133462    43A      0.137047  
      44A      0.143582    45A      0.147363    46A      0.152328  
      47A      0.157213    48A      0.161223    49A      0.171620  
      50A      0.204814    51A      0.223107    52A      0.233838  
      53A      0.235591    54A      0.239156    55A      0.243637  
      56A      0.256856    57A      0.260081    58A      0.272323  
      59A      0.279192    60A      0.281966    61A      0.287990  
      62A      0.289393    63A      0.302440    64A      0.306131  
      65A      0.307394    66A      0.313818    67A      0.323532  
      68A      0.328055    69A      0.337712    70A      0.338405  
      71A      0.348324    72A      0.360288    73A      0.370009  
      74A      0.383409    75A      0.390269    76A      0.403734  
      77A      0.404012    78A      0.422057    79A      0.423525  
      80A      0.428758    81A      0.429703    82A      0.436163  
      83A      0.447994    84A      0.453592    85A      0.457352  
      86A      0.465511    87A      0.466835    88A      0.472038  
      89A      0.482610    90A      0.492155    91A      0.493378  
      92A      0.499309    93A      0.506688    94A      0.513550  
      95A      0.522699    96A      0.529618    97A      0.540143  
      98A      0.555071    99A      0.559683   100A      0.590765  
     101A      0.600294   102A      0.607329   103A      0.614599  
     104A      0.614873   105A      0.617775   106A      0.633876  
     107A      0.636376   108A      0.650089   109A      0.667201  
     110A      0.695431   111A      0.700439   112A      0.703105  
     113A      0.713471   114A      0.721798   115A      0.723896  
     116A      0.731181   117A      0.742485   118A      0.748555  
     119A      0.780966   120A      0.790446   121A      0.796987  
     122A      0.806331   123A      0.816700   124A      0.821790  
     125A      0.842639   126A      0.847891   127A      0.851238  
     128A      0.853219   129A      0.855072   130A      0.895667  
     131A      0.897792   132A      0.902095   133A      0.907969  
     134A      0.913362   135A      0.917406   136A      0.938856  
     137A      0.939572   138A      0.950731   139A      0.966483  
     140A      0.968702   141A      0.974493   142A      0.980965  
     143A      0.988671   144A      0.993327   145A      0.999341  
     146A      1.012933   147A      1.030942   148A      1.036112  
     149A      1.037119   150A      1.056828   151A      1.063141  
     152A      1.068813   153A      1.072892   154A      1.084677  
     155A      1.092988   156A      1.107023   157A      1.114437  
     158A      1.118812   159A      1.128967   160A      1.132973  
     161A      1.141929   162A      1.162803   163A      1.167935  
     164A      1.169951   165A      1.183025   166A      1.194121  
     167A      1.205381   168A      1.210742   169A      1.218023  
     170A      1.227798   171A      1.233007   172A      1.239179  
     173A      1.253309   174A      1.260761   175A      1.263375  
     176A      1.302694   177A      1.310678   178A      1.332303  
     179A      1.345509   180A      1.354201   181A      1.371355  
     182A      1.380504   183A      1.386487   184A      1.394446  
     185A      1.412777   186A      1.421786   187A      1.428402  
     188A      1.459050   189A      1.472816   190A      1.480360  
     191A      1.488370   192A      1.504656   193A      1.515745  
     194A      1.530949   195A      1.535430   196A      1.562759  
     197A      1.578553   198A      1.609757   199A      1.622867  
     200A      1.636918   201A      1.640661   202A      1.658429  
     203A      1.679405   204A      1.691429   205A      1.698069  
     206A      1.711357   207A      1.726632   208A      1.738356  
     209A      1.759383   210A      1.771899   211A      1.797134  
     212A      1.820598   213A      1.834641   214A      1.837374  
     215A      1.863181   216A      1.868314   217A      1.877955  
     218A      1.899403   219A      1.904860   220A      1.921597  
     221A      1.956573   222A      1.970818   223A      1.991706  
     224A      1.997421   225A      2.010968   226A      2.015210  
     227A      2.021352   228A      2.029458   229A      2.040580  
     230A      2.050499   231A      2.073894   232A      2.102268  
     233A      2.116173   234A      2.124407   235A      2.147098  
     236A      2.181502   237A      2.182367   238A      2.205796  
     239A      2.217925   240A      2.237006   241A      2.270323  
     242A      2.279996   243A      2.311867   244A      2.328277  
     245A      2.360739   246A      2.375804   247A      2.385451  
     248A      2.409330   249A      2.428658   250A      2.461085  
     251A      2.479151   252A      2.481593   253A      2.507702  
     254A      2.516611   255A      2.527594   256A      2.555077  
     257A      2.575831   258A      2.599647   259A      2.617302  
     260A      2.651470   261A      2.667556   262A      2.686261  
     263A      2.701430   264A      2.706974   265A      2.713304  
     266A      2.781299   267A      2.823253   268A      2.843971  
     269A      2.877113   270A      2.879035   271A      2.940266  
     272A      2.988641   273A      2.995020   274A      3.000898  
     275A      3.064867   276A      3.078543   277A      3.088712  
     278A      3.173749   279A      3.176121   280A      3.213069  
     281A      3.224611   282A      3.236758   283A      3.253537  
     284A      3.276819   285A      3.316792   286A      3.319012  
     287A      3.342443   288A      3.369398   289A      3.398147  
     290A      3.421343   291A      3.434899   292A      3.445108  
     293A      3.452256   294A      3.493183   295A      3.496688  
     296A      3.517617   297A      3.529604   298A      3.542582  
     299A      3.572305   300A      3.589123   301A      3.614844  
     302A      3.637117   303A      3.657240   304A      3.674059  
     305A      3.699368   306A      3.714976   307A      3.734900  
     308A      3.763671   309A      3.767499   310A      3.773654  
     311A      3.780364   312A      3.790402   313A      3.831581  
     314A      3.850062   315A      3.856462   316A      3.877674  
     317A      3.894709   318A      3.903792   319A      3.948818  
     320A      3.970947   321A      3.981038   322A      4.018950  
     323A      4.023302   324A      4.032274   325A      4.040622  
     326A      4.072608   327A      4.082495   328A      4.098977  
     329A      4.112936   330A      4.116997   331A      4.154176  
     332A      4.171216   333A      4.186067   334A      4.213701  
     335A      4.229458   336A      4.254550   337A      4.284563  
     338A      4.297101   339A      4.309574   340A      4.324323  
     341A      4.354779   342A      4.370610   343A      4.380978  
     344A      4.388837   345A      4.398275   346A      4.414905  
     347A      4.440335   348A      4.458912   349A      4.500460  
     350A      4.511413   351A      4.517099   352A      4.551909  
     353A      4.623824   354A      4.674104   355A      4.682429  
     356A      4.716097   357A      4.747992   358A      4.760546  
     359A      4.818868   360A      4.830023   361A      4.831405  
     362A      4.844161   363A      4.866605   364A      4.895344  
     365A      4.935350   366A      4.960884   367A      4.980851  
     368A      5.003564   369A      5.019527   370A      5.032367  
     371A      5.048318   372A      5.061518   373A      5.098341  
     374A      5.112946   375A      5.121974   376A      5.132953  
     377A      5.163111   378A      5.194221   379A      5.216337  
     380A      5.261276   381A      5.300473   382A      5.345029  
     383A      5.377894   384A      5.424552   385A      5.458097  
     386A      5.484065   387A      5.505031   388A      5.527246  
     389A      5.541179   390A      5.601373   391A      5.609769  
     392A      5.646807   393A      5.710033   394A      5.723090  
     395A      5.748041   396A      5.782533   397A      5.816950  
     398A      5.857424   399A      5.955564   400A      5.989030  
     401A      6.014993   402A      6.093199   403A      6.128665  
     404A      6.158116   405A      6.195198   406A      6.245850  
     407A      6.340541   408A      6.500491   409A      6.553894  
     410A      6.613095   411A      6.667845   412A      6.693897  
     413A      6.741909   414A      6.754627   415A      6.833633  
     416A      6.857069   417A      6.994560   418A      7.014858  
     419A      7.025680   420A      7.160132   421A      7.205932  
     422A      7.250520   423A      7.411466   424A      7.413989  
     425A      7.595673   426A      7.720352   427A      7.801928  
     428A      7.886216   429A      7.921297   430A      8.000847  
     431A     15.662546   432A     16.097749   433A     16.534411  
     434A     18.494663   435A     19.125529   436A     19.344934  
     437A     19.544459  

    Final Occupation by Irrep:
              A 
    DOCC [    25 ]

  @DF-RHF Final Energy:  -321.68104283440653

   => Energetics <=

    Nuclear Repulsion Energy =            274.5294379744046864
    One-Electron Energy =                -980.6856549240520735
    Two-Electron Energy =                 384.4751741152408613
    Total Energy =                       -321.6810428344065258

Computation Completed

*** tstop() called on node59.bme.utexas.edu at Sun Nov  8 19:06:34 2020
Module time:
	user time   =      74.63 seconds =       1.24 minutes
	system time =       2.65 seconds =       0.04 minutes
	total time  =         12 seconds =       0.20 minutes
Total time:
	user time   =      74.63 seconds =       1.24 minutes
	system time =       2.65 seconds =       0.04 minutes
	total time  =         12 seconds =       0.20 minutes
   => Loading Basis Set <=

    Name: (AUG-CC-PVTZ AUX)
    Role: RIFIT
    Keyword: DF_BASIS_MP2
    atoms 1    entry O          line   264 file /home/xy3866/psi4conda/share/psi4/basis/aug-cc-pvtz-ri.gbs 
    atoms 2    entry N          line   206 file /home/xy3866/psi4conda/share/psi4/basis/aug-cc-pvtz-ri.gbs 
    atoms 3-7  entry C          line   148 file /home/xy3866/psi4conda/share/psi4/basis/aug-cc-pvtz-ri.gbs 
    atoms 8-12 entry H          line    30 file /home/xy3866/psi4conda/share/psi4/basis/aug-cc-pvtz-ri.gbs 


*** tstart() called on node59.bme.utexas.edu
*** at Sun Nov  8 19:06:34 2020


  //>>>>>>>>>>>>>>>>>>>>>>>>>>>>>>>>>>>//
  //               DFMP2               //
  //<<<<<<<<<<<<<<<<<<<<<<<<<<<<<<<<<<<//

	 --------------------------------------------------------
	                          DF-MP2                         
	      2nd-Order Density-Fitted Moller-Plesset Theory     
	              RMP2 Wavefunction,   8 Threads             
	                                                         
	        Rob Parrish, Justin Turney, Andy Simmonett,      
	           Ed Hohenstein, and C. David Sherrill          
	 --------------------------------------------------------

   => Auxiliary Basis Set <=

  Basis Set: (AUG-CC-PVTZ AUX)
    Blend: AUG-CC-PVTZ-RI
    Number of shells: 266
    Number of basis function: 972
    Number of Cartesian functions: 1227
    Spherical Harmonics?: true
    Max angular momentum: 4

	 --------------------------------------------------------
	                 NBF =   437, NAUX =   972
	 --------------------------------------------------------
	   CLASS    FOCC     OCC    AOCC    AVIR     VIR    FVIR
	   PAIRS       0      25      25     412     412       0
	 --------------------------------------------------------

  DFHelper Memory: AOs need 1.395 GiB; user supplied 22.352 GiB. Using in-core AOs.


         ------------------------------------------------------------
                                     CPHF                           
                                  Rob Parrish                       
         ------------------------------------------------------------

  ==> Geometry <==

    Molecular point group: c1
    Full point group: C1

    Geometry (in Angstrom), charge = 0, multiplicity = 1:

       Center              X                  Y                   Z               Mass       
    ------------   -----------------  -----------------  -----------------  -----------------
         O           -2.254203277518     0.005673248919    -0.000181694199    15.994914619570
         N           -0.254848277518    -1.116527751081    -0.000791694199    14.003074004430
         C            1.166913722482     1.201823248919    -0.000468694199    12.000000000000
         C            1.853726722482    -0.045380751081    -0.000458694199    12.000000000000
         C            1.110096722482    -1.190317751081    -0.000399694199    12.000000000000
         C           -1.019989277518     0.063011248919    -0.000861694199    12.000000000000
         C           -0.200658277518     1.259637248919    -0.000685694199    12.000000000000
         H            1.741016722482     2.125756248919    -0.000422694199     1.007825032230
         H            2.935904722482    -0.098638151081     0.049856305801     1.007825032230
         H            1.536557722482    -2.188359751081    -0.000349694199     1.007825032230
         H           -0.732735277518     2.205302248919    -0.000499694199     1.007825032230
         H           -0.813889277518    -1.965873751081    -0.000474694199     1.007825032230

  Nuclear repulsion =  274.529437974404686
  Reference energy  = -321.681042834406526

  ==> Basis Set <==

  Basis Set: AUG-CC-PVTZ
    Blend: AUG-CC-PVTZ
    Number of shells: 143
    Number of basis function: 437
    Number of Cartesian functions: 510
    Spherical Harmonics?: true
    Max angular momentum: 3

  ==> CGRSolver (by Rob Parrish) <==

   Number of roots    =         1
   Preconditioning    =    JACOBI
   Convergence cutoff =     1E-06
   Maximum iterations =       100

  ==> CPHFRHamiltonian (by Rob Parrish) <== 

  ==> MemDFJK: Density-Fitted J/K Matrices <==

    J tasked:                   Yes
    K tasked:                   Yes
    wK tasked:                   No
    OpenMP threads:               8
    Memory [MiB]:             22888
    Algorithm:                 Core
    Schwarz Cutoff:           1E-12
    Mask sparsity (%):       1.7930
    Fitting Condition:        1E-10

   => Auxiliary Basis Set <=

  Basis Set: (AUG-CC-PVTZ AUX)
    Blend: AUG-CC-PVTZ-JKFIT
    Number of shells: 280
    Number of basis function: 958
    Number of Cartesian functions: 1192
    Spherical Harmonics?: true
    Max angular momentum: 4

  ==> CPHF Iterations <==

  => Iterations <=

             Iter  Converged  Remaining    Residual
  CGR           1          0          1   1.486E-01
  CGR           2          0          1   5.327E-02
  CGR           3          0          1   2.639E-02
  CGR           4          0          1   7.269E-03
  CGR           5          0          1   2.734E-03
  CGR           6          0          1   1.382E-03
  CGR           7          0          1   4.324E-04
  CGR           8          0          1   1.439E-04
  CGR           9          0          1   5.568E-05
  CGR          10          0          1   2.304E-05
  CGR          11          0          1   8.469E-06
  CGR          12          0          1   4.003E-06
  CGR          13          0          1   1.150E-06
  CGR          14          1          0   2.300E-07

    CGRSolver converged.

	-----------------------------------------------------------
	 ==================> DF-MP2 Energies <==================== 
	-----------------------------------------------------------
	 Reference Energy          =    -321.6810428344065258 [Eh]
	 Singles Energy            =      -0.0000000000000000 [Eh]
	 Same-Spin Energy          =      -0.3356374334265960 [Eh]
	 Opposite-Spin Energy      =      -1.0274612484998020 [Eh]
	 Correlation Energy        =      -1.3630986819263979 [Eh]
	 Total Energy              =    -323.0441415163328998 [Eh]
	-----------------------------------------------------------
	 ================> DF-SCS-MP2 Energies <================== 
	-----------------------------------------------------------
	 SCS Same-Spin Scale       =       0.3333333333333333 [-]
	 SCS Opposite-Spin Scale   =       1.2000000000000000 [-]
	 SCS Same-Spin Energy      =      -0.1118791444755320 [Eh]
	 SCS Opposite-Spin Energy  =      -1.2329534981997623 [Eh]
	 SCS Correlation Energy    =      -1.3448326426752943 [Eh]
	 SCS Total Energy          =    -323.0258754770817973 [Eh]
	-----------------------------------------------------------



Properties will be evaluated at   0.000000,   0.000000,   0.000000 [a0]

Properties computed using the MP2 density matrix

  Nuclear Dipole Moment: [e a0]
     X:     4.3649      Y:     0.0766      Z:     0.0451

  Electronic Dipole Moment: [e a0]
     X:    -2.7577      Y:    -0.5879      Z:    -0.0306

  Dipole Moment: [e a0]
     X:     1.6072      Y:    -0.5113      Z:     0.0145     Total:     1.6867

  Dipole Moment: [D]
     X:     4.0851      Y:    -1.2997      Z:     0.0368     Total:     4.2871


*** tstop() called on node59.bme.utexas.edu at Sun Nov  8 19:07:06 2020
Module time:
	user time   =     216.64 seconds =       3.61 minutes
	system time =       5.62 seconds =       0.09 minutes
	total time  =         32 seconds =       0.53 minutes
Total time:
	user time   =     292.26 seconds =       4.87 minutes
	system time =       8.35 seconds =       0.14 minutes
	total time  =         44 seconds =       0.73 minutes

    Psi4 stopped on: Sunday, 08 November 2020 07:07PM
    Psi4 wall time for execution: 0:00:43.94

*** Psi4 exiting successfully. Buy a developer a beer!
