882246                                                                  
Freq      RMP2-FC                                                     6-31G(d)            
Number of atoms                            I               21
Info1-9                                    I   N=           9
          33          31        1002           0           0         100
           6           2           1
Charge                                     I                0
Multiplicity                               I                1
Number of electrons                        I              114
Number of alpha electrons                  I               57
Number of beta electrons                   I               57
Number of basis functions                  I              228
Number of independent functions            I              228
Number of point charges in /Mol/           I                0
Number of translation vectors              I                0
Atomic numbers                             I   N=          21
          16           9           9           9           8           8
           6           6           6           6           6           6
           6           6           1           1           1           1
           1           1           1
Nuclear charges                            R   N=          21
  1.60000000E+01  9.00000000E+00  9.00000000E+00  9.00000000E+00  8.00000000E+00
  8.00000000E+00  6.00000000E+00  6.00000000E+00  6.00000000E+00  6.00000000E+00
  6.00000000E+00  6.00000000E+00  6.00000000E+00  6.00000000E+00  1.00000000E+00
  1.00000000E+00  1.00000000E+00  1.00000000E+00  1.00000000E+00  1.00000000E+00
  1.00000000E+00
Current cartesian coordinates              R   N=          63
  2.35116418E+00  1.96288457E-03 -1.62341700E+00  2.99976675E+00 -2.06605830E+00
  2.84618067E+00  6.26353425E+00 -1.71010138E-03  1.38703406E+00  2.99982096E+00
  2.05920828E+00  2.85114404E+00  3.05183475E+00 -2.42948504E+00 -2.74337870E+00
  3.05182788E+00  2.43611166E+00 -2.73750050E+00 -9.10378176E-01  1.10038516E-03
 -9.11664030E-01 -2.15733020E+00 -2.30623090E+00 -6.18723866E-01 -2.15733916E+00
  2.30771714E+00 -6.13191145E-01 -6.03843664E+00 -3.41302556E-04  2.82357939E-01
  3.74667047E+00 -1.90670809E-03  1.57923669E+00 -4.72384379E+00 -2.27917970E+00
 -3.06073334E-02 -4.72385323E+00  2.27924576E+00 -2.51403425E-02 -8.79341130E+00
 -1.20203695E-03  9.92730611E-01 -1.14474231E+00 -4.06974073E+00 -9.01928364E-01
 -1.14475761E+00  4.07190458E+00 -8.92165632E-01 -5.72565415E+00 -4.06270980E+00
  1.80553419E-01 -5.72566985E+00  4.06226048E+00  1.90298951E-01 -9.75221371E+00
  1.67354832E+00  2.54976402E-01 -9.75223728E+00 -1.67410457E+00  2.50825696E-01
 -9.02321852E+00 -3.75213871E-03  3.04992502E+00
Force Field                                I                0
Int Atom Types                             I   N=          21
           0           0           0           0           0           0
           0           0           0           0           0           0
           0           0           0           0           0           0
           0           0           0
MM charges                                 R   N=          21
  0.00000000E+00  0.00000000E+00  0.00000000E+00  0.00000000E+00  0.00000000E+00
  0.00000000E+00  0.00000000E+00  0.00000000E+00  0.00000000E+00  0.00000000E+00
  0.00000000E+00  0.00000000E+00  0.00000000E+00  0.00000000E+00  0.00000000E+00
  0.00000000E+00  0.00000000E+00  0.00000000E+00  0.00000000E+00  0.00000000E+00
  0.00000000E+00
Integer atomic weights                     I   N=          21
          32          19          19          19          16          16
          12          12          12          12          12          12
          12          12           1           1           1           1
           1           1           1
Real atomic weights                        R   N=          21
  3.19720718E+01  1.89984032E+01  1.89984032E+01  1.89984032E+01  1.59949146E+01
  1.59949146E+01  1.20000000E+01  1.20000000E+01  1.20000000E+01  1.20000000E+01
  1.20000000E+01  1.20000000E+01  1.20000000E+01  1.20000000E+01  1.00782504E+00
  1.00782504E+00  1.00782504E+00  1.00782504E+00  1.00782504E+00  1.00782504E+00
  1.00782504E+00
Atom fragment info                         I   N=          21
           0           0           0           0           0           0
           0           0           0           0           0           0
           0           0           0           0           0           0
           0           0           0
Atom residue num                           I   N=          21
           0           0           0           0           0           0
           0           0           0           0           0           0
           0           0           0           0           0           0
           0           0           0
Nuclear spins                              I   N=          21
           0           1           1           1           0           0
           0           0           0           0           0           0
           0           0           1           1           1           1
           1           1           1
Nuclear ZEff                               R   N=          21
 -1.36000000E+01 -6.75000000E+00 -6.75000000E+00 -6.75000000E+00 -5.60000000E+00
 -5.60000000E+00 -3.60000000E+00 -3.60000000E+00 -3.60000000E+00 -3.60000000E+00
 -3.60000000E+00 -3.60000000E+00 -3.60000000E+00 -3.60000000E+00 -1.00000000E+00
 -1.00000000E+00 -1.00000000E+00 -1.00000000E+00 -1.00000000E+00 -1.00000000E+00
 -1.00000000E+00
Nuclear QMom                               R   N=          21
  0.00000000E+00  0.00000000E+00  0.00000000E+00  0.00000000E+00  0.00000000E+00
  0.00000000E+00  0.00000000E+00  0.00000000E+00  0.00000000E+00  0.00000000E+00
  0.00000000E+00  0.00000000E+00  0.00000000E+00  0.00000000E+00  0.00000000E+00
  0.00000000E+00  0.00000000E+00  0.00000000E+00  0.00000000E+00  0.00000000E+00
  0.00000000E+00
Nuclear GFac                               R   N=          21
  0.00000000E+00  2.62886700E+00  2.62886700E+00  2.62886700E+00  0.00000000E+00
  0.00000000E+00  0.00000000E+00  0.00000000E+00  0.00000000E+00  0.00000000E+00
  0.00000000E+00  0.00000000E+00  0.00000000E+00  0.00000000E+00  2.79284600E+00
  2.79284600E+00  2.79284600E+00  2.79284600E+00  2.79284600E+00  2.79284600E+00
  2.79284600E+00
MicOpt                                     I   N=          21
          -1          -1          -1          -1          -1          -1
          -1          -1          -1          -1          -1          -1
          -1          -1          -1          -1          -1          -1
          -1          -1          -1
Number of contracted shells                I               71
Number of primitive shells                 I              188
Pure/Cartesian d shells                    I                1
Pure/Cartesian f shells                    I                0
Highest angular momentum                   I                2
Largest degree of contraction              I                6
Shell types                                I   N=          71
           0          -1          -1          -1           2           0
          -1          -1           2           0          -1          -1
           2           0          -1          -1           2           0
          -1          -1           2           0          -1          -1
           2           0          -1          -1           2           0
          -1          -1           2           0          -1          -1
           2           0          -1          -1           2           0
          -1          -1           2           0          -1          -1
           2           0          -1          -1           2           0
          -1          -1           2           0           0           0
           0           0           0           0           0           0
           0           0           0           0           0
Number of primitives per shell             I   N=          71
           6           6           3           1           1           6
           3           1           1           6           3           1
           1           6           3           1           1           6
           3           1           1           6           3           1
           1           6           3           1           1           6
           3           1           1           6           3           1
           1           6           3           1           1           6
           3           1           1           6           3           1
           1           6           3           1           1           6
           3           1           1           3           1           3
           1           3           1           3           1           3
           1           3           1           3           1
Shell to atom map                          I   N=          71
           1           1           1           1           1           2
           2           2           2           3           3           3
           3           4           4           4           4           5
           5           5           5           6           6           6
           6           7           7           7           7           8
           8           8           8           9           9           9
           9          10          10          10          10          11
          11          11          11          12          12          12
          12          13          13          13          13          14
          14          14          14          15          15          16
          16          17          17          18          18          19
          19          20          20          21          21
Primitive exponents                        R   N=         188
  2.19171000E+04  3.30149000E+03  7.54146000E+02  2.12711000E+02  6.79896000E+01
  2.30515000E+01  4.23735000E+02  1.00710000E+02  3.21599000E+01  1.18079000E+01
  4.63110000E+00  1.87025000E+00  2.61584000E+00  9.22167000E-01  3.41287000E-01
  1.17167000E-01  6.50000000E-01  7.00171309E+03  1.05136609E+03  2.39285690E+02
  6.73974453E+01  2.15199573E+01  7.40310130E+00  2.08479528E+01  4.80830834E+00
  1.34406986E+00  3.58151393E-01  8.00000000E-01  7.00171309E+03  1.05136609E+03
  2.39285690E+02  6.73974453E+01  2.15199573E+01  7.40310130E+00  2.08479528E+01
  4.80830834E+00  1.34406986E+00  3.58151393E-01  8.00000000E-01  7.00171309E+03
  1.05136609E+03  2.39285690E+02  6.73974453E+01  2.15199573E+01  7.40310130E+00
  2.08479528E+01  4.80830834E+00  1.34406986E+00  3.58151393E-01  8.00000000E-01
  5.48467166E+03  8.25234946E+02  1.88046958E+02  5.29645000E+01  1.68975704E+01
  5.79963534E+00  1.55396162E+01  3.59993359E+00  1.01376175E+00  2.70005823E-01
  8.00000000E-01  5.48467166E+03  8.25234946E+02  1.88046958E+02  5.29645000E+01
  1.68975704E+01  5.79963534E+00  1.55396162E+01  3.59993359E+00  1.01376175E+00
  2.70005823E-01  8.00000000E-01  3.04752488E+03  4.57369518E+02  1.03948685E+02
  2.92101553E+01  9.28666296E+00  3.16392696E+00  7.86827235E+00  1.88128854E+00
  5.44249258E-01  1.68714478E-01  8.00000000E-01  3.04752488E+03  4.57369518E+02
  1.03948685E+02  2.92101553E+01  9.28666296E+00  3.16392696E+00  7.86827235E+00
  1.88128854E+00  5.44249258E-01  1.68714478E-01  8.00000000E-01  3.04752488E+03
  4.57369518E+02  1.03948685E+02  2.92101553E+01  9.28666296E+00  3.16392696E+00
  7.86827235E+00  1.88128854E+00  5.44249258E-01  1.68714478E-01  8.00000000E-01
  3.04752488E+03  4.57369518E+02  1.03948685E+02  2.92101553E+01  9.28666296E+00
  3.16392696E+00  7.86827235E+00  1.88128854E+00  5.44249258E-01  1.68714478E-01
  8.00000000E-01  3.04752488E+03  4.57369518E+02  1.03948685E+02  2.92101553E+01
  9.28666296E+00  3.16392696E+00  7.86827235E+00  1.88128854E+00  5.44249258E-01
  1.68714478E-01  8.00000000E-01  3.04752488E+03  4.57369518E+02  1.03948685E+02
  2.92101553E+01  9.28666296E+00  3.16392696E+00  7.86827235E+00  1.88128854E+00
  5.44249258E-01  1.68714478E-01  8.00000000E-01  3.04752488E+03  4.57369518E+02
  1.03948685E+02  2.92101553E+01  9.28666296E+00  3.16392696E+00  7.86827235E+00
  1.88128854E+00  5.44249258E-01  1.68714478E-01  8.00000000E-01  3.04752488E+03
  4.57369518E+02  1.03948685E+02  2.92101553E+01  9.28666296E+00  3.16392696E+00
  7.86827235E+00  1.88128854E+00  5.44249258E-01  1.68714478E-01  8.00000000E-01
  1.87311370E+01  2.82539436E+00  6.40121692E-01  1.61277759E-01  1.87311370E+01
  2.82539436E+00  6.40121692E-01  1.61277759E-01  1.87311370E+01  2.82539436E+00
  6.40121692E-01  1.61277759E-01  1.87311370E+01  2.82539436E+00  6.40121692E-01
  1.61277759E-01  1.87311370E+01  2.82539436E+00  6.40121692E-01  1.61277759E-01
  1.87311370E+01  2.82539436E+00  6.40121692E-01  1.61277759E-01  1.87311370E+01
  2.82539436E+00  6.40121692E-01  1.61277759E-01
Contraction coefficients                   R   N=         188
  1.86924085E-03  1.42303065E-02  6.96962317E-02  2.38487108E-01  4.83307220E-01
  3.38074154E-01 -2.37677050E-03 -3.16930067E-02 -1.13317024E-01  5.60900118E-02
  5.92255124E-01  4.55006095E-01 -2.50373114E-01  6.69567631E-02  1.05450627E+00
  1.00000000E+00  1.00000000E+00  1.81961690E-03  1.39160796E-02  6.84053245E-02
  2.33185760E-01  4.71267439E-01  3.56618546E-01 -1.08506975E-01 -1.46451658E-01
  1.12868858E+00  1.00000000E+00  1.00000000E+00  1.81961690E-03  1.39160796E-02
  6.84053245E-02  2.33185760E-01  4.71267439E-01  3.56618546E-01 -1.08506975E-01
 -1.46451658E-01  1.12868858E+00  1.00000000E+00  1.00000000E+00  1.81961690E-03
  1.39160796E-02  6.84053245E-02  2.33185760E-01  4.71267439E-01  3.56618546E-01
 -1.08506975E-01 -1.46451658E-01  1.12868858E+00  1.00000000E+00  1.00000000E+00
  1.83107443E-03  1.39501722E-02  6.84450781E-02  2.32714336E-01  4.70192898E-01
  3.58520853E-01 -1.10777550E-01 -1.48026263E-01  1.13076702E+00  1.00000000E+00
  1.00000000E+00  1.83107443E-03  1.39501722E-02  6.84450781E-02  2.32714336E-01
  4.70192898E-01  3.58520853E-01 -1.10777550E-01 -1.48026263E-01  1.13076702E+00
  1.00000000E+00  1.00000000E+00  1.83473713E-03  1.40373228E-02  6.88426223E-02
  2.32184443E-01  4.67941348E-01  3.62311985E-01 -1.19332420E-01 -1.60854152E-01
  1.14345644E+00  1.00000000E+00  1.00000000E+00  1.83473713E-03  1.40373228E-02
  6.88426223E-02  2.32184443E-01  4.67941348E-01  3.62311985E-01 -1.19332420E-01
 -1.60854152E-01  1.14345644E+00  1.00000000E+00  1.00000000E+00  1.83473713E-03
  1.40373228E-02  6.88426223E-02  2.32184443E-01  4.67941348E-01  3.62311985E-01
 -1.19332420E-01 -1.60854152E-01  1.14345644E+00  1.00000000E+00  1.00000000E+00
  1.83473713E-03  1.40373228E-02  6.88426223E-02  2.32184443E-01  4.67941348E-01
  3.62311985E-01 -1.19332420E-01 -1.60854152E-01  1.14345644E+00  1.00000000E+00
  1.00000000E+00  1.83473713E-03  1.40373228E-02  6.88426223E-02  2.32184443E-01
  4.67941348E-01  3.62311985E-01 -1.19332420E-01 -1.60854152E-01  1.14345644E+00
  1.00000000E+00  1.00000000E+00  1.83473713E-03  1.40373228E-02  6.88426223E-02
  2.32184443E-01  4.67941348E-01  3.62311985E-01 -1.19332420E-01 -1.60854152E-01
  1.14345644E+00  1.00000000E+00  1.00000000E+00  1.83473713E-03  1.40373228E-02
  6.88426223E-02  2.32184443E-01  4.67941348E-01  3.62311985E-01 -1.19332420E-01
 -1.60854152E-01  1.14345644E+00  1.00000000E+00  1.00000000E+00  1.83473713E-03
  1.40373228E-02  6.88426223E-02  2.32184443E-01  4.67941348E-01  3.62311985E-01
 -1.19332420E-01 -1.60854152E-01  1.14345644E+00  1.00000000E+00  1.00000000E+00
  3.34946043E-02  2.34726953E-01  8.13757326E-01  1.00000000E+00  3.34946043E-02
  2.34726953E-01  8.13757326E-01  1.00000000E+00  3.34946043E-02  2.34726953E-01
  8.13757326E-01  1.00000000E+00  3.34946043E-02  2.34726953E-01  8.13757326E-01
  1.00000000E+00  3.34946043E-02  2.34726953E-01  8.13757326E-01  1.00000000E+00
  3.34946043E-02  2.34726953E-01  8.13757326E-01  1.00000000E+00  3.34946043E-02
  2.34726953E-01  8.13757326E-01  1.00000000E+00
P(S=P) Contraction coefficients            R   N=         188
  0.00000000E+00  0.00000000E+00  0.00000000E+00  0.00000000E+00  0.00000000E+00
  0.00000000E+00  4.06100998E-03  3.06812999E-02  1.30451999E-01  3.27204999E-01
  4.52850998E-01  2.56041999E-01 -1.45104895E-02  3.10262776E-01  7.54482456E-01
  1.00000000E+00  0.00000000E+00  0.00000000E+00  0.00000000E+00  0.00000000E+00
  0.00000000E+00  0.00000000E+00  0.00000000E+00  7.16287242E-02  3.45912103E-01
  7.22469956E-01  1.00000000E+00  0.00000000E+00  0.00000000E+00  0.00000000E+00
  0.00000000E+00  0.00000000E+00  0.00000000E+00  0.00000000E+00  7.16287242E-02
  3.45912103E-01  7.22469956E-01  1.00000000E+00  0.00000000E+00  0.00000000E+00
  0.00000000E+00  0.00000000E+00  0.00000000E+00  0.00000000E+00  0.00000000E+00
  7.16287242E-02  3.45912103E-01  7.22469956E-01  1.00000000E+00  0.00000000E+00
  0.00000000E+00  0.00000000E+00  0.00000000E+00  0.00000000E+00  0.00000000E+00
  0.00000000E+00  7.08742682E-02  3.39752839E-01  7.27158577E-01  1.00000000E+00
  0.00000000E+00  0.00000000E+00  0.00000000E+00  0.00000000E+00  0.00000000E+00
  0.00000000E+00  0.00000000E+00  7.08742682E-02  3.39752839E-01  7.27158577E-01
  1.00000000E+00  0.00000000E+00  0.00000000E+00  0.00000000E+00  0.00000000E+00
  0.00000000E+00  0.00000000E+00  0.00000000E+00  6.89990666E-02  3.16423961E-01
  7.44308291E-01  1.00000000E+00  0.00000000E+00  0.00000000E+00  0.00000000E+00
  0.00000000E+00  0.00000000E+00  0.00000000E+00  0.00000000E+00  6.89990666E-02
  3.16423961E-01  7.44308291E-01  1.00000000E+00  0.00000000E+00  0.00000000E+00
  0.00000000E+00  0.00000000E+00  0.00000000E+00  0.00000000E+00  0.00000000E+00
  6.89990666E-02  3.16423961E-01  7.44308291E-01  1.00000000E+00  0.00000000E+00
  0.00000000E+00  0.00000000E+00  0.00000000E+00  0.00000000E+00  0.00000000E+00
  0.00000000E+00  6.89990666E-02  3.16423961E-01  7.44308291E-01  1.00000000E+00
  0.00000000E+00  0.00000000E+00  0.00000000E+00  0.00000000E+00  0.00000000E+00
  0.00000000E+00  0.00000000E+00  6.89990666E-02  3.16423961E-01  7.44308291E-01
  1.00000000E+00  0.00000000E+00  0.00000000E+00  0.00000000E+00  0.00000000E+00
  0.00000000E+00  0.00000000E+00  0.00000000E+00  6.89990666E-02  3.16423961E-01
  7.44308291E-01  1.00000000E+00  0.00000000E+00  0.00000000E+00  0.00000000E+00
  0.00000000E+00  0.00000000E+00  0.00000000E+00  0.00000000E+00  6.89990666E-02
  3.16423961E-01  7.44308291E-01  1.00000000E+00  0.00000000E+00  0.00000000E+00
  0.00000000E+00  0.00000000E+00  0.00000000E+00  0.00000000E+00  0.00000000E+00
  6.89990666E-02  3.16423961E-01  7.44308291E-01  1.00000000E+00  0.00000000E+00
  0.00000000E+00  0.00000000E+00  0.00000000E+00  0.00000000E+00  0.00000000E+00
  0.00000000E+00  0.00000000E+00  0.00000000E+00  0.00000000E+00  0.00000000E+00
  0.00000000E+00  0.00000000E+00  0.00000000E+00  0.00000000E+00  0.00000000E+00
  0.00000000E+00  0.00000000E+00  0.00000000E+00  0.00000000E+00  0.00000000E+00
  0.00000000E+00  0.00000000E+00  0.00000000E+00  0.00000000E+00  0.00000000E+00
  0.00000000E+00  0.00000000E+00  0.00000000E+00
Coordinates of each shell                  R   N=         213
  2.35116418E+00  1.96288457E-03 -1.62341700E+00  2.35116418E+00  1.96288457E-03
 -1.62341700E+00  2.35116418E+00  1.96288457E-03 -1.62341700E+00  2.35116418E+00
  1.96288457E-03 -1.62341700E+00  2.35116418E+00  1.96288457E-03 -1.62341700E+00
  2.99976675E+00 -2.06605830E+00  2.84618067E+00  2.99976675E+00 -2.06605830E+00
  2.84618067E+00  2.99976675E+00 -2.06605830E+00  2.84618067E+00  2.99976675E+00
 -2.06605830E+00  2.84618067E+00  6.26353425E+00 -1.71010138E-03  1.38703406E+00
  6.26353425E+00 -1.71010138E-03  1.38703406E+00  6.26353425E+00 -1.71010138E-03
  1.38703406E+00  6.26353425E+00 -1.71010138E-03  1.38703406E+00  2.99982096E+00
  2.05920828E+00  2.85114404E+00  2.99982096E+00  2.05920828E+00  2.85114404E+00
  2.99982096E+00  2.05920828E+00  2.85114404E+00  2.99982096E+00  2.05920828E+00
  2.85114404E+00  3.05183475E+00 -2.42948504E+00 -2.74337870E+00  3.05183475E+00
 -2.42948504E+00 -2.74337870E+00  3.05183475E+00 -2.42948504E+00 -2.74337870E+00
  3.05183475E+00 -2.42948504E+00 -2.74337870E+00  3.05182788E+00  2.43611166E+00
 -2.73750050E+00  3.05182788E+00  2.43611166E+00 -2.73750050E+00  3.05182788E+00
  2.43611166E+00 -2.73750050E+00  3.05182788E+00  2.43611166E+00 -2.73750050E+00
 -9.10378176E-01  1.10038516E-03 -9.11664030E-01 -9.10378176E-01  1.10038516E-03
 -9.11664030E-01 -9.10378176E-01  1.10038516E-03 -9.11664030E-01 -9.10378176E-01
  1.10038516E-03 -9.11664030E-01 -2.15733020E+00 -2.30623090E+00 -6.18723866E-01
 -2.15733020E+00 -2.30623090E+00 -6.18723866E-01 -2.15733020E+00 -2.30623090E+00
 -6.18723866E-01 -2.15733020E+00 -2.30623090E+00 -6.18723866E-01 -2.15733916E+00
  2.30771714E+00 -6.13191145E-01 -2.15733916E+00  2.30771714E+00 -6.13191145E-01
 -2.15733916E+00  2.30771714E+00 -6.13191145E-01 -2.15733916E+00  2.30771714E+00
 -6.13191145E-01 -6.03843664E+00 -3.41302556E-04  2.82357939E-01 -6.03843664E+00
 -3.41302556E-04  2.82357939E-01 -6.03843664E+00 -3.41302556E-04  2.82357939E-01
 -6.03843664E+00 -3.41302556E-04  2.82357939E-01  3.74667047E+00 -1.90670809E-03
  1.57923669E+00  3.74667047E+00 -1.90670809E-03  1.57923669E+00  3.74667047E+00
 -1.90670809E-03  1.57923669E+00  3.74667047E+00 -1.90670809E-03  1.57923669E+00
 -4.72384379E+00 -2.27917970E+00 -3.06073334E-02 -4.72384379E+00 -2.27917970E+00
 -3.06073334E-02 -4.72384379E+00 -2.27917970E+00 -3.06073334E-02 -4.72384379E+00
 -2.27917970E+00 -3.06073334E-02 -4.72385323E+00  2.27924576E+00 -2.51403425E-02
 -4.72385323E+00  2.27924576E+00 -2.51403425E-02 -4.72385323E+00  2.27924576E+00
 -2.51403425E-02 -4.72385323E+00  2.27924576E+00 -2.51403425E-02 -8.79341130E+00
 -1.20203695E-03  9.92730611E-01 -8.79341130E+00 -1.20203695E-03  9.92730611E-01
 -8.79341130E+00 -1.20203695E-03  9.92730611E-01 -8.79341130E+00 -1.20203695E-03
  9.92730611E-01 -1.14474231E+00 -4.06974073E+00 -9.01928364E-01 -1.14474231E+00
 -4.06974073E+00 -9.01928364E-01 -1.14475761E+00  4.07190458E+00 -8.92165632E-01
 -1.14475761E+00  4.07190458E+00 -8.92165632E-01 -5.72565415E+00 -4.06270980E+00
  1.80553419E-01 -5.72565415E+00 -4.06270980E+00  1.80553419E-01 -5.72566985E+00
  4.06226048E+00  1.90298951E-01 -5.72566985E+00  4.06226048E+00  1.90298951E-01
 -9.75221371E+00  1.67354832E+00  2.54976402E-01 -9.75221371E+00  1.67354832E+00
  2.54976402E-01 -9.75223728E+00 -1.67410457E+00  2.50825696E-01 -9.75223728E+00
 -1.67410457E+00  2.50825696E-01 -9.02321852E+00 -3.75213871E-03  3.04992502E+00
 -9.02321852E+00 -3.75213871E-03  3.04992502E+00
Constraint Structure                       R   N=          63
  2.35116418E+00  1.96288457E-03 -1.62341700E+00  2.99976675E+00 -2.06605830E+00
  2.84618067E+00  6.26353425E+00 -1.71010138E-03  1.38703406E+00  2.99982096E+00
  2.05920828E+00  2.85114404E+00  3.05183475E+00 -2.42948504E+00 -2.74337870E+00
  3.05182788E+00  2.43611166E+00 -2.73750050E+00 -9.10378176E-01  1.10038516E-03
 -9.11664030E-01 -2.15733020E+00 -2.30623090E+00 -6.18723866E-01 -2.15733916E+00
  2.30771714E+00 -6.13191145E-01 -6.03843664E+00 -3.41302556E-04  2.82357939E-01
  3.74667047E+00 -1.90670809E-03  1.57923669E+00 -4.72384379E+00 -2.27917970E+00
 -3.06073334E-02 -4.72385323E+00  2.27924576E+00 -2.51403425E-02 -8.79341130E+00
 -1.20203695E-03  9.92730611E-01 -1.14474231E+00 -4.06974073E+00 -9.01928364E-01
 -1.14475761E+00  4.07190458E+00 -8.92165632E-01 -5.72565415E+00 -4.06270980E+00
  1.80553419E-01 -5.72566985E+00  4.06226048E+00  1.90298951E-01 -9.75221371E+00
  1.67354832E+00  2.54976402E-01 -9.75223728E+00 -1.67410457E+00  2.50825696E-01
 -9.02321852E+00 -3.75213871E-03  3.04992502E+00
Num ILSW                                   I              100
ILSW                                       I   N=         100
           0           1           0           1           2           0
           0           0           0           0           0          -1
           0           0           0           0           0           0
           0           0           0           0           1           0
           1           0           0           0           0           0
           0           0      100000           0          -1           0
           0           0           0           0           0           0
           0           0           0           1           1           0
           0           0           1           0           0           0
           0           0           4          40           0           0
           0           0           0           0           0           0
           0           0           0           0           0           0
           0           0           0           0           0           0
           0           0           0           0           0           0
           0           0           0           0           0           0
           0           0           0           0           0           0
           0           0           0           0
Num RLSW                                   I               40
RLSW                                       R   N=          40
  1.00000000E+00  1.00000000E+00  1.00000000E+00  1.00000000E+00  1.00000000E+00
  0.00000000E+00  0.00000000E+00  1.00000000E+00  0.00000000E+00  0.00000000E+00
  0.00000000E+00  0.00000000E+00  1.00000000E+00  0.00000000E+00  0.00000000E+00
  0.00000000E+00  0.00000000E+00  1.00000000E+00  0.00000000E+00  0.00000000E+00
  0.00000000E+00  0.00000000E+00  1.00000000E+00  0.00000000E+00  0.00000000E+00
  0.00000000E+00  0.00000000E+00  1.00000000E+00  0.00000000E+00  0.00000000E+00
  0.00000000E+00  0.00000000E+00  0.00000000E+00  0.00000000E+00  0.00000000E+00
  0.00000000E+00  0.00000000E+00  0.00000000E+00  1.00000000E+00  1.00000000E+00
MxBond                                     I                4
NBond                                      I   N=          21
           4           1           1           1           1           1
           3           3           3           3           4           3
           3           4           1           1           1           1
           1           1           1
IBond                                      I   N=          84
           5           6           7          11          11           0
           0           0          11           0           0           0
          11           0           0           0           1           0
           0           0           1           0           0           0
           1           8           9           0           7          12
          15           0           7          13          16           0
          12          13          14           0           1           2
           3           4           8          10          17           0
           9          10          18           0          10          19
          20          21           8           0           0           0
           9           0           0           0          12           0
           0           0          13           0           0           0
          14           0           0           0          14           0
           0           0          14           0           0           0
RBond                                      R   N=          84
  2.00000000E+00  2.00000000E+00  1.00000000E+00  1.00000000E+00  1.00000000E+00
  0.00000000E+00  0.00000000E+00  0.00000000E+00  1.00000000E+00  0.00000000E+00
  0.00000000E+00  0.00000000E+00  1.00000000E+00  0.00000000E+00  0.00000000E+00
  0.00000000E+00  2.00000000E+00  0.00000000E+00  0.00000000E+00  0.00000000E+00
  2.00000000E+00  0.00000000E+00  0.00000000E+00  0.00000000E+00  1.00000000E+00
  1.50000000E+00  1.50000000E+00  0.00000000E+00  1.50000000E+00  1.50000000E+00
  1.00000000E+00  0.00000000E+00  1.50000000E+00  1.50000000E+00  1.00000000E+00
  0.00000000E+00  1.50000000E+00  1.50000000E+00  1.00000000E+00  0.00000000E+00
  1.00000000E+00  1.00000000E+00  1.00000000E+00  1.00000000E+00  1.50000000E+00
  1.50000000E+00  1.00000000E+00  0.00000000E+00  1.50000000E+00  1.50000000E+00
  1.00000000E+00  0.00000000E+00  1.00000000E+00  1.00000000E+00  1.00000000E+00
  1.00000000E+00  1.00000000E+00  0.00000000E+00  0.00000000E+00  0.00000000E+00
  1.00000000E+00  0.00000000E+00  0.00000000E+00  0.00000000E+00  1.00000000E+00
  0.00000000E+00  0.00000000E+00  0.00000000E+00  1.00000000E+00  0.00000000E+00
  0.00000000E+00  0.00000000E+00  1.00000000E+00  0.00000000E+00  0.00000000E+00
  0.00000000E+00  1.00000000E+00  0.00000000E+00  0.00000000E+00  0.00000000E+00
  1.00000000E+00  0.00000000E+00  0.00000000E+00  0.00000000E+00
Virial Ratio                               R      2.002133039542432E+00
SCF Energy                                 R     -1.152487401079500E+03
MP2 Energy                                 R     -1.154523857245956E+03
Total Energy                               R     -1.154523857245956E+03
Post-SCF wavefunction norm                 R      1.810176489800078E+00
RMS Force                                  R      2.475949785651351E-07
RMS Density                                R      2.005931221992825E-09
External E-field                           R   N=          35
  0.00000000E+00  0.00000000E+00  0.00000000E+00  0.00000000E+00  0.00000000E+00
  0.00000000E+00  0.00000000E+00  0.00000000E+00  0.00000000E+00  0.00000000E+00
  0.00000000E+00  0.00000000E+00  0.00000000E+00  0.00000000E+00  0.00000000E+00
  0.00000000E+00  0.00000000E+00  0.00000000E+00  0.00000000E+00  0.00000000E+00
  0.00000000E+00  0.00000000E+00  0.00000000E+00  0.00000000E+00  0.00000000E+00
  0.00000000E+00  0.00000000E+00  0.00000000E+00  0.00000000E+00  0.00000000E+00
  0.00000000E+00  0.00000000E+00  0.00000000E+00  0.00000000E+00  0.00000000E+00