
    -----------------------------------------------------------------------
          Psi4: An Open-Source Ab Initio Electronic Structure Package
                               Psi4 1.4a3.dev225 

                         Git: Rev {master} 7105e37 


    D. G. A. Smith, L. A. Burns, A. C. Simmonett, R. M. Parrish,
    M. C. Schieber, R. Galvelis, P. Kraus, H. Kruse, R. Di Remigio,
    A. Alenaizan, A. M. James, S. Lehtola, J. P. Misiewicz, M. Scheurer,
    R. A. Shaw, J. B. Schriber, Y. Xie, Z. L. Glick, D. A. Sirianni,
    J. S. O'Brien, J. M. Waldrop, A. Kumar, E. G. Hohenstein,
    B. P. Pritchard, B. R. Brooks, H. F. Schaefer III, A. Yu. Sokolov,
    K. Patkowski, A. E. DePrince III, U. Bozkaya, R. A. King,
    F. A. Evangelista, J. M. Turney, T. D. Crawford, C. D. Sherrill,
    J. Chem. Phys. 152(18) 184108 (2020). https://doi.org/10.1063/5.0006002

                            Additional Code Authors
    E. T. Seidl, C. L. Janssen, E. F. Valeev, M. L. Leininger,
    J. F. Gonthier, R. M. Richard, H. R. McAlexander, M. Saitow, X. Wang,
    P. Verma, and M. H. Lechner

             Previous Authors, Complete List of Code Contributors,
                       and Citations for Specific Modules
    https://github.com/psi4/psi4/blob/master/codemeta.json
    https://github.com/psi4/psi4/graphs/contributors
    http://psicode.org/psi4manual/master/introduction.html#citing-psifour

    -----------------------------------------------------------------------


    Psi4 started on: Thursday, 01 April 2021 04:29PM

    Process ID: 163999
    Host:       c448-002.stampede2.tacc.utexas.edu
    PSIDATADIR: /home1/07844/xy3866/miniconda3/envs/p4env/share/psi4
    Memory:     500.0 MiB
    Threads:    8
    
  ==> Input File <==

--------------------------------------------------------------------------
#psi4
#
memory 32 gb

molecule  {
0 1
  N        2.7287650     0.3187530    -0.1253010
  C        0.3130830    -0.2174900     0.4662370
  C       -0.2538890     1.1369990    -0.0074850
  C       -0.8349900    -1.2410350     0.2435950
  C       -1.8207656     0.9702186     0.1019987
  C       -1.9852080    -0.4520530    -0.4054450
  C        1.6033210    -0.6099780    -0.2562360
  H        0.5371130    -0.1501040     1.5403310
  H        0.0159810     1.3028420    -1.0605530
  H        0.1335060     1.9859410     0.5654260
  H       -1.1585790    -1.6624630     1.2012770
  H       -0.5107060    -2.0839980    -0.3779040
  H       -2.3285430     1.7277130    -0.4695390
  H       -2.0833270     1.0524550     1.1475980
  H       -2.9716640    -0.8601180    -0.1627990
  H       -1.8853360    -0.4679020    -1.4974950
  H        1.3880180    -0.7214600    -1.3270790
  H        1.9406490    -1.5916360     0.0977200
  H        2.9408020     0.4513780     0.8633710
  H        2.4538300     1.2344270    -0.4784390
units angstrom
no_reorient  #important for SAPT in psi4, default
symmetry c1  #important for SAPT in psi4, default
}

set PROPERTIES_ORIGIN ["COM"]
properties('MP2/aug-cc-pvtz', properties = ['dipole'])
--------------------------------------------------------------------------

  Memory set to  29.802 GiB by Python driver.
    SCF Algorithm Type (re)set to DF.

*** tstart() called on c448-002.stampede2.tacc.utexas.edu
*** at Thu Apr  1 16:29:21 2021

   => Loading Basis Set <=

    Name: AUG-CC-PVTZ
    Role: ORBITAL
    Keyword: BASIS
    atoms 1    entry N          line   285 file /home1/07844/xy3866/miniconda3/envs/p4env/share/psi4/basis/aug-cc-pvtz.gbs 
    atoms 2-7  entry C          line   239 file /home1/07844/xy3866/miniconda3/envs/p4env/share/psi4/basis/aug-cc-pvtz.gbs 
    atoms 8-20 entry H          line    40 file /home1/07844/xy3866/miniconda3/envs/p4env/share/psi4/basis/aug-cc-pvtz.gbs 


         ---------------------------------------------------------
                                   SCF
               by Justin Turney, Rob Parrish, Andy Simmonett
                          and Daniel G. A. Smith
                              RHF Reference
                        8 Threads,  30517 MiB Core
         ---------------------------------------------------------

  ==> Geometry <==

    Molecular point group: c1
    Full point group: C1

    Geometry (in Angstrom), charge = 0, multiplicity = 1:

       Center              X                  Y                   Z               Mass       
    ------------   -----------------  -----------------  -----------------  -----------------
         N            2.719386035624     0.321555743506    -0.125297167798    14.003074004430
         C            0.303704035624    -0.214687256494     0.466240832202    12.000000000000
         C           -0.263267964376     1.139801743506    -0.007481167798    12.000000000000
         C           -0.844368964376    -1.238232256494     0.243598832202    12.000000000000
         C           -1.830144564376     0.973021343506     0.102002532202    12.000000000000
         C           -1.994586964376    -0.449250256494    -0.405441167798    12.000000000000
         C            1.593942035624    -0.607175256494    -0.256232167798    12.000000000000
         H            0.527734035624    -0.147301256494     1.540334832202     1.007825032230
         H            0.006602035624     1.305644743506    -1.060549167798     1.007825032230
         H            0.124127035624     1.988743743506     0.565429832202     1.007825032230
         H           -1.167957964376    -1.659660256494     1.201280832202     1.007825032230
         H           -0.520084964376    -2.081195256494    -0.377900167798     1.007825032230
         H           -2.337921964376     1.730515743506    -0.469535167798     1.007825032230
         H           -2.092705964376     1.055257743506     1.147601832202     1.007825032230
         H           -2.981042964376    -0.857315256494    -0.162795167798     1.007825032230
         H           -1.894714964376    -0.465099256494    -1.497491167798     1.007825032230
         H            1.378639035624    -0.718657256494    -1.327075167798     1.007825032230
         H            1.931270035624    -1.588833256494     0.097723832202     1.007825032230
         H            2.931423035624     0.454180743506     0.863374832202     1.007825032230
         H            2.444451035624     1.237229743506    -0.478435167798     1.007825032230

  Running in c1 symmetry.

  Rotational constants: A =      0.17664  B =      0.05700  C =      0.04759 [cm^-1]
  Rotational constants: A =   5295.41866  B =   1708.82152  C =   1426.60128 [MHz]
  Nuclear repulsion =  324.349161022800729

  Charge       = 0
  Multiplicity = 1
  Electrons    = 56
  Nalpha       = 28
  Nbeta        = 28

  ==> Algorithm <==

  SCF Algorithm Type is DF.
  DIIS enabled.
  MOM disabled.
  Fractional occupation disabled.
  Guess Type is SAD.
  Energy threshold   = 1.00e-10
  Density threshold  = 1.00e-10
  Integral threshold = 1.00e-12

  ==> Primary Basis <==

  Basis Set: AUG-CC-PVTZ
    Blend: AUG-CC-PVTZ
    Number of shells: 215
    Number of basis functions: 621
    Number of Cartesian functions: 710
    Spherical Harmonics?: true
    Max angular momentum: 3

   => Loading Basis Set <=

    Name: (AUG-CC-PVTZ AUX)
    Role: JKFIT
    Keyword: DF_BASIS_SCF
    atoms 1    entry N          line   224 file /home1/07844/xy3866/miniconda3/envs/p4env/share/psi4/basis/aug-cc-pvtz-jkfit.gbs 
    atoms 2-7  entry C          line   162 file /home1/07844/xy3866/miniconda3/envs/p4env/share/psi4/basis/aug-cc-pvtz-jkfit.gbs 
    atoms 8-20 entry H          line    70 file /home1/07844/xy3866/miniconda3/envs/p4env/share/psi4/basis/aug-cc-pvtz-jkfit.gbs 

  ==> Integral Setup <==

  DFHelper Memory: AOs need 3.746 GiB; user supplied 22.352 GiB. Using in-core AOs.

  ==> MemDFJK: Density-Fitted J/K Matrices <==

    J tasked:                   Yes
    K tasked:                   Yes
    wK tasked:                   No
    OpenMP threads:               8
    Memory [MiB]:             22888
    Algorithm:                 Core
    Schwarz Cutoff:           1E-12
    Mask sparsity (%):       4.6650
    Fitting Condition:        1E-10

   => Auxiliary Basis Set <=

  Basis Set: (AUG-CC-PVTZ AUX)
    Blend: AUG-CC-PVTZ-JKFIT
    Number of shells: 392
    Number of basis functions: 1326
    Number of Cartesian functions: 1632
    Spherical Harmonics?: true
    Max angular momentum: 4

  Minimum eigenvalue in the overlap matrix is 1.8187481673E-06.
  Reciprocal condition number of the overlap matrix is 7.8274597411E-08.
    Using symmetric orthogonalization.

  ==> Pre-Iterations <==

  SCF Guess: Superposition of Atomic Densities via on-the-fly atomic UHF (no occupation information).

   -------------------------
    Irrep   Nso     Nmo    
   -------------------------
     A        621     621 
   -------------------------
    Total     621     621
   -------------------------

  ==> Iterations <==

                           Total Energy        Delta E     RMS |[F,P]|

   @DF-RHF iter SAD:  -289.23521379052960   -2.89235e+02   0.00000e+00 
   @DF-RHF iter   1:  -288.98523110690388    2.49983e-01   1.20133e-03 DIIS
   @DF-RHF iter   2:  -289.23710520719345   -2.51874e-01   6.53776e-04 DIIS
   @DF-RHF iter   3:  -289.31660063939944   -7.94954e-02   1.06776e-04 DIIS
   @DF-RHF iter   4:  -289.32073571732474   -4.13508e-03   2.49248e-05 DIIS
   @DF-RHF iter   5:  -289.32092075702451   -1.85040e-04   8.18898e-06 DIIS
   @DF-RHF iter   6:  -289.32093958399423   -1.88270e-05   1.93845e-06 DIIS
   @DF-RHF iter   7:  -289.32094093951218   -1.35552e-06   5.04071e-07 DIIS
   @DF-RHF iter   8:  -289.32094102401442   -8.45022e-08   1.49034e-07 DIIS
   @DF-RHF iter   9:  -289.32094103354689   -9.53247e-09   3.86873e-08 DIIS
   @DF-RHF iter  10:  -289.32094103455131   -1.00442e-09   1.31749e-08 DIIS
   @DF-RHF iter  11:  -289.32094103465204   -1.00727e-10   3.62944e-09 DIIS
   @DF-RHF iter  12:  -289.32094103466073   -8.69704e-12   1.07236e-09 DIIS
   @DF-RHF iter  13:  -289.32094103466113   -3.97904e-13   3.55212e-10 DIIS
   @DF-RHF iter  14:  -289.32094103466079    3.41061e-13   9.74821e-11 DIIS
  Energy and wave function converged.


  ==> Post-Iterations <==

    Orbital Energies [Eh]
    ---------------------

    Doubly Occupied:                                                      

       1A    -15.536778     2A    -11.242268     3A    -11.219813  
       4A    -11.218428     5A    -11.216510     6A    -11.216026  
       7A    -11.215557     8A     -1.176852     9A     -1.114355  
      10A     -0.984199    11A     -0.956465    12A     -0.865996  
      13A     -0.785276    14A     -0.754598    15A     -0.667518  
      16A     -0.647105    17A     -0.641306    18A     -0.582631  
      19A     -0.571179    20A     -0.558652    21A     -0.519105  
      22A     -0.491717    23A     -0.478613    24A     -0.471127  
      25A     -0.463365    26A     -0.450661    27A     -0.442987  
      28A     -0.381903  

    Virtual:                                                              

      29A      0.028573    30A      0.034189    31A      0.035424  
      32A      0.038721    33A      0.051532    34A      0.052439  
      35A      0.053456    36A      0.055514    37A      0.057324  
      38A      0.075848    39A      0.076631    40A      0.078372  
      41A      0.081225    42A      0.109456    43A      0.113573  
      44A      0.117649    45A      0.121115    46A      0.124727  
      47A      0.126756    48A      0.131196    49A      0.135498  
      50A      0.141081    51A      0.141898    52A      0.143650  
      53A      0.149102    54A      0.154562    55A      0.159878  
      56A      0.161943    57A      0.164390    58A      0.165150  
      59A      0.182514    60A      0.184071    61A      0.187622  
      62A      0.198854    63A      0.208156    64A      0.215382  
      65A      0.217737    66A      0.225644    67A      0.230790  
      68A      0.241050    69A      0.265801    70A      0.266858  
      71A      0.270924    72A      0.274967    73A      0.287591  
      74A      0.292195    75A      0.302797    76A      0.304767  
      77A      0.306884    78A      0.313511    79A      0.315677  
      80A      0.318873    81A      0.323714    82A      0.330617  
      83A      0.336842    84A      0.344751    85A      0.348194  
      86A      0.353946    87A      0.358967    88A      0.365257  
      89A      0.367570    90A      0.370771    91A      0.379807  
      92A      0.382027    93A      0.386690    94A      0.390670  
      95A      0.395406    96A      0.400487    97A      0.405538  
      98A      0.407540    99A      0.410485   100A      0.417232  
     101A      0.423205   102A      0.425434   103A      0.435664  
     104A      0.440029   105A      0.444564   106A      0.448997  
     107A      0.454457   108A      0.458085   109A      0.464448  
     110A      0.471589   111A      0.474812   112A      0.479965  
     113A      0.484045   114A      0.490604   115A      0.496966  
     116A      0.503445   117A      0.504617   118A      0.509317  
     119A      0.513759   120A      0.520769   121A      0.529021  
     122A      0.535424   123A      0.542023   124A      0.544677  
     125A      0.545191   126A      0.551910   127A      0.557450  
     128A      0.563290   129A      0.565911   130A      0.570820  
     131A      0.575183   132A      0.577691   133A      0.580989  
     134A      0.586300   135A      0.595609   136A      0.600233  
     137A      0.603451   138A      0.612747   139A      0.618539  
     140A      0.626326   141A      0.632736   142A      0.637434  
     143A      0.647061   144A      0.652384   145A      0.655829  
     146A      0.658980   147A      0.666412   148A      0.678516  
     149A      0.684656   150A      0.690985   151A      0.704244  
     152A      0.708288   153A      0.711835   154A      0.717167  
     155A      0.730163   156A      0.736374   157A      0.744073  
     158A      0.746124   159A      0.757812   160A      0.765483  
     161A      0.778552   162A      0.794683   163A      0.813647  
     164A      0.820264   165A      0.832210   166A      0.837658  
     167A      0.855332   168A      0.857108   169A      0.858226  
     170A      0.868873   171A      0.875418   172A      0.881008  
     173A      0.884758   174A      0.891364   175A      0.896764  
     176A      0.903145   177A      0.911022   178A      0.917242  
     179A      0.925189   180A      0.931599   181A      0.933894  
     182A      0.945303   183A      0.948448   184A      0.954660  
     185A      0.968331   186A      0.973573   187A      0.979325  
     188A      0.981497   189A      0.989141   190A      0.995217  
     191A      0.999530   192A      1.008295   193A      1.009646  
     194A      1.022368   195A      1.026061   196A      1.038882  
     197A      1.042421   198A      1.046762   199A      1.051069  
     200A      1.065199   201A      1.071531   202A      1.074507  
     203A      1.084509   204A      1.087004   205A      1.093006  
     206A      1.102056   207A      1.105454   208A      1.113871  
     209A      1.114922   210A      1.121158   211A      1.132660  
     212A      1.136577   213A      1.144247   214A      1.155911  
     215A      1.162844   216A      1.164564   217A      1.171381  
     218A      1.174279   219A      1.185201   220A      1.190229  
     221A      1.192443   222A      1.210323   223A      1.214012  
     224A      1.218912   225A      1.231642   226A      1.233391  
     227A      1.238941   228A      1.257843   229A      1.261222  
     230A      1.270479   231A      1.275615   232A      1.283213  
     233A      1.287047   234A      1.293176   235A      1.308915  
     236A      1.314963   237A      1.317321   238A      1.334285  
     239A      1.334434   240A      1.348293   241A      1.356534  
     242A      1.362616   243A      1.380326   244A      1.389826  
     245A      1.395405   246A      1.402904   247A      1.406858  
     248A      1.416300   249A      1.429006   250A      1.438031  
     251A      1.442848   252A      1.453757   253A      1.462487  
     254A      1.472299   255A      1.483689   256A      1.494075  
     257A      1.503915   258A      1.505077   259A      1.509541  
     260A      1.523907   261A      1.536739   262A      1.541652  
     263A      1.548452   264A      1.551681   265A      1.566964  
     266A      1.577139   267A      1.580932   268A      1.591529  
     269A      1.602474   270A      1.602799   271A      1.616333  
     272A      1.623432   273A      1.624487   274A      1.640448  
     275A      1.651265   276A      1.653244   277A      1.655430  
     278A      1.676434   279A      1.677162   280A      1.687445  
     281A      1.692591   282A      1.710443   283A      1.722428  
     284A      1.733909   285A      1.743741   286A      1.751776  
     287A      1.758420   288A      1.766921   289A      1.774332  
     290A      1.785440   291A      1.790758   292A      1.797932  
     293A      1.806613   294A      1.808401   295A      1.817606  
     296A      1.818783   297A      1.828274   298A      1.844642  
     299A      1.851978   300A      1.859360   301A      1.864812  
     302A      1.874837   303A      1.883313   304A      1.889872  
     305A      1.899779   306A      1.905248   307A      1.909157  
     308A      1.938060   309A      1.949018   310A      1.954014  
     311A      1.954964   312A      1.962472   313A      1.966590  
     314A      1.979619   315A      1.987213   316A      2.002191  
     317A      2.008298   318A      2.017792   319A      2.028670  
     320A      2.034040   321A      2.037203   322A      2.040026  
     323A      2.069750   324A      2.076169   325A      2.082123  
     326A      2.089118   327A      2.096842   328A      2.110129  
     329A      2.123898   330A      2.130793   331A      2.138171  
     332A      2.143624   333A      2.158027   334A      2.168049  
     335A      2.173576   336A      2.180071   337A      2.194055  
     338A      2.203771   339A      2.220721   340A      2.229654  
     341A      2.251439   342A      2.253169   343A      2.270813  
     344A      2.276413   345A      2.289816   346A      2.295228  
     347A      2.300055   348A      2.309353   349A      2.327429  
     350A      2.335042   351A      2.350709   352A      2.360642  
     353A      2.370479   354A      2.384256   355A      2.394421  
     356A      2.419682   357A      2.426180   358A      2.437062  
     359A      2.457310   360A      2.467889   361A      2.486398  
     362A      2.489822   363A      2.496490   364A      2.513537  
     365A      2.521283   366A      2.536643   367A      2.551303  
     368A      2.559897   369A      2.573995   370A      2.593560  
     371A      2.603394   372A      2.626428   373A      2.639014  
     374A      2.649061   375A      2.667842   376A      2.682093  
     377A      2.701115   378A      2.720065   379A      2.740325  
     380A      2.745145   381A      2.762306   382A      2.811859  
     383A      2.840246   384A      2.870649   385A      2.890562  
     386A      2.945714   387A      2.948027   388A      3.020603  
     389A      3.083291   390A      3.147841   391A      3.202667  
     392A      3.241197   393A      3.329223   394A      3.356591  
     395A      3.422123   396A      3.444189   397A      3.460620  
     398A      3.488624   399A      3.500301   400A      3.512025  
     401A      3.538638   402A      3.544678   403A      3.554746  
     404A      3.579166   405A      3.595068   406A      3.605407  
     407A      3.618176   408A      3.631249   409A      3.649817  
     410A      3.660880   411A      3.684629   412A      3.711777  
     413A      3.716550   414A      3.718883   415A      3.728575  
     416A      3.737349   417A      3.751545   418A      3.754810  
     419A      3.771979   420A      3.783897   421A      3.796521  
     422A      3.810172   423A      3.818271   424A      3.840324  
     425A      3.855239   426A      3.869441   427A      3.886669  
     428A      3.897666   429A      3.897833   430A      3.921606  
     431A      3.926425   432A      3.936735   433A      3.946516  
     434A      3.953165   435A      3.962171   436A      3.972469  
     437A      3.991327   438A      4.006505   439A      4.011053  
     440A      4.018352   441A      4.028642   442A      4.036681  
     443A      4.043048   444A      4.052376   445A      4.057143  
     446A      4.076762   447A      4.085220   448A      4.092081  
     449A      4.101705   450A      4.110011   451A      4.114349  
     452A      4.143016   453A      4.153119   454A      4.165433  
     455A      4.176271   456A      4.197668   457A      4.211462  
     458A      4.225895   459A      4.234815   460A      4.246987  
     461A      4.274521   462A      4.275364   463A      4.283672  
     464A      4.300554   465A      4.312496   466A      4.323577  
     467A      4.341394   468A      4.347156   469A      4.364551  
     470A      4.367103   471A      4.390907   472A      4.400984  
     473A      4.411467   474A      4.419932   475A      4.430387  
     476A      4.441642   477A      4.463374   478A      4.471045  
     479A      4.485828   480A      4.498431   481A      4.517439  
     482A      4.531724   483A      4.543940   484A      4.565106  
     485A      4.573295   486A      4.585198   487A      4.600674  
     488A      4.613383   489A      4.624232   490A      4.639114  
     491A      4.645054   492A      4.668043   493A      4.677344  
     494A      4.686723   495A      4.698621   496A      4.712452  
     497A      4.737546   498A      4.740295   499A      4.754631  
     500A      4.775238   501A      4.781052   502A      4.800691  
     503A      4.817861   504A      4.830503   505A      4.841995  
     506A      4.857942   507A      4.864226   508A      4.905933  
     509A      4.926651   510A      4.936468   511A      4.939080  
     512A      4.957478   513A      4.962233   514A      4.980215  
     515A      4.981494   516A      4.992911   517A      5.004444  
     518A      5.010991   519A      5.027516   520A      5.036223  
     521A      5.047549   522A      5.072615   523A      5.089739  
     524A      5.093093   525A      5.103074   526A      5.118841  
     527A      5.128863   528A      5.149815   529A      5.164697  
     530A      5.177046   531A      5.188667   532A      5.205091  
     533A      5.216202   534A      5.223857   535A      5.229279  
     536A      5.261155   537A      5.262033   538A      5.292779  
     539A      5.300627   540A      5.311563   541A      5.329499  
     542A      5.345401   543A      5.361242   544A      5.376586  
     545A      5.383574   546A      5.400887   547A      5.415655  
     548A      5.446437   549A      5.455343   550A      5.474538  
     551A      5.477735   552A      5.492849   553A      5.512341  
     554A      5.519425   555A      5.531495   556A      5.536113  
     557A      5.543230   558A      5.574253   559A      5.596857  
     560A      5.601786   561A      5.623401   562A      5.643235  
     563A      5.676834   564A      5.699411   565A      5.701385  
     566A      5.737020   567A      5.780774   568A      5.799907  
     569A      5.806997   570A      5.819243   571A      5.834035  
     572A      5.843306   573A      5.891707   574A      5.908230  
     575A      5.918417   576A      5.930661   577A      5.943257  
     578A      5.972972   579A      6.005950   580A      6.025259  
     581A      6.039213   582A      6.046735   583A      6.072186  
     584A      6.102492   585A      6.108644   586A      6.135939  
     587A      6.148063   588A      6.199984   589A      6.202795  
     590A      6.224273   591A      6.286761   592A      6.291138  
     593A      6.322155   594A      6.328840   595A      6.340232  
     596A      6.394038   597A      6.471903   598A      6.483215  
     599A      6.570200   600A      6.591849   601A      6.622062  
     602A      6.744115   603A      6.774651   604A      6.846511  
     605A      6.852111   606A      6.888018   607A      6.914708  
     608A      6.959067   609A      6.984942   610A      7.061659  
     611A      7.075300   612A      7.155368   613A      7.285276  
     614A      7.865032   615A     17.386697   616A     18.104843  
     617A     18.262568   618A     18.947121   619A     19.186008  
     620A     19.696384   621A     20.439982  

    Final Occupation by Irrep:
              A 
    DOCC [    28 ]

  @DF-RHF Final Energy:  -289.32094103466079

   => Energetics <=

    Nuclear Repulsion Energy =            324.3491610228007289
    One-Electron Energy =               -1033.5982248586751666
    Two-Electron Energy =                 419.9281228012137035
    Total Energy =                       -289.3209410346607910

Computation Completed

*** tstop() called on c448-002.stampede2.tacc.utexas.edu at Thu Apr  1 16:30:07 2021
Module time:
	user time   =     270.41 seconds =       4.51 minutes
	system time =       8.20 seconds =       0.14 minutes
	total time  =         46 seconds =       0.77 minutes
Total time:
	user time   =     270.41 seconds =       4.51 minutes
	system time =       8.20 seconds =       0.14 minutes
	total time  =         46 seconds =       0.77 minutes
   => Loading Basis Set <=

    Name: (AUG-CC-PVTZ AUX)
    Role: RIFIT
    Keyword: DF_BASIS_MP2
    atoms 1    entry N          line   206 file /home1/07844/xy3866/miniconda3/envs/p4env/share/psi4/basis/aug-cc-pvtz-ri.gbs 
    atoms 2-7  entry C          line   148 file /home1/07844/xy3866/miniconda3/envs/p4env/share/psi4/basis/aug-cc-pvtz-ri.gbs 
    atoms 8-20 entry H          line    30 file /home1/07844/xy3866/miniconda3/envs/p4env/share/psi4/basis/aug-cc-pvtz-ri.gbs 


*** tstart() called on c448-002.stampede2.tacc.utexas.edu
*** at Thu Apr  1 16:30:08 2021


  //>>>>>>>>>>>>>>>>>>>>>>>>>>>>>>>>>>>//
  //               DFMP2               //
  //<<<<<<<<<<<<<<<<<<<<<<<<<<<<<<<<<<<//

	 --------------------------------------------------------
	                          DF-MP2                         
	      2nd-Order Density-Fitted Moller-Plesset Theory     
	              RMP2 Wavefunction,   8 Threads             
	                                                         
	        Rob Parrish, Justin Turney, Andy Simmonett,      
	           Ed Hohenstein, and C. David Sherrill          
	 --------------------------------------------------------

   => Auxiliary Basis Set <=

  Basis Set: (AUG-CC-PVTZ AUX)
    Blend: AUG-CC-PVTZ-RI
    Number of shells: 378
    Number of basis functions: 1340
    Number of Cartesian functions: 1667
    Spherical Harmonics?: true
    Max angular momentum: 4

	 --------------------------------------------------------
	                 NBF =   621, NAUX =  1340
	 --------------------------------------------------------
	   CLASS    FOCC     OCC    AOCC    AVIR     VIR    FVIR
	   PAIRS       0      28      28     593     593       0
	 --------------------------------------------------------

  DFHelper Memory: AOs need 3.815 GiB; user supplied 22.352 GiB. Using in-core AOs.


         ------------------------------------------------------------
                                     CPHF                           
                                  Rob Parrish                       
         ------------------------------------------------------------

  ==> Geometry <==

    Molecular point group: c1
    Full point group: C1

    Geometry (in Angstrom), charge = 0, multiplicity = 1:

       Center              X                  Y                   Z               Mass       
    ------------   -----------------  -----------------  -----------------  -----------------
         N            2.719386035624     0.321555743506    -0.125297167798    14.003074004430
         C            0.303704035624    -0.214687256494     0.466240832202    12.000000000000
         C           -0.263267964376     1.139801743506    -0.007481167798    12.000000000000
         C           -0.844368964376    -1.238232256494     0.243598832202    12.000000000000
         C           -1.830144564376     0.973021343506     0.102002532202    12.000000000000
         C           -1.994586964376    -0.449250256494    -0.405441167798    12.000000000000
         C            1.593942035624    -0.607175256494    -0.256232167798    12.000000000000
         H            0.527734035624    -0.147301256494     1.540334832202     1.007825032230
         H            0.006602035624     1.305644743506    -1.060549167798     1.007825032230
         H            0.124127035624     1.988743743506     0.565429832202     1.007825032230
         H           -1.167957964376    -1.659660256494     1.201280832202     1.007825032230
         H           -0.520084964376    -2.081195256494    -0.377900167798     1.007825032230
         H           -2.337921964376     1.730515743506    -0.469535167798     1.007825032230
         H           -2.092705964376     1.055257743506     1.147601832202     1.007825032230
         H           -2.981042964376    -0.857315256494    -0.162795167798     1.007825032230
         H           -1.894714964376    -0.465099256494    -1.497491167798     1.007825032230
         H            1.378639035624    -0.718657256494    -1.327075167798     1.007825032230
         H            1.931270035624    -1.588833256494     0.097723832202     1.007825032230
         H            2.931423035624     0.454180743506     0.863374832202     1.007825032230
         H            2.444451035624     1.237229743506    -0.478435167798     1.007825032230

  Nuclear repulsion =  324.349161022800729
  Reference energy  = -289.320941034660791

  ==> Basis Set <==

  Basis Set: AUG-CC-PVTZ
    Blend: AUG-CC-PVTZ
    Number of shells: 215
    Number of basis functions: 621
    Number of Cartesian functions: 710
    Spherical Harmonics?: true
    Max angular momentum: 3

  ==> CGRSolver (by Rob Parrish) <==

   Number of roots    =         1
   Preconditioning    =    JACOBI
   Convergence cutoff =     1E-06
   Maximum iterations =       100

  ==> CPHFRHamiltonian (by Rob Parrish) <== 

  ==> MemDFJK: Density-Fitted J/K Matrices <==

    J tasked:                   Yes
    K tasked:                   Yes
    wK tasked:                   No
    OpenMP threads:               8
    Memory [MiB]:             22888
    Algorithm:                 Core
    Schwarz Cutoff:           1E-12
    Mask sparsity (%):       2.8498
    Fitting Condition:        1E-10

   => Auxiliary Basis Set <=

  Basis Set: (AUG-CC-PVTZ AUX)
    Blend: AUG-CC-PVTZ-JKFIT
    Number of shells: 392
    Number of basis functions: 1326
    Number of Cartesian functions: 1632
    Spherical Harmonics?: true
    Max angular momentum: 4

  ==> CPHF Iterations <==

  => Iterations <=

             Iter  Converged  Remaining    Residual
  CGR           1          0          1   8.900E-02
  CGR           2          0          1   1.647E-02
  CGR           3          0          1   5.051E-03
  CGR           4          0          1   1.570E-03
  CGR           5          0          1   4.388E-04
  CGR           6          0          1   1.429E-04
  CGR           7          0          1   4.217E-05
  CGR           8          0          1   9.355E-06
  CGR           9          0          1   3.071E-06
  CGR          10          1          0   8.941E-07

    CGRSolver converged.

	-----------------------------------------------------------
	 ==================> DF-MP2 Energies <==================== 
	-----------------------------------------------------------
	 Reference Energy          =    -289.3209410346607910 [Eh]
	 Singles Energy            =      -0.0000000000000000 [Eh]
	 Same-Spin Energy          =      -0.3124795481313036 [Eh]
	 Opposite-Spin Energy      =      -1.0973470684606557 [Eh]
	 Correlation Energy        =      -1.4098266165919593 [Eh]
	 Total Energy              =    -290.7307676512527337 [Eh]
	-----------------------------------------------------------
	 ================> DF-SCS-MP2 Energies <================== 
	-----------------------------------------------------------
	 SCS Same-Spin Scale       =       0.3333333333333333 [-]
	 SCS Opposite-Spin Scale   =       1.2000000000000000 [-]
	 SCS Same-Spin Energy      =      -0.1041598493771012 [Eh]
	 SCS Opposite-Spin Energy  =      -1.3168164821527868 [Eh]
	 SCS Correlation Energy    =      -1.4209763315298880 [Eh]
	 SCS Total Energy          =    -290.7419173661907053 [Eh]
	-----------------------------------------------------------



Properties will be evaluated at   0.000000,  -0.000000,   0.000000 [a0]

Properties computed using the MP2 density matrix

  Nuclear Dipole Moment: [e a0]
     X:    -1.5549      Y:     0.2367      Z:     0.0397

  Electronic Dipole Moment: [e a0]
     X:     1.0363      Y:    -0.0503      Z:     0.2633

  Dipole Moment: [e a0]
     X:    -0.5186      Y:     0.1865      Z:     0.3030     Total:     0.6289

  Dipole Moment: [D]
     X:    -1.3180      Y:     0.4739      Z:     0.7702     Total:     1.5985


*** tstop() called on c448-002.stampede2.tacc.utexas.edu at Thu Apr  1 16:32:56 2021
Module time:
	user time   =    1044.40 seconds =      17.41 minutes
	system time =      16.01 seconds =       0.27 minutes
	total time  =        168 seconds =       2.80 minutes
Total time:
	user time   =    1315.79 seconds =      21.93 minutes
	system time =      24.22 seconds =       0.40 minutes
	total time  =        215 seconds =       3.58 minutes

    Psi4 stopped on: Thursday, 01 April 2021 04:32PM
    Psi4 wall time for execution: 0:03:36.07

*** Psi4 exiting successfully. Buy a developer a beer!
