
    -----------------------------------------------------------------------
          Psi4: An Open-Source Ab Initio Electronic Structure Package
                               Psi4 1.4a3.dev225 

                         Git: Rev {master} 7105e37 


    D. G. A. Smith, L. A. Burns, A. C. Simmonett, R. M. Parrish,
    M. C. Schieber, R. Galvelis, P. Kraus, H. Kruse, R. Di Remigio,
    A. Alenaizan, A. M. James, S. Lehtola, J. P. Misiewicz, M. Scheurer,
    R. A. Shaw, J. B. Schriber, Y. Xie, Z. L. Glick, D. A. Sirianni,
    J. S. O'Brien, J. M. Waldrop, A. Kumar, E. G. Hohenstein,
    B. P. Pritchard, B. R. Brooks, H. F. Schaefer III, A. Yu. Sokolov,
    K. Patkowski, A. E. DePrince III, U. Bozkaya, R. A. King,
    F. A. Evangelista, J. M. Turney, T. D. Crawford, C. D. Sherrill,
    J. Chem. Phys. 152(18) 184108 (2020). https://doi.org/10.1063/5.0006002

                            Additional Code Authors
    E. T. Seidl, C. L. Janssen, E. F. Valeev, M. L. Leininger,
    J. F. Gonthier, R. M. Richard, H. R. McAlexander, M. Saitow, X. Wang,
    P. Verma, and M. H. Lechner

             Previous Authors, Complete List of Code Contributors,
                       and Citations for Specific Modules
    https://github.com/psi4/psi4/blob/master/codemeta.json
    https://github.com/psi4/psi4/graphs/contributors
    http://psicode.org/psi4manual/master/introduction.html#citing-psifour

    -----------------------------------------------------------------------


    Psi4 started on: Friday, 19 March 2021 09:06PM

    Process ID: 242630
    Host:       c445-091.stampede2.tacc.utexas.edu
    PSIDATADIR: /home1/07844/xy3866/miniconda3/envs/p4env/share/psi4
    Memory:     500.0 MiB
    Threads:    32
    
  ==> Input File <==

--------------------------------------------------------------------------
#psi4
#
memory 32 gb

molecule  {
0 1
  C       -3.3104600     0.6645600    -0.0001290
  C        3.3104610    -0.6645590    -0.0001300
  C       -4.1189600    -0.6381980     0.0003020
  C        4.1189570     0.6382020     0.0003020
  C       -1.8678680     0.4225120    -0.0001420
  C        1.8678690    -0.4225150    -0.0001410
  C       -0.6717070     0.1376470    -0.0001380
  C        0.6717080    -0.1376500    -0.0001380
  H       -3.5746830     1.2664600    -0.8780670
  H       -3.5745810     1.2669770     0.8774850
  H        3.5795043    -1.2774340    -0.8940777
  H        3.5745850    -1.2669760     0.8774840
  H       -3.8858290    -1.2341430     0.8855450
  H       -3.8859300    -1.2346660    -0.8846160
  H       -5.1908980    -0.4200070     0.0002980
  H        3.8859240     1.2346690    -0.8846160
  H        3.8858250     1.2341450     0.8855460
  H        5.1908960     0.4200140     0.0002970
units angstrom
no_reorient  #important for SAPT in psi4, default
symmetry c1  #important for SAPT in psi4, default
}

set PROPERTIES_ORIGIN ["COM"]
properties('MP2/aug-cc-pvtz', properties = ['dipole'])
--------------------------------------------------------------------------

  Memory set to  29.802 GiB by Python driver.
    SCF Algorithm Type (re)set to DF.

*** tstart() called on c445-091.stampede2.tacc.utexas.edu
*** at Fri Mar 19 21:06:53 2021

   => Loading Basis Set <=

    Name: AUG-CC-PVTZ
    Role: ORBITAL
    Keyword: BASIS
    atoms 1-8  entry C          line   239 file /home1/07844/xy3866/miniconda3/envs/p4env/share/psi4/basis/aug-cc-pvtz.gbs 
    atoms 9-18 entry H          line    40 file /home1/07844/xy3866/miniconda3/envs/p4env/share/psi4/basis/aug-cc-pvtz.gbs 


         ---------------------------------------------------------
                                   SCF
               by Justin Turney, Rob Parrish, Andy Simmonett
                          and Daniel G. A. Smith
                              RHF Reference
                       32 Threads,  30517 MiB Core
         ---------------------------------------------------------

  ==> Geometry <==

    Molecular point group: c1
    Full point group: C1

    Geometry (in Angstrom), charge = 0, multiplicity = 1:

       Center              X                  Y                   Z               Mass       
    ------------   -----------------  -----------------  -----------------  -----------------
         C           -3.310505730055     0.664664251061     0.000035076026    12.000000000000
         C            3.310415269945    -0.664454748939     0.000034076026    12.000000000000
         C           -4.119005730055    -0.638093748939     0.000466076026    12.000000000000
         C            4.118911269945     0.638306251061     0.000466076026    12.000000000000
         C           -1.867913730055     0.422616251061     0.000022076026    12.000000000000
         C            1.867823269945    -0.422410748939     0.000023076026    12.000000000000
         C           -0.671752730055     0.137751251061     0.000026076026    12.000000000000
         C            0.671662269945    -0.137545748939     0.000026076026    12.000000000000
         H           -3.574728730055     1.266564251061    -0.877902923974     1.007825032230
         H           -3.574626730055     1.267081251061     0.877649076026     1.007825032230
         H            3.579458569945    -1.277329748939    -0.893913623974     1.007825032230
         H            3.574539269945    -1.266871748939     0.877648076026     1.007825032230
         H           -3.885874730055    -1.234038748939     0.885709076026     1.007825032230
         H           -3.885975730055    -1.234561748939    -0.884451923974     1.007825032230
         H           -5.190943730055    -0.419902748939     0.000462076026     1.007825032230
         H            3.885878269945     1.234773251061    -0.884451923974     1.007825032230
         H            3.885779269945     1.234249251061     0.885710076026     1.007825032230
         H            5.190850269945     0.420118251061     0.000461076026     1.007825032230

  Running in c1 symmetry.

  Rotational constants: A =      0.37995  B =      0.01798  C =      0.01739 [cm^-1]
  Rotational constants: A =  11390.56885  B =    538.88702  C =    521.22266 [MHz]
  Nuclear repulsion =  287.930356697266575

  Charge       = 0
  Multiplicity = 1
  Electrons    = 58
  Nalpha       = 29
  Nbeta        = 29

  ==> Algorithm <==

  SCF Algorithm Type is DF.
  DIIS enabled.
  MOM disabled.
  Fractional occupation disabled.
  Guess Type is SAD.
  Energy threshold   = 1.00e-10
  Density threshold  = 1.00e-10
  Integral threshold = 1.00e-12

  ==> Primary Basis <==

  Basis Set: AUG-CC-PVTZ
    Blend: AUG-CC-PVTZ
    Number of shells: 202
    Number of basis functions: 598
    Number of Cartesian functions: 690
    Spherical Harmonics?: true
    Max angular momentum: 3

   => Loading Basis Set <=

    Name: (AUG-CC-PVTZ AUX)
    Role: JKFIT
    Keyword: DF_BASIS_SCF
    atoms 1-8  entry C          line   162 file /home1/07844/xy3866/miniconda3/envs/p4env/share/psi4/basis/aug-cc-pvtz-jkfit.gbs 
    atoms 9-18 entry H          line    70 file /home1/07844/xy3866/miniconda3/envs/p4env/share/psi4/basis/aug-cc-pvtz-jkfit.gbs 

  ==> Integral Setup <==

  DFHelper Memory: AOs need 2.854 GiB; user supplied 22.352 GiB. Using in-core AOs.

  ==> MemDFJK: Density-Fitted J/K Matrices <==

    J tasked:                   Yes
    K tasked:                   Yes
    wK tasked:                   No
    OpenMP threads:              32
    Memory [MiB]:             22888
    Algorithm:                 Core
    Schwarz Cutoff:           1E-12
    Mask sparsity (%):      22.0288
    Fitting Condition:        1E-10

   => Auxiliary Basis Set <=

  Basis Set: (AUG-CC-PVTZ AUX)
    Blend: AUG-CC-PVTZ-JKFIT
    Number of shells: 380
    Number of basis functions: 1292
    Number of Cartesian functions: 1598
    Spherical Harmonics?: true
    Max angular momentum: 4

  Minimum eigenvalue in the overlap matrix is 2.9509156079E-07.
  Reciprocal condition number of the overlap matrix is 1.9278397469E-08.
    Using symmetric orthogonalization.

  ==> Pre-Iterations <==

  SCF Guess: Superposition of Atomic Densities via on-the-fly atomic UHF (no occupation information).

   -------------------------
    Irrep   Nso     Nmo    
   -------------------------
     A        598     598 
   -------------------------
    Total     598     598
   -------------------------

  ==> Iterations <==

                           Total Energy        Delta E     RMS |[F,P]|

   @DF-RHF iter SAD:  -307.23972254074926   -3.07240e+02   0.00000e+00 
   @DF-RHF iter   1:  -308.51152175236837   -1.27180e+00   1.04276e-03 DIIS
   @DF-RHF iter   2:  -308.72673760817224   -2.15216e-01   4.02054e-04 DIIS
   @DF-RHF iter   3:  -308.75779821212802   -3.10606e-02   8.65476e-05 DIIS
   @DF-RHF iter   4:  -308.76084416304286   -3.04595e-03   2.24818e-05 DIIS
   @DF-RHF iter   5:  -308.76100341348661   -1.59250e-04   6.35735e-06 DIIS
   @DF-RHF iter   6:  -308.76101463839484   -1.12249e-05   3.05032e-06 DIIS
   @DF-RHF iter   7:  -308.76101656804383   -1.92965e-06   8.98677e-07 DIIS
   @DF-RHF iter   8:  -308.76101678813097   -2.20087e-07   2.05095e-07 DIIS
   @DF-RHF iter   9:  -308.76101682212703   -3.39961e-08   9.16274e-08 DIIS
   @DF-RHF iter  10:  -308.76101683194446   -9.81743e-09   3.28280e-08 DIIS
   @DF-RHF iter  11:  -308.76101683291614   -9.71681e-10   1.35477e-08 DIIS
   @DF-RHF iter  12:  -308.76101683303426   -1.18121e-10   5.94348e-09 DIIS
   @DF-RHF iter  13:  -308.76101683305382   -1.95541e-11   3.09045e-09 DIIS
   @DF-RHF iter  14:  -308.76101683306462   -1.08002e-11   1.78049e-09 DIIS
   @DF-RHF iter  15:  -308.76101683307081   -6.19593e-12   6.54921e-10 DIIS
   @DF-RHF iter  16:  -308.76101683307212   -1.30740e-12   1.33572e-10 DIIS
   @DF-RHF iter  17:  -308.76101683307155    5.68434e-13   5.04118e-11 DIIS
  Energy and wave function converged.


  ==> Post-Iterations <==

    Orbital Energies [Eh]
    ---------------------

    Doubly Occupied:                                                      

       1A    -11.260001     2A    -11.257715     3A    -11.246793  
       4A    -11.246613     5A    -11.242758     6A    -11.241714  
       7A    -11.227617     8A    -11.227491     9A     -1.093167  
      10A     -1.078323    11A     -1.031156    12A     -0.972908  
      13A     -0.889347    14A     -0.867619    15A     -0.785352  
      16A     -0.655665    17A     -0.644737    18A     -0.629793  
      19A     -0.627486    20A     -0.557095    21A     -0.552098  
      22A     -0.526321    23A     -0.524555    24A     -0.517940  
      25A     -0.513592    26A     -0.450928    27A     -0.450188  
      28A     -0.328750    29A     -0.327917  

    Virtual:                                                              

      30A      0.027970    31A      0.029521    32A      0.039450  
      33A      0.040935    34A      0.045837    35A      0.047937  
      36A      0.048701    37A      0.058788    38A      0.061602  
      39A      0.070795    40A      0.088584    41A      0.092159  
      42A      0.098837    43A      0.100975    44A      0.107440  
      45A      0.107697    46A      0.113244    47A      0.118532  
      48A      0.129185    49A      0.129637    50A      0.130023  
      51A      0.134769    52A      0.134953    53A      0.142449  
      54A      0.145798    55A      0.146859    56A      0.147861  
      57A      0.152002    58A      0.157482    59A      0.162405  
      60A      0.170630    61A      0.176637    62A      0.189006  
      63A      0.191672    64A      0.203065    65A      0.204427  
      66A      0.208205    67A      0.209117    68A      0.233251  
      69A      0.234506    70A      0.237397    71A      0.241646  
      72A      0.242832    73A      0.242952    74A      0.254383  
      75A      0.267349    76A      0.270495    77A      0.279763  
      78A      0.280205    79A      0.290908    80A      0.291875  
      81A      0.304755    82A      0.309391    83A      0.323717  
      84A      0.324309    85A      0.328105    86A      0.334577  
      87A      0.336179    88A      0.346951    89A      0.347256  
      90A      0.354202    91A      0.358844    92A      0.359475  
      93A      0.367887    94A      0.369514    95A      0.378965  
      96A      0.382086    97A      0.383557    98A      0.386513  
      99A      0.391606   100A      0.392186   101A      0.394555  
     102A      0.400016   103A      0.400399   104A      0.405366  
     105A      0.406488   106A      0.410717   107A      0.419939  
     108A      0.423606   109A      0.423670   110A      0.429149  
     111A      0.429936   112A      0.432756   113A      0.441734  
     114A      0.444070   115A      0.447268   116A      0.447769  
     117A      0.448310   118A      0.454229   119A      0.455314  
     120A      0.465131   121A      0.469106   122A      0.471116  
     123A      0.478826   124A      0.481828   125A      0.485861  
     126A      0.491851   127A      0.498036   128A      0.508734  
     129A      0.510105   130A      0.516641   131A      0.519920  
     132A      0.520564   133A      0.521321   134A      0.531876  
     135A      0.536740   136A      0.537326   137A      0.538138  
     138A      0.548668   139A      0.555878   140A      0.557692  
     141A      0.568990   142A      0.571573   143A      0.580529  
     144A      0.588522   145A      0.608915   146A      0.611221  
     147A      0.612130   148A      0.636306   149A      0.651270  
     150A      0.654187   151A      0.662369   152A      0.669360  
     153A      0.691744   154A      0.712709   155A      0.719915  
     156A      0.727028   157A      0.742964   158A      0.749652  
     159A      0.764776   160A      0.774554   161A      0.775304  
     162A      0.791173   163A      0.799151   164A      0.800754  
     165A      0.808927   166A      0.819792   167A      0.820039  
     168A      0.836111   169A      0.840851   170A      0.849904  
     171A      0.856855   172A      0.861751   173A      0.863061  
     174A      0.863485   175A      0.874853   176A      0.875193  
     177A      0.876576   178A      0.879630   179A      0.904722  
     180A      0.906702   181A      0.912206   182A      0.921331  
     183A      0.923455   184A      0.929443   185A      0.935047  
     186A      0.935730   187A      0.937584   188A      0.942124  
     189A      0.953545   190A      0.954534   191A      0.959381  
     192A      0.966340   193A      0.973637   194A      0.974052  
     195A      0.978539   196A      0.978865   197A      0.983913  
     198A      1.004826   199A      1.005212   200A      1.011401  
     201A      1.014832   202A      1.020419   203A      1.024421  
     204A      1.025631   205A      1.035615   206A      1.042383  
     207A      1.050196   208A      1.063589   209A      1.063918  
     210A      1.064755   211A      1.072200   212A      1.084264  
     213A      1.085900   214A      1.086964   215A      1.089340  
     216A      1.098662   217A      1.099935   218A      1.117814  
     219A      1.124801   220A      1.125428   221A      1.127972  
     222A      1.136721   223A      1.137782   224A      1.149191  
     225A      1.152688   226A      1.155575   227A      1.170681  
     228A      1.171766   229A      1.183950   230A      1.191338  
     231A      1.192336   232A      1.193146   233A      1.205654  
     234A      1.210667   235A      1.213660   236A      1.220669  
     237A      1.225931   238A      1.229777   239A      1.249142  
     240A      1.265425   241A      1.266229   242A      1.267126  
     243A      1.271716   244A      1.276839   245A      1.278929  
     246A      1.299643   247A      1.304366   248A      1.311958  
     249A      1.326375   250A      1.336289   251A      1.344940  
     252A      1.346825   253A      1.353477   254A      1.366189  
     255A      1.378701   256A      1.390079   257A      1.400271  
     258A      1.403233   259A      1.411577   260A      1.412476  
     261A      1.416586   262A      1.450111   263A      1.453132  
     264A      1.458493   265A      1.468693   266A      1.477948  
     267A      1.478530   268A      1.486909   269A      1.489848  
     270A      1.493065   271A      1.512351   272A      1.521089  
     273A      1.538034   274A      1.547231   275A      1.575995  
     276A      1.591479   277A      1.598765   278A      1.611936  
     279A      1.626114   280A      1.634769   281A      1.637521  
     282A      1.639249   283A      1.650865   284A      1.657721  
     285A      1.661899   286A      1.671287   287A      1.673077  
     288A      1.696547   289A      1.700166   290A      1.703425  
     291A      1.709442   292A      1.711431   293A      1.719874  
     294A      1.721381   295A      1.725398   296A      1.725603  
     297A      1.726359   298A      1.765125   299A      1.771420  
     300A      1.780553   301A      1.789848   302A      1.792577  
     303A      1.814140   304A      1.815691   305A      1.817876  
     306A      1.820157   307A      1.821266   308A      1.835195  
     309A      1.838425   310A      1.856292   311A      1.864144  
     312A      1.880253   313A      1.906901   314A      1.916008  
     315A      1.926633   316A      1.928230   317A      1.936536  
     318A      1.943181   319A      1.948893   320A      1.950635  
     321A      1.957820   322A      1.985254   323A      1.990338  
     324A      1.994655   325A      1.997729   326A      1.998698  
     327A      2.013083   328A      2.029433   329A      2.047654  
     330A      2.058404   331A      2.077690   332A      2.100633  
     333A      2.127259   334A      2.130527   335A      2.140503  
     336A      2.149971   337A      2.168001   338A      2.171622  
     339A      2.181722   340A      2.183925   341A      2.209593  
     342A      2.213774   343A      2.225772   344A      2.237112  
     345A      2.238469   346A      2.240756   347A      2.245576  
     348A      2.257864   349A      2.264629   350A      2.292109  
     351A      2.309262   352A      2.346226   353A      2.351446  
     354A      2.354806   355A      2.359138   356A      2.367265  
     357A      2.387047   358A      2.400426   359A      2.417975  
     360A      2.427695   361A      2.442739   362A      2.470650  
     363A      2.486454   364A      2.534710   365A      2.540895  
     366A      2.586804   367A      2.604843   368A      2.644904  
     369A      2.747281   370A      2.748496   371A      2.776448  
     372A      2.779298   373A      2.848714   374A      2.860947  
     375A      2.874574   376A      2.950316   377A      2.966638  
     378A      2.989784   379A      3.024639   380A      3.063173  
     381A      3.125358   382A      3.162218   383A      3.197987  
     384A      3.250244   385A      3.290929   386A      3.297677  
     387A      3.319715   388A      3.341357   389A      3.342650  
     390A      3.364141   391A      3.368973   392A      3.370411  
     393A      3.371940   394A      3.375914   395A      3.401773  
     396A      3.412681   397A      3.415422   398A      3.416923  
     399A      3.417864   400A      3.443310   401A      3.452810  
     402A      3.462125   403A      3.480623   404A      3.485317  
     405A      3.493053   406A      3.504208   407A      3.506876  
     408A      3.511605   409A      3.531057   410A      3.549385  
     411A      3.560366   412A      3.563082   413A      3.574676  
     414A      3.597035   415A      3.601541   416A      3.608985  
     417A      3.611600   418A      3.647928   419A      3.654634  
     420A      3.660262   421A      3.676973   422A      3.679357  
     423A      3.687446   424A      3.691034   425A      3.701247  
     426A      3.707374   427A      3.716927   428A      3.735195  
     429A      3.747324   430A      3.749273   431A      3.750112  
     432A      3.777014   433A      3.785814   434A      3.791638  
     435A      3.809103   436A      3.818005   437A      3.828224  
     438A      3.835921   439A      3.852723   440A      3.855723  
     441A      3.864271   442A      3.875810   443A      3.906548  
     444A      3.907335   445A      3.916522   446A      3.919939  
     447A      3.921453   448A      3.943675   449A      3.948447  
     450A      3.954191   451A      3.961721   452A      3.964758  
     453A      3.971550   454A      3.977852   455A      3.982837  
     456A      3.989765   457A      3.999290   458A      4.012990  
     459A      4.016029   460A      4.039364   461A      4.045336  
     462A      4.049959   463A      4.058111   464A      4.060707  
     465A      4.101019   466A      4.106348   467A      4.132154  
     468A      4.144312   469A      4.160063   470A      4.167769  
     471A      4.173308   472A      4.185140   473A      4.200636  
     474A      4.210770   475A      4.213286   476A      4.222410  
     477A      4.239689   478A      4.247688   479A      4.265123  
     480A      4.277943   481A      4.304938   482A      4.326468  
     483A      4.366414   484A      4.393293   485A      4.434057  
     486A      4.440483   487A      4.457583   488A      4.474592  
     489A      4.485092   490A      4.492151   491A      4.515003  
     492A      4.535263   493A      4.557143   494A      4.566486  
     495A      4.568060   496A      4.596856   497A      4.604546  
     498A      4.607305   499A      4.639082   500A      4.641851  
     501A      4.655953   502A      4.684067   503A      4.691740  
     504A      4.714534   505A      4.725940   506A      4.770358  
     507A      4.791945   508A      4.796912   509A      4.804562  
     510A      4.816323   511A      4.830642   512A      4.831010  
     513A      4.838628   514A      4.860798   515A      4.863289  
     516A      4.866356   517A      4.874436   518A      4.882829  
     519A      4.919912   520A      4.974573   521A      4.983541  
     522A      4.988949   523A      5.012692   524A      5.055233  
     525A      5.057771   526A      5.093804   527A      5.095709  
     528A      5.097452   529A      5.143753   530A      5.163907  
     531A      5.174454   532A      5.181322   533A      5.187690  
     534A      5.228371   535A      5.236976   536A      5.255515  
     537A      5.261927   538A      5.282205   539A      5.319855  
     540A      5.337160   541A      5.346217   542A      5.367269  
     543A      5.407673   544A      5.422469   545A      5.430610  
     546A      5.452534   547A      5.457521   548A      5.461734  
     549A      5.510671   550A      5.543504   551A      5.555056  
     552A      5.583558   553A      5.617391   554A      5.619000  
     555A      5.635155   556A      5.698838   557A      5.727336  
     558A      5.731851   559A      5.790381   560A      5.808530  
     561A      5.845291   562A      5.859099   563A      5.968304  
     564A      5.972548   565A      5.991442   566A      6.061132  
     567A      6.064507   568A      6.080115   569A      6.146647  
     570A      6.162831   571A      6.169200   572A      6.184927  
     573A      6.202531   574A      6.225103   575A      6.265553  
     576A      6.298796   577A      6.331332   578A      6.376970  
     579A      6.415547   580A      6.710773   581A      6.721964  
     582A      6.770651   583A      6.782003   584A      6.840058  
     585A      6.862194   586A      6.867955   587A      6.990831  
     588A      7.012610   589A      7.015977   590A      7.691677  
     591A     16.120573   592A     17.178633   593A     17.607384  
     594A     17.668716   595A     18.111773   596A     18.258705  
     597A     21.229401   598A     21.901800  

    Final Occupation by Irrep:
              A 
    DOCC [    29 ]

  @DF-RHF Final Energy:  -308.76101683307155

   => Energetics <=

    Nuclear Repulsion Energy =            287.9303566972665749
    One-Electron Energy =                -985.4314672411087486
    Two-Electron Energy =                 388.7400937107706227
    Total Energy =                       -308.7610168330715510

Computation Completed

*** tstop() called on c445-091.stampede2.tacc.utexas.edu at Fri Mar 19 21:07:18 2021
Module time:
	user time   =     429.24 seconds =       7.15 minutes
	system time =      35.88 seconds =       0.60 minutes
	total time  =         25 seconds =       0.42 minutes
Total time:
	user time   =     429.24 seconds =       7.15 minutes
	system time =      35.88 seconds =       0.60 minutes
	total time  =         25 seconds =       0.42 minutes
   => Loading Basis Set <=

    Name: (AUG-CC-PVTZ AUX)
    Role: RIFIT
    Keyword: DF_BASIS_MP2
    atoms 1-8  entry C          line   148 file /home1/07844/xy3866/miniconda3/envs/p4env/share/psi4/basis/aug-cc-pvtz-ri.gbs 
    atoms 9-18 entry H          line    30 file /home1/07844/xy3866/miniconda3/envs/p4env/share/psi4/basis/aug-cc-pvtz-ri.gbs 


*** tstart() called on c445-091.stampede2.tacc.utexas.edu
*** at Fri Mar 19 21:07:19 2021


  //>>>>>>>>>>>>>>>>>>>>>>>>>>>>>>>>>>>//
  //               DFMP2               //
  //<<<<<<<<<<<<<<<<<<<<<<<<<<<<<<<<<<<//

	 --------------------------------------------------------
	                          DF-MP2                         
	      2nd-Order Density-Fitted Moller-Plesset Theory     
	              RMP2 Wavefunction,  32 Threads             
	                                                         
	        Rob Parrish, Justin Turney, Andy Simmonett,      
	           Ed Hohenstein, and C. David Sherrill          
	 --------------------------------------------------------

   => Auxiliary Basis Set <=

  Basis Set: (AUG-CC-PVTZ AUX)
    Blend: AUG-CC-PVTZ-RI
    Number of shells: 364
    Number of basis functions: 1308
    Number of Cartesian functions: 1638
    Spherical Harmonics?: true
    Max angular momentum: 4

	 --------------------------------------------------------
	                 NBF =   598, NAUX =  1308
	 --------------------------------------------------------
	   CLASS    FOCC     OCC    AOCC    AVIR     VIR    FVIR
	   PAIRS       0      29      29     569     569       0
	 --------------------------------------------------------

  DFHelper Memory: AOs need 3.053 GiB; user supplied 22.352 GiB. Using in-core AOs.


         ------------------------------------------------------------
                                     CPHF                           
                                  Rob Parrish                       
         ------------------------------------------------------------

  ==> Geometry <==

    Molecular point group: c1
    Full point group: C1

    Geometry (in Angstrom), charge = 0, multiplicity = 1:

       Center              X                  Y                   Z               Mass       
    ------------   -----------------  -----------------  -----------------  -----------------
         C           -3.310505730055     0.664664251061     0.000035076026    12.000000000000
         C            3.310415269945    -0.664454748939     0.000034076026    12.000000000000
         C           -4.119005730055    -0.638093748939     0.000466076026    12.000000000000
         C            4.118911269945     0.638306251061     0.000466076026    12.000000000000
         C           -1.867913730055     0.422616251061     0.000022076026    12.000000000000
         C            1.867823269945    -0.422410748939     0.000023076026    12.000000000000
         C           -0.671752730055     0.137751251061     0.000026076026    12.000000000000
         C            0.671662269945    -0.137545748939     0.000026076026    12.000000000000
         H           -3.574728730055     1.266564251061    -0.877902923974     1.007825032230
         H           -3.574626730055     1.267081251061     0.877649076026     1.007825032230
         H            3.579458569945    -1.277329748939    -0.893913623974     1.007825032230
         H            3.574539269945    -1.266871748939     0.877648076026     1.007825032230
         H           -3.885874730055    -1.234038748939     0.885709076026     1.007825032230
         H           -3.885975730055    -1.234561748939    -0.884451923974     1.007825032230
         H           -5.190943730055    -0.419902748939     0.000462076026     1.007825032230
         H            3.885878269945     1.234773251061    -0.884451923974     1.007825032230
         H            3.885779269945     1.234249251061     0.885710076026     1.007825032230
         H            5.190850269945     0.420118251061     0.000461076026     1.007825032230

  Nuclear repulsion =  287.930356697266575
  Reference energy  = -308.761016833071551

  ==> Basis Set <==

  Basis Set: AUG-CC-PVTZ
    Blend: AUG-CC-PVTZ
    Number of shells: 202
    Number of basis functions: 598
    Number of Cartesian functions: 690
    Spherical Harmonics?: true
    Max angular momentum: 3

  ==> CGRSolver (by Rob Parrish) <==

   Number of roots    =         1
   Preconditioning    =    JACOBI
   Convergence cutoff =     1E-06
   Maximum iterations =       100

  ==> CPHFRHamiltonian (by Rob Parrish) <== 

  ==> MemDFJK: Density-Fitted J/K Matrices <==

    J tasked:                   Yes
    K tasked:                   Yes
    wK tasked:                   No
    OpenMP threads:              32
    Memory [MiB]:             22888
    Algorithm:                 Core
    Schwarz Cutoff:           1E-12
    Mask sparsity (%):      16.2297
    Fitting Condition:        1E-10

   => Auxiliary Basis Set <=

  Basis Set: (AUG-CC-PVTZ AUX)
    Blend: AUG-CC-PVTZ-JKFIT
    Number of shells: 380
    Number of basis functions: 1292
    Number of Cartesian functions: 1598
    Spherical Harmonics?: true
    Max angular momentum: 4

  ==> CPHF Iterations <==

  => Iterations <=

             Iter  Converged  Remaining    Residual
  CGR           1          0          1   8.277E-02
  CGR           2          0          1   2.159E-02
  CGR           3          0          1   7.757E-03
  CGR           4          0          1   1.851E-03
  CGR           5          0          1   5.449E-04
  CGR           6          0          1   1.425E-04
  CGR           7          0          1   5.807E-05
  CGR           8          0          1   3.115E-05
  CGR           9          0          1   1.586E-05
  CGR          10          0          1   6.205E-06
  CGR          11          0          1   3.632E-06
  CGR          12          0          1   1.296E-06
  CGR          13          1          0   4.101E-07

    CGRSolver converged.

	-----------------------------------------------------------
	 ==================> DF-MP2 Energies <==================== 
	-----------------------------------------------------------
	 Reference Energy          =    -308.7610168330715510 [Eh]
	 Singles Energy            =      -0.0000000000000000 [Eh]
	 Same-Spin Energy          =      -0.3334207682221175 [Eh]
	 Opposite-Spin Energy      =      -1.1364084724526566 [Eh]
	 Correlation Energy        =      -1.4698292406747742 [Eh]
	 Total Energy              =    -310.2308460737463065 [Eh]
	-----------------------------------------------------------
	 ================> DF-SCS-MP2 Energies <================== 
	-----------------------------------------------------------
	 SCS Same-Spin Scale       =       0.3333333333333333 [-]
	 SCS Opposite-Spin Scale   =       1.2000000000000000 [-]
	 SCS Same-Spin Energy      =      -0.1111402560740392 [Eh]
	 SCS Opposite-Spin Energy  =      -1.3636901669431880 [Eh]
	 SCS Correlation Energy    =      -1.4748304230172271 [Eh]
	 SCS Total Energy          =    -310.2358472560887890 [Eh]
	-----------------------------------------------------------



Properties will be evaluated at  -0.000000,   0.000000,  -0.000000 [a0]

Properties computed using the MP2 density matrix

  Nuclear Dipole Moment: [e a0]
     X:     0.0041      Y:    -0.0093      Z:    -0.0123

  Electronic Dipole Moment: [e a0]
     X:    -0.0067      Y:     0.0121      Z:     0.0142

  Dipole Moment: [e a0]
     X:    -0.0027      Y:     0.0028      Z:     0.0019     Total:     0.0043

  Dipole Moment: [D]
     X:    -0.0067      Y:     0.0071      Z:     0.0049     Total:     0.0110


*** tstop() called on c445-091.stampede2.tacc.utexas.edu at Fri Mar 19 21:09:49 2021
Module time:
	user time   =    1258.19 seconds =      20.97 minutes
	system time =      48.07 seconds =       0.80 minutes
	total time  =        150 seconds =       2.50 minutes
Total time:
	user time   =    1688.29 seconds =      28.14 minutes
	system time =      83.97 seconds =       1.40 minutes
	total time  =        176 seconds =       2.93 minutes

    Psi4 stopped on: Friday, 19 March 2021 09:09PM
    Psi4 wall time for execution: 0:02:57.05

*** Psi4 exiting successfully. Buy a developer a beer!
