opt=Tight                                                               
Freq      RMP2-FC                                                     6-31G(d)            
Number of atoms                            I               20
Info1-9                                    I   N=           9
          29          29        1002           0           0         100
           6           2           1
Charge                                     I                1
Multiplicity                               I                1
Number of electrons                        I               50
Number of alpha electrons                  I               25
Number of beta electrons                   I               25
Number of basis functions                  I              118
Number of independent functions            I              118
Number of point charges in /Mol/           I                0
Number of translation vectors              I                0
Atomic numbers                             I   N=          20
           7           6           6           6           6           6
           1           1           1           1           1           1
           1           1           1           1           1           1
           1           1
Nuclear charges                            R   N=          20
  7.00000000E+00  6.00000000E+00  6.00000000E+00  6.00000000E+00  6.00000000E+00
  6.00000000E+00  1.00000000E+00  1.00000000E+00  1.00000000E+00  1.00000000E+00
  1.00000000E+00  1.00000000E+00  1.00000000E+00  1.00000000E+00  1.00000000E+00
  1.00000000E+00  1.00000000E+00  1.00000000E+00  1.00000000E+00  1.00000000E+00
Current cartesian coordinates              R   N=          60
  7.89555924E-01 -1.23210144E-03 -1.19052746E-04 -1.61961624E+00  1.55710599E+00
 -1.79901928E-03  8.93838571E-01 -1.70413802E+00 -2.26053386E+00  2.98456920E+00
  1.79153218E+00 -1.02026314E-01  9.89660914E-01 -1.55269348E+00  2.36099737E+00
 -4.05031616E+00  3.93214214E-02  4.04968310E-03 -1.49810496E+00  2.76526460E+00
  1.66663829E+00 -1.50511206E+00  2.75286232E+00 -1.67992496E+00  6.31172308E-01
 -5.62885164E-01 -3.95418957E+00  2.73813002E+00 -2.61775068E+00 -2.29308251E+00
 -5.85482509E-01 -3.12280267E+00 -2.11000017E+00  2.89048352E+00  3.03648943E+00
  1.53467683E+00  4.72757511E+00  6.97312722E-01 -6.90864977E-02  2.85890431E+00
  2.88364838E+00 -1.84219574E+00  8.52561283E-01 -2.95728912E-01  3.98597666E+00
 -5.25598978E-01 -2.94009450E+00  2.39214195E+00  2.81292916E+00 -2.50802374E+00
  2.34904297E+00 -5.60482378E+00  1.39862600E+00  3.85145083E-02 -4.26951305E+00
 -1.10813351E+00 -1.69371051E+00 -4.23883524E+00 -1.15693002E+00  1.67190307E+00
Force Field                                I                0
Int Atom Types                             I   N=          20
           0           0           0           0           0           0
           0           0           0           0           0           0
           0           0           0           0           0           0
           0           0
MM charges                                 R   N=          20
  0.00000000E+00  0.00000000E+00  0.00000000E+00  0.00000000E+00  0.00000000E+00
  0.00000000E+00  0.00000000E+00  0.00000000E+00  0.00000000E+00  0.00000000E+00
  0.00000000E+00  0.00000000E+00  0.00000000E+00  0.00000000E+00  0.00000000E+00
  0.00000000E+00  0.00000000E+00  0.00000000E+00  0.00000000E+00  0.00000000E+00
Integer atomic weights                     I   N=          20
          14          12          12          12          12          12
           1           1           1           1           1           1
           1           1           1           1           1           1
           1           1
Real atomic weights                        R   N=          20
  1.40030740E+01  1.20000000E+01  1.20000000E+01  1.20000000E+01  1.20000000E+01
  1.20000000E+01  1.00782504E+00  1.00782504E+00  1.00782504E+00  1.00782504E+00
  1.00782504E+00  1.00782504E+00  1.00782504E+00  1.00782504E+00  1.00782504E+00
  1.00782504E+00  1.00782504E+00  1.00782504E+00  1.00782504E+00  1.00782504E+00
Atom fragment info                         I   N=          20
           0           0           0           0           0           0
           0           0           0           0           0           0
           0           0           0           0           0           0
           0           0
Atom residue num                           I   N=          20
           0           0           0           0           0           0
           0           0           0           0           0           0
           0           0           0           0           0           0
           0           0
Nuclear spins                              I   N=          20
           2           0           0           0           0           0
           1           1           1           1           1           1
           1           1           1           1           1           1
           1           1
Nuclear ZEff                               R   N=          20
 -4.55000000E+00 -3.60000000E+00 -3.60000000E+00 -3.60000000E+00 -3.60000000E+00
 -3.60000000E+00 -1.00000000E+00 -1.00000000E+00 -1.00000000E+00 -1.00000000E+00
 -1.00000000E+00 -1.00000000E+00 -1.00000000E+00 -1.00000000E+00 -1.00000000E+00
 -1.00000000E+00 -1.00000000E+00 -1.00000000E+00 -1.00000000E+00 -1.00000000E+00
Nuclear QMom                               R   N=          20
  2.04400000E+00  0.00000000E+00  0.00000000E+00  0.00000000E+00  0.00000000E+00
  0.00000000E+00  0.00000000E+00  0.00000000E+00  0.00000000E+00  0.00000000E+00
  0.00000000E+00  0.00000000E+00  0.00000000E+00  0.00000000E+00  0.00000000E+00
  0.00000000E+00  0.00000000E+00  0.00000000E+00  0.00000000E+00  0.00000000E+00
Nuclear GFac                               R   N=          20
  4.03761000E-01  0.00000000E+00  0.00000000E+00  0.00000000E+00  0.00000000E+00
  0.00000000E+00  2.79284600E+00  2.79284600E+00  2.79284600E+00  2.79284600E+00
  2.79284600E+00  2.79284600E+00  2.79284600E+00  2.79284600E+00  2.79284600E+00
  2.79284600E+00  2.79284600E+00  2.79284600E+00  2.79284600E+00  2.79284600E+00
MicOpt                                     I   N=          20
          -1          -1          -1          -1          -1          -1
          -1          -1          -1          -1          -1          -1
          -1          -1          -1          -1          -1          -1
          -1          -1
Number of contracted shells                I               52
Number of primitive shells                 I              122
Pure/Cartesian d shells                    I                1
Pure/Cartesian f shells                    I                0
Highest angular momentum                   I                2
Largest degree of contraction              I                6
Shell types                                I   N=          52
           0          -1          -1           2           0          -1
          -1           2           0          -1          -1           2
           0          -1          -1           2           0          -1
          -1           2           0          -1          -1           2
           0           0           0           0           0           0
           0           0           0           0           0           0
           0           0           0           0           0           0
           0           0           0           0           0           0
           0           0           0           0
Number of primitives per shell             I   N=          52
           6           3           1           1           6           3
           1           1           6           3           1           1
           6           3           1           1           6           3
           1           1           6           3           1           1
           3           1           3           1           3           1
           3           1           3           1           3           1
           3           1           3           1           3           1
           3           1           3           1           3           1
           3           1           3           1
Shell to atom map                          I   N=          52
           1           1           1           1           2           2
           2           2           3           3           3           3
           4           4           4           4           5           5
           5           5           6           6           6           6
           7           7           8           8           9           9
          10          10          11          11          12          12
          13          13          14          14          15          15
          16          16          17          17          18          18
          19          19          20          20
Primitive exponents                        R   N=         122
  4.17351146E+03  6.27457911E+02  1.42902093E+02  4.02343293E+01  1.28202129E+01
  4.39043701E+00  1.16263619E+01  2.71627981E+00  7.72218397E-01  2.12031498E-01
  8.00000000E-01  3.04752488E+03  4.57369518E+02  1.03948685E+02  2.92101553E+01
  9.28666296E+00  3.16392696E+00  7.86827235E+00  1.88128854E+00  5.44249258E-01
  1.68714478E-01  8.00000000E-01  3.04752488E+03  4.57369518E+02  1.03948685E+02
  2.92101553E+01  9.28666296E+00  3.16392696E+00  7.86827235E+00  1.88128854E+00
  5.44249258E-01  1.68714478E-01  8.00000000E-01  3.04752488E+03  4.57369518E+02
  1.03948685E+02  2.92101553E+01  9.28666296E+00  3.16392696E+00  7.86827235E+00
  1.88128854E+00  5.44249258E-01  1.68714478E-01  8.00000000E-01  3.04752488E+03
  4.57369518E+02  1.03948685E+02  2.92101553E+01  9.28666296E+00  3.16392696E+00
  7.86827235E+00  1.88128854E+00  5.44249258E-01  1.68714478E-01  8.00000000E-01
  3.04752488E+03  4.57369518E+02  1.03948685E+02  2.92101553E+01  9.28666296E+00
  3.16392696E+00  7.86827235E+00  1.88128854E+00  5.44249258E-01  1.68714478E-01
  8.00000000E-01  1.87311370E+01  2.82539436E+00  6.40121692E-01  1.61277759E-01
  1.87311370E+01  2.82539436E+00  6.40121692E-01  1.61277759E-01  1.87311370E+01
  2.82539436E+00  6.40121692E-01  1.61277759E-01  1.87311370E+01  2.82539436E+00
  6.40121692E-01  1.61277759E-01  1.87311370E+01  2.82539436E+00  6.40121692E-01
  1.61277759E-01  1.87311370E+01  2.82539436E+00  6.40121692E-01  1.61277759E-01
  1.87311370E+01  2.82539436E+00  6.40121692E-01  1.61277759E-01  1.87311370E+01
  2.82539436E+00  6.40121692E-01  1.61277759E-01  1.87311370E+01  2.82539436E+00
  6.40121692E-01  1.61277759E-01  1.87311370E+01  2.82539436E+00  6.40121692E-01
  1.61277759E-01  1.87311370E+01  2.82539436E+00  6.40121692E-01  1.61277759E-01
  1.87311370E+01  2.82539436E+00  6.40121692E-01  1.61277759E-01  1.87311370E+01
  2.82539436E+00  6.40121692E-01  1.61277759E-01  1.87311370E+01  2.82539436E+00
  6.40121692E-01  1.61277759E-01
Contraction coefficients                   R   N=         122
  1.83477216E-03  1.39946270E-02  6.85865518E-02  2.32240873E-01  4.69069948E-01
  3.60455199E-01 -1.14961182E-01 -1.69117479E-01  1.14585195E+00  1.00000000E+00
  1.00000000E+00  1.83473713E-03  1.40373228E-02  6.88426223E-02  2.32184443E-01
  4.67941348E-01  3.62311985E-01 -1.19332420E-01 -1.60854152E-01  1.14345644E+00
  1.00000000E+00  1.00000000E+00  1.83473713E-03  1.40373228E-02  6.88426223E-02
  2.32184443E-01  4.67941348E-01  3.62311985E-01 -1.19332420E-01 -1.60854152E-01
  1.14345644E+00  1.00000000E+00  1.00000000E+00  1.83473713E-03  1.40373228E-02
  6.88426223E-02  2.32184443E-01  4.67941348E-01  3.62311985E-01 -1.19332420E-01
 -1.60854152E-01  1.14345644E+00  1.00000000E+00  1.00000000E+00  1.83473713E-03
  1.40373228E-02  6.88426223E-02  2.32184443E-01  4.67941348E-01  3.62311985E-01
 -1.19332420E-01 -1.60854152E-01  1.14345644E+00  1.00000000E+00  1.00000000E+00
  1.83473713E-03  1.40373228E-02  6.88426223E-02  2.32184443E-01  4.67941348E-01
  3.62311985E-01 -1.19332420E-01 -1.60854152E-01  1.14345644E+00  1.00000000E+00
  1.00000000E+00  3.34946043E-02  2.34726953E-01  8.13757326E-01  1.00000000E+00
  3.34946043E-02  2.34726953E-01  8.13757326E-01  1.00000000E+00  3.34946043E-02
  2.34726953E-01  8.13757326E-01  1.00000000E+00  3.34946043E-02  2.34726953E-01
  8.13757326E-01  1.00000000E+00  3.34946043E-02  2.34726953E-01  8.13757326E-01
  1.00000000E+00  3.34946043E-02  2.34726953E-01  8.13757326E-01  1.00000000E+00
  3.34946043E-02  2.34726953E-01  8.13757326E-01  1.00000000E+00  3.34946043E-02
  2.34726953E-01  8.13757326E-01  1.00000000E+00  3.34946043E-02  2.34726953E-01
  8.13757326E-01  1.00000000E+00  3.34946043E-02  2.34726953E-01  8.13757326E-01
  1.00000000E+00  3.34946043E-02  2.34726953E-01  8.13757326E-01  1.00000000E+00
  3.34946043E-02  2.34726953E-01  8.13757326E-01  1.00000000E+00  3.34946043E-02
  2.34726953E-01  8.13757326E-01  1.00000000E+00  3.34946043E-02  2.34726953E-01
  8.13757326E-01  1.00000000E+00
P(S=P) Contraction coefficients            R   N=         122
  0.00000000E+00  0.00000000E+00  0.00000000E+00  0.00000000E+00  0.00000000E+00
  0.00000000E+00  6.75797439E-02  3.23907296E-01  7.40895140E-01  1.00000000E+00
  0.00000000E+00  0.00000000E+00  0.00000000E+00  0.00000000E+00  0.00000000E+00
  0.00000000E+00  0.00000000E+00  6.89990666E-02  3.16423961E-01  7.44308291E-01
  1.00000000E+00  0.00000000E+00  0.00000000E+00  0.00000000E+00  0.00000000E+00
  0.00000000E+00  0.00000000E+00  0.00000000E+00  6.89990666E-02  3.16423961E-01
  7.44308291E-01  1.00000000E+00  0.00000000E+00  0.00000000E+00  0.00000000E+00
  0.00000000E+00  0.00000000E+00  0.00000000E+00  0.00000000E+00  6.89990666E-02
  3.16423961E-01  7.44308291E-01  1.00000000E+00  0.00000000E+00  0.00000000E+00
  0.00000000E+00  0.00000000E+00  0.00000000E+00  0.00000000E+00  0.00000000E+00
  6.89990666E-02  3.16423961E-01  7.44308291E-01  1.00000000E+00  0.00000000E+00
  0.00000000E+00  0.00000000E+00  0.00000000E+00  0.00000000E+00  0.00000000E+00
  0.00000000E+00  6.89990666E-02  3.16423961E-01  7.44308291E-01  1.00000000E+00
  0.00000000E+00  0.00000000E+00  0.00000000E+00  0.00000000E+00  0.00000000E+00
  0.00000000E+00  0.00000000E+00  0.00000000E+00  0.00000000E+00  0.00000000E+00
  0.00000000E+00  0.00000000E+00  0.00000000E+00  0.00000000E+00  0.00000000E+00
  0.00000000E+00  0.00000000E+00  0.00000000E+00  0.00000000E+00  0.00000000E+00
  0.00000000E+00  0.00000000E+00  0.00000000E+00  0.00000000E+00  0.00000000E+00
  0.00000000E+00  0.00000000E+00  0.00000000E+00  0.00000000E+00  0.00000000E+00
  0.00000000E+00  0.00000000E+00  0.00000000E+00  0.00000000E+00  0.00000000E+00
  0.00000000E+00  0.00000000E+00  0.00000000E+00  0.00000000E+00  0.00000000E+00
  0.00000000E+00  0.00000000E+00  0.00000000E+00  0.00000000E+00  0.00000000E+00
  0.00000000E+00  0.00000000E+00  0.00000000E+00  0.00000000E+00  0.00000000E+00
  0.00000000E+00  0.00000000E+00  0.00000000E+00  0.00000000E+00  0.00000000E+00
  0.00000000E+00  0.00000000E+00
Coordinates of each shell                  R   N=         156
  7.89556035E-01 -1.23210689E-03 -1.19015693E-04  7.89556035E-01 -1.23210689E-03
 -1.19015693E-04  7.89556035E-01 -1.23210689E-03 -1.19015693E-04  7.89556035E-01
 -1.23210689E-03 -1.19015693E-04 -1.61961604E+00  1.55710611E+00 -1.79898223E-03
 -1.61961604E+00  1.55710611E+00 -1.79898223E-03 -1.61961604E+00  1.55710611E+00
 -1.79898223E-03 -1.61961604E+00  1.55710611E+00 -1.79898223E-03  8.93838591E-01
 -1.70413803E+00 -2.26053383E+00  8.93838591E-01 -1.70413803E+00 -2.26053383E+00
  8.93838591E-01 -1.70413803E+00 -2.26053383E+00  8.93838591E-01 -1.70413803E+00
 -2.26053383E+00  2.98456941E+00  1.79153206E+00 -1.02026277E-01  2.98456941E+00
  1.79153206E+00 -1.02026277E-01  2.98456941E+00  1.79153206E+00 -1.02026277E-01
  2.98456941E+00  1.79153206E+00 -1.02026277E-01  9.89660942E-01 -1.55269349E+00
  2.36099741E+00  9.89660942E-01 -1.55269349E+00  2.36099741E+00  9.89660942E-01
 -1.55269349E+00  2.36099741E+00  9.89660942E-01 -1.55269349E+00  2.36099741E+00
 -4.05031605E+00  3.93216765E-02  4.04972016E-03 -4.05031605E+00  3.93216765E-02
  4.04972016E-03 -4.05031605E+00  3.93216765E-02  4.04972016E-03 -4.05031605E+00
  3.93216765E-02  4.04972016E-03 -1.49810470E+00  2.76526471E+00  1.66663833E+00
 -1.49810470E+00  2.76526471E+00  1.66663833E+00 -1.50511180E+00  2.75286244E+00
 -1.67992492E+00 -1.50511180E+00  2.75286244E+00 -1.67992492E+00  6.31172389E-01
 -5.62885161E-01 -3.95418954E+00  6.31172389E-01 -5.62885161E-01 -3.95418954E+00
  2.73812999E+00 -2.61775079E+00 -2.29308247E+00  2.73812999E+00 -2.61775079E+00
 -2.29308247E+00 -5.85482566E-01 -3.12280260E+00 -2.11000013E+00 -5.85482566E-01
 -3.12280260E+00 -2.11000013E+00  2.89048379E+00  3.03648931E+00  1.53467687E+00
  2.89048379E+00  3.03648931E+00  1.53467687E+00  4.72757526E+00  6.97312505E-01
 -6.90864606E-02  4.72757526E+00  6.97312505E-01 -6.90864606E-02  2.85890457E+00
  2.88364826E+00 -1.84219570E+00  2.85890457E+00  2.88364826E+00 -1.84219570E+00
  8.52561378E-01 -2.95728921E-01  3.98597669E+00  8.52561378E-01 -2.95728921E-01
  3.98597669E+00 -5.25599025E-01 -2.94009443E+00  2.39214199E+00 -5.25599025E-01
 -2.94009443E+00  2.39214199E+00  2.81292913E+00 -2.50802385E+00  2.34904300E+00
  2.81292913E+00 -2.50802385E+00  2.34904300E+00 -5.60482359E+00  1.39862633E+00
  3.85145454E-02 -5.60482359E+00  1.39862633E+00  3.85145454E-02 -4.26951300E+00
 -1.10813325E+00 -1.69371047E+00 -4.26951300E+00 -1.10813325E+00 -1.69371047E+00
 -4.23883519E+00 -1.15692976E+00  1.67190311E+00 -4.23883519E+00 -1.15692976E+00
  1.67190311E+00
Constraint Structure                       R   N=          60
  7.89556035E-01 -1.23210689E-03 -1.19015693E-04 -1.61961604E+00  1.55710611E+00
 -1.79898223E-03  8.93838591E-01 -1.70413803E+00 -2.26053383E+00  2.98456941E+00
  1.79153206E+00 -1.02026277E-01  9.89660942E-01 -1.55269349E+00  2.36099741E+00
 -4.05031605E+00  3.93216765E-02  4.04972016E-03 -1.49810470E+00  2.76526471E+00
  1.66663833E+00 -1.50511180E+00  2.75286244E+00 -1.67992492E+00  6.31172389E-01
 -5.62885161E-01 -3.95418954E+00  2.73812999E+00 -2.61775079E+00 -2.29308247E+00
 -5.85482566E-01 -3.12280260E+00 -2.11000013E+00  2.89048379E+00  3.03648931E+00
  1.53467687E+00  4.72757526E+00  6.97312505E-01 -6.90864606E-02  2.85890457E+00
  2.88364826E+00 -1.84219570E+00  8.52561378E-01 -2.95728921E-01  3.98597669E+00
 -5.25599025E-01 -2.94009443E+00  2.39214199E+00  2.81292913E+00 -2.50802385E+00
  2.34904300E+00 -5.60482359E+00  1.39862633E+00  3.85145454E-02 -4.26951300E+00
 -1.10813325E+00 -1.69371047E+00 -4.23883519E+00 -1.15692976E+00  1.67190311E+00
Num ILSW                                   I              100
ILSW                                       I   N=         100
           0           1           0           0           2           0
           0           0           0           0           0          -1
           0           0           0           0           0           0
           0           0           0           0           1           0
           1           0           0           0           0           0
           0           0      100000           0          -1           0
           0           0           0           0           0           0
           0           0           0           1           1           0
           0           0           1           0           0           0
           0           0           4          40           0           0
           0           0           0           0           0           0
           0           0           0           0           0           0
           0           0           0           0           0           0
           0           0           0           0           0           0
           0           0           0           0           0           0
           0           0           0           0           0           0
           0           0           0           0
Num RLSW                                   I               40
RLSW                                       R   N=          40
  1.00000000E+00  1.00000000E+00  1.00000000E+00  1.00000000E+00  1.00000000E+00
  0.00000000E+00  0.00000000E+00  1.00000000E+00  0.00000000E+00  0.00000000E+00
  0.00000000E+00  0.00000000E+00  1.00000000E+00  0.00000000E+00  0.00000000E+00
  0.00000000E+00  0.00000000E+00  1.00000000E+00  0.00000000E+00  0.00000000E+00
  0.00000000E+00  0.00000000E+00  1.00000000E+00  0.00000000E+00  0.00000000E+00
  0.00000000E+00  0.00000000E+00  1.00000000E+00  0.00000000E+00  0.00000000E+00
  0.00000000E+00  0.00000000E+00  0.00000000E+00  0.00000000E+00  0.00000000E+00
  0.00000000E+00  0.00000000E+00  0.00000000E+00  1.00000000E+00  1.00000000E+00
MxBond                                     I                4
NBond                                      I   N=          20
           4           4           4           4           4           4
           1           1           1           1           1           1
           1           1           1           1           1           1
           1           1
IBond                                      I   N=          80
           2           3           4           5           1           6
           7           8           1           9          10          11
           1          12          13          14           1          15
          16          17           2          18          19          20
           2           0           0           0           2           0
           0           0           3           0           0           0
           3           0           0           0           3           0
           0           0           4           0           0           0
           4           0           0           0           4           0
           0           0           5           0           0           0
           5           0           0           0           5           0
           0           0           6           0           0           0
           6           0           0           0           6           0
           0           0
RBond                                      R   N=          80
  1.00000000E+00  1.00000000E+00  1.00000000E+00  1.00000000E+00  1.00000000E+00
  1.00000000E+00  1.00000000E+00  1.00000000E+00  1.00000000E+00  1.00000000E+00
  1.00000000E+00  1.00000000E+00  1.00000000E+00  1.00000000E+00  1.00000000E+00
  1.00000000E+00  1.00000000E+00  1.00000000E+00  1.00000000E+00  1.00000000E+00
  1.00000000E+00  1.00000000E+00  1.00000000E+00  1.00000000E+00  1.00000000E+00
  0.00000000E+00  0.00000000E+00  0.00000000E+00  1.00000000E+00  0.00000000E+00
  0.00000000E+00  0.00000000E+00  1.00000000E+00  0.00000000E+00  0.00000000E+00
  0.00000000E+00  1.00000000E+00  0.00000000E+00  0.00000000E+00  0.00000000E+00
  1.00000000E+00  0.00000000E+00  0.00000000E+00  0.00000000E+00  1.00000000E+00
  0.00000000E+00  0.00000000E+00  0.00000000E+00  1.00000000E+00  0.00000000E+00
  0.00000000E+00  0.00000000E+00  1.00000000E+00  0.00000000E+00  0.00000000E+00
  0.00000000E+00  1.00000000E+00  0.00000000E+00  0.00000000E+00  0.00000000E+00
  1.00000000E+00  0.00000000E+00  0.00000000E+00  0.00000000E+00  1.00000000E+00
  0.00000000E+00  0.00000000E+00  0.00000000E+00  1.00000000E+00  0.00000000E+00
  0.00000000E+00  0.00000000E+00  1.00000000E+00  0.00000000E+00  0.00000000E+00
  0.00000000E+00  1.00000000E+00  0.00000000E+00  0.00000000E+00  0.00000000E+00
Virial Ratio                               R      2.001824652193581E+00
SCF Energy                                 R     -2.517983560278192E+02
MP2 Energy                                 R     -2.526221287788451E+02
Total Energy                               R     -2.526221287788451E+02
Post-SCF wavefunction norm                 R      1.591484977601084E+00
RMS Force                                  R      6.437266894953977E-06
RMS Density                                R      5.004166160873544E-10
External E-field                           R   N=          35
  0.00000000E+00  0.00000000E+00  0.00000000E+00  0.00000000E+00  0.00000000E+00
  0.00000000E+00  0.00000000E+00  0.00000000E+00  0.00000000E+00  0.00000000E+00
  0.00000000E+00  0.00000000E+00  0.00000000E+00  0.00000000E+00  0.00000000E+00
  0.00000000E+00  0.00000000E+00  0.00000000E+00  0.00000000E+00  0.00000000E+00
  0.00000000E+00  0.00000000E+00  0.00000000E+00  0.00000000E+00  0.00000000E+00
  0.00000000E+00  0.00000000E+00  0.00000000E+00  0.00000000E+00  0.00000000E+00
  0.00000000E+00  0.00000000E+00  0.00000000E+00  0.00000000E+00  0.00000000E+00
IOpCl                                      I                0
IROHF                                      I                0
Alpha Orbital Energies                     R   N=         118
 -1.57145921E+01 -1.13032365E+01 -1.12956114E+01 -1.12951025E+01 -1.12950848E+01
 -1.12407971E+01 -1.35201709E+00 -1.06566435E+00 -1.01536492E+00 -1.01515368E+00
 -9.28147042E-01 -8.39116134E-01 -7.20928846E-01 -7.15790899E-01 -6.95096384E-01
 -6.46507594E-01 -6.17194981E-01 -5.90070672E-01 -5.84693697E-01 -5.73463697E-01
 -5.68872475E-01 -5.64919625E-01 -5.38017930E-01 -5.33637509E-01 -5.23837958E-01
  1.80446180E-01  2.38382140E-01  2.45002450E-01  2.45685276E-01  2.61442934E-01
  2.63746884E-01  2.65709219E-01  2.88271177E-01  3.00522378E-01  3.03441240E-01
  3.24196736E-01  3.29750597E-01  3.33979689E-01  3.44479559E-01  3.51606267E-01
  3.60084954E-01  3.63890587E-01  3.92601826E-01  4.10055996E-01  6.48550113E-01
  6.64381959E-01  6.68676654E-01  6.80729512E-01  6.90054670E-01  7.65490871E-01
  7.79908274E-01  8.02143473E-01  8.35264202E-01  8.77103301E-01  8.91922314E-01
  9.40923444E-01  1.01830859E+00  1.02184869E+00  1.04994205E+00  1.05821530E+00
  1.09379698E+00  1.10108429E+00  1.11976971E+00  1.12582576E+00  1.13735539E+00
  1.14676059E+00  1.15276846E+00  1.16018507E+00  1.17036722E+00  1.18508337E+00
  1.20073390E+00  1.20592097E+00  1.21695103E+00  1.23879646E+00  1.24174692E+00
  1.26637178E+00  1.29039957E+00  1.52685218E+00  1.56829030E+00  1.57296097E+00
  1.73288132E+00  1.75122030E+00  1.84458777E+00  1.87482400E+00  1.94231907E+00
  1.98276406E+00  2.04611623E+00  2.08921967E+00  2.17743762E+00  2.18384289E+00
  2.19659155E+00  2.23252205E+00  2.26862868E+00  2.38287924E+00  2.38702998E+00
  2.38793425E+00  2.41023814E+00  2.44636245E+00  2.53330202E+00  2.53661890E+00
  2.53973812E+00  2.55179009E+00  2.55779711E+00  2.59259146E+00  2.65789284E+00
  2.68968016E+00  2.77431181E+00  2.86801278E+00  3.00142498E+00  3.02522858E+00
  3.04444165E+00  3.07911299E+00  4.46922740E+00  4.62844156E+00  4.67914730E+00
  4.68285843E+00  4.76057380E+00  4.86434901E+00
Alpha MO coefficients                      R   N=       13924
  9.95185021E-01  2.51778163E-02  6.27866807E-05 -2.15510352E-05 -1.53943869E-06
 -5.01821927E-03 -2.26395151E-05 -7.11913306E-05  1.10374972E-05 -3.07013219E-03
 -3.05517109E-03 -3.05011760E-03  4.39325665E-06 -1.52162403E-07 -9.75943022E-08
 -1.97001578E-05  6.00372298E-05  2.79246057E-04 -1.81169321E-04  3.68244501E-07
  1.64014219E-03  3.77050070E-04 -3.94216132E-04 -2.05293244E-06 -2.03160701E-05
 -4.16319270E-05 -7.55573564E-05 -2.16051735E-05 -1.67053739E-07 -1.52587684E-07
 -3.84337388E-06  1.52514845E-04 -9.50545054E-06  2.05532725E-04  2.73576965E-04
  1.30442351E-03 -1.18083038E-05  2.91581138E-04  3.55247165E-04 -4.97599058E-05
 -4.23753786E-05 -4.30191649E-05  2.14426236E-06  2.80947354E-07  6.48438942E-06
 -5.14345112E-06  1.41762621E-04 -2.73380926E-04 -2.23458515E-04  1.25961612E-05
  1.38910859E-03 -3.82786363E-04 -3.03379464E-04  1.53484274E-05 -3.53678204E-05
 -4.22424645E-05 -4.91589789E-05  1.30977069E-05 -3.37033532E-07 -3.11785347E-07
 -3.40586096E-06  1.54513344E-04 -2.28160121E-05  1.87144540E-04 -2.84903544E-04
  1.28944567E-03 -1.95462807E-05  2.60408034E-04 -3.71613557E-04 -4.87029566E-05
 -4.29606881E-05 -4.17440083E-05  1.23472629E-06 -2.14726075E-07 -6.29814978E-06
  1.18458001E-06  3.76066293E-05 -5.75392695E-05  1.40502955E-06  9.88366887E-07
 -3.11964189E-04 -1.77907165E-04 -8.84261913E-05 -3.97584609E-06 -5.14983048E-05
  1.03286384E-05 -2.42917234E-05 -1.41047128E-05  8.10831778E-07 -3.40102336E-07
 -8.68452096E-05 -1.34917234E-04 -8.74324422E-05 -1.38393865E-04 -7.70021020E-05
 -1.51320848E-04 -7.61295274E-05 -1.35539763E-04 -8.74628091E-05 -9.40425198E-05
 -8.18701804E-05 -1.38711469E-04 -8.18776138E-05 -1.33785275E-04 -8.22472452E-05
 -1.39768001E-04 -7.55839287E-05 -1.46209545E-04 -8.49040301E-05 -9.57803353E-05
 -7.64470349E-05 -1.38113655E-04 -2.22851105E-06  8.07254094E-05  2.32954985E-05
 -6.85817632E-05  2.08806130E-05 -5.60607037E-05 -1.20747729E-04  3.96026393E-04
 -2.06944877E-04  1.12942249E-04  2.47650560E-06  1.01268643E-03 -4.11025398E-04
  3.26069799E-04 -3.30862222E-05 -3.33026934E-04 -1.86180417E-04  1.42924753E-05
  3.12977464E-04 -1.11286575E-06  1.62777407E-06  9.95921835E-01  2.82416305E-02
  7.85783595E-04 -6.64886758E-04  5.72991542E-06 -1.60903156E-02 -2.02275388E-04
  1.14150544E-03 -2.52732788E-05 -1.45354711E-03 -1.48910806E-03 -1.34288534E-03
  9.22515649E-05  9.86127894E-07 -5.34587095E-07 -1.10086438E-03 -4.33756928E-04
  9.52878817E-05 -8.24299818E-05 -1.85063393E-05  1.42069606E-03 -9.76407491E-04
  6.68302259E-04  1.09598673E-04 -8.50789401E-05 -2.84471320E-05 -1.01061870E-04
 -9.84976807E-05 -5.73827291E-05  4.25156658E-05 -1.01250559E-03 -3.32737416E-04
  5.18309178E-05 -3.06349198E-05  2.38658597E-06  1.11089576E-03 -6.82398101E-04
  5.13279248E-04 -1.52403450E-05  8.60601777E-05 -1.16778779E-04 -7.44241088E-05
 -3.76987567E-05 -6.24222471E-06  3.54744840E-06 -1.13413457E-03 -4.49731201E-04
  1.01301568E-04 -8.41300562E-05  1.54012395E-05  1.52321634E-03 -1.00535245E-03
  7.13737989E-04 -9.99520618E-05 -8.35474837E-05 -4.13319505E-05 -1.05567241E-04