
    -----------------------------------------------------------------------
          Psi4: An Open-Source Ab Initio Electronic Structure Package
                               Psi4 1.4a3.dev225 

                         Git: Rev {master} 7105e37 


    D. G. A. Smith, L. A. Burns, A. C. Simmonett, R. M. Parrish,
    M. C. Schieber, R. Galvelis, P. Kraus, H. Kruse, R. Di Remigio,
    A. Alenaizan, A. M. James, S. Lehtola, J. P. Misiewicz, M. Scheurer,
    R. A. Shaw, J. B. Schriber, Y. Xie, Z. L. Glick, D. A. Sirianni,
    J. S. O'Brien, J. M. Waldrop, A. Kumar, E. G. Hohenstein,
    B. P. Pritchard, B. R. Brooks, H. F. Schaefer III, A. Yu. Sokolov,
    K. Patkowski, A. E. DePrince III, U. Bozkaya, R. A. King,
    F. A. Evangelista, J. M. Turney, T. D. Crawford, C. D. Sherrill,
    J. Chem. Phys. 152(18) 184108 (2020). https://doi.org/10.1063/5.0006002

                            Additional Code Authors
    E. T. Seidl, C. L. Janssen, E. F. Valeev, M. L. Leininger,
    J. F. Gonthier, R. M. Richard, H. R. McAlexander, M. Saitow, X. Wang,
    P. Verma, and M. H. Lechner

             Previous Authors, Complete List of Code Contributors,
                       and Citations for Specific Modules
    https://github.com/psi4/psi4/blob/master/codemeta.json
    https://github.com/psi4/psi4/graphs/contributors
    http://psicode.org/psi4manual/master/introduction.html#citing-psifour

    -----------------------------------------------------------------------


    Psi4 started on: Saturday, 06 March 2021 03:21AM

    Process ID: 106845
    Host:       c459-032.stampede2.tacc.utexas.edu
    PSIDATADIR: /home1/07844/xy3866/miniconda3/envs/p4env/share/psi4
    Memory:     500.0 MiB
    Threads:    32
    
  ==> Input File <==

--------------------------------------------------------------------------
#psi4
#
memory 32 gb

molecule  {
0 1
  C       -0.2663850     0.0008990    -0.0013960
  C        1.2106340     0.0001110     0.0000760
  C       -3.1008180     0.0056250    -0.0137190
  C       -0.9855960    -1.1139970    -0.4586890
  C       -0.9858100     1.1188490     0.4479860
  C       -2.3796020    -1.1098520    -0.4588000
  C       -2.3797760     1.1173260     0.4409920
  C        1.9242530    -1.1209430     0.4529070
  C        1.9275400     1.1199170    -0.4505910
  C       -4.6068780    -0.0078780     0.0198210
  C        3.3192690    -1.1228030     0.4522780
  C        3.3225700     1.1193260    -0.4456390
  C        4.0647328    -0.0255962     0.0143484
  H       -0.4460470    -1.9780880    -0.8418930
  H       -0.4465600     1.9841010     0.8290070
  H       -2.9173870    -1.9815130    -0.8295580
  H       -2.9177760     1.9946350     0.7979050
  H        1.3786050    -1.9834820     0.8303220
  H        1.3846280     1.9832890    -0.8299950
  H       -5.0126890     0.9989950    -0.1140710
  H       -5.0122110    -0.6453700    -0.7711930
  H       -4.9781370    -0.3905110     0.9770230
  H        3.8582660    -1.9961250     0.8126670
  H        3.8641780     1.9916920    -0.8044220
  H        5.1104020    -0.0032360     0.0061230
units angstrom
no_reorient  #important for SAPT in psi4, default
symmetry c1  #important for SAPT in psi4, default
}

set PROPERTIES_ORIGIN ["COM"]
properties('MP2/aug-cc-pvtz', properties = ['dipole'])
--------------------------------------------------------------------------

  Memory set to  29.802 GiB by Python driver.
    SCF Algorithm Type (re)set to DF.

*** tstart() called on c459-032.stampede2.tacc.utexas.edu
*** at Sat Mar  6 03:21:47 2021

   => Loading Basis Set <=

    Name: AUG-CC-PVTZ
    Role: ORBITAL
    Keyword: BASIS
    atoms 1-13  entry C          line   239 file /home1/07844/xy3866/miniconda3/envs/p4env/share/psi4/basis/aug-cc-pvtz.gbs 
    atoms 14-25 entry H          line    40 file /home1/07844/xy3866/miniconda3/envs/p4env/share/psi4/basis/aug-cc-pvtz.gbs 


         ---------------------------------------------------------
                                   SCF
               by Justin Turney, Rob Parrish, Andy Simmonett
                          and Daniel G. A. Smith
                              RHF Reference
                       32 Threads,  30517 MiB Core
         ---------------------------------------------------------

  ==> Geometry <==

    Molecular point group: c1
    Full point group: C1

    Geometry (in Angstrom), charge = 0, multiplicity = 1:

       Center              X                  Y                   Z               Mass       
    ------------   -----------------  -----------------  -----------------  -----------------
         C           -0.305570676223     0.002410106721    -0.001736835014    12.000000000000
         C            1.171448323777     0.001622106721    -0.000264835014    12.000000000000
         C           -3.140003676223     0.007136106721    -0.014059835014    12.000000000000
         C           -1.024781676223    -1.112485893279    -0.459029835014    12.000000000000
         C           -1.024995676223     1.120360106721     0.447645164986    12.000000000000
         C           -2.418787676223    -1.108340893279    -0.459140835014    12.000000000000
         C           -2.418961676223     1.118837106721     0.440651164986    12.000000000000
         C            1.885067323777    -1.119431893279     0.452566164986    12.000000000000
         C            1.888354323777     1.121428106721    -0.450931835014    12.000000000000
         C           -4.646063676223    -0.006366893279     0.019480164986    12.000000000000
         C            3.280083323777    -1.121291893279     0.451937164986    12.000000000000
         C            3.283384323777     1.120837106721    -0.445979835014    12.000000000000
         C            4.025547123777    -0.024085093279     0.014007564986    12.000000000000
         H           -0.485232676223    -1.976576893279    -0.842233835014     1.007825032230
         H           -0.485745676223     1.985612106721     0.828666164986     1.007825032230
         H           -2.956572676223    -1.980001893279    -0.829898835014     1.007825032230
         H           -2.956961676223     1.996146106721     0.797564164986     1.007825032230
         H            1.339419323777    -1.981970893279     0.829981164986     1.007825032230
         H            1.345442323777     1.984800106721    -0.830335835014     1.007825032230
         H           -5.051874676223     1.000506106721    -0.114411835014     1.007825032230
         H           -5.051396676223    -0.643858893279    -0.771533835014     1.007825032230
         H           -5.017322676223    -0.388999893279     0.976682164986     1.007825032230
         H            3.819080323777    -1.994613893279     0.812326164986     1.007825032230
         H            3.824992323777     1.993203106721    -0.804762835014     1.007825032230
         H            5.071216323777    -0.001724893279     0.005782164986     1.007825032230

  Running in c1 symmetry.

  Rotational constants: A =      0.09369  B =      0.01318  C =      0.01199 [cm^-1]
  Rotational constants: A =   2808.66601  B =    395.01335  C =    359.39060 [MHz]
  Nuclear repulsion =  686.507672729880596

  Charge       = 0
  Multiplicity = 1
  Electrons    = 90
  Nalpha       = 45
  Nbeta        = 45

  ==> Algorithm <==

  SCF Algorithm Type is DF.
  DIIS enabled.
  MOM disabled.
  Fractional occupation disabled.
  Guess Type is SAD.
  Energy threshold   = 1.00e-10
  Density threshold  = 1.00e-10
  Integral threshold = 1.00e-12

  ==> Primary Basis <==

  Basis Set: AUG-CC-PVTZ
    Blend: AUG-CC-PVTZ
    Number of shells: 290
    Number of basis functions: 874
    Number of Cartesian functions: 1015
    Spherical Harmonics?: true
    Max angular momentum: 3

   => Loading Basis Set <=

    Name: (AUG-CC-PVTZ AUX)
    Role: JKFIT
    Keyword: DF_BASIS_SCF
    atoms 1-13  entry C          line   162 file /home1/07844/xy3866/miniconda3/envs/p4env/share/psi4/basis/aug-cc-pvtz-jkfit.gbs 
    atoms 14-25 entry H          line    70 file /home1/07844/xy3866/miniconda3/envs/p4env/share/psi4/basis/aug-cc-pvtz-jkfit.gbs 

  ==> Integral Setup <==

  DFHelper Memory: AOs need 9.236 GiB; user supplied 22.352 GiB. Using in-core AOs.

  ==> MemDFJK: Density-Fitted J/K Matrices <==

    J tasked:                   Yes
    K tasked:                   Yes
    wK tasked:                   No
    OpenMP threads:              32
    Memory [MiB]:             22888
    Algorithm:                 Core
    Schwarz Cutoff:           1E-12
    Mask sparsity (%):      18.1147
    Fitting Condition:        1E-10

   => Auxiliary Basis Set <=

  Basis Set: (AUG-CC-PVTZ AUX)
    Blend: AUG-CC-PVTZ-JKFIT
    Number of shells: 558
    Number of basis functions: 1904
    Number of Cartesian functions: 2363
    Spherical Harmonics?: true
    Max angular momentum: 4

  Minimum eigenvalue in the overlap matrix is 4.0515877569E-07.
  Reciprocal condition number of the overlap matrix is 1.9765010079E-08.
    Using symmetric orthogonalization.

  ==> Pre-Iterations <==

  SCF Guess: Superposition of Atomic Densities via on-the-fly atomic UHF (no occupation information).

   -------------------------
    Irrep   Nso     Nmo    
   -------------------------
     A        874     874 
   -------------------------
    Total     874     874
   -------------------------

  ==> Iterations <==

                           Total Energy        Delta E     RMS |[F,P]|

   @DF-RHF iter SAD:  -498.86563663028755   -4.98866e+02   0.00000e+00 
   @DF-RHF iter   1:  -499.08452362195931   -2.18887e-01   8.60149e-04 DIIS
   @DF-RHF iter   2:  -499.38722470945390   -3.02701e-01   3.72043e-04 DIIS
   @DF-RHF iter   3:  -499.44274732164945   -5.55226e-02   7.58412e-05 DIIS
   @DF-RHF iter   4:  -499.44630614354850   -3.55882e-03   2.03588e-05 DIIS
   @DF-RHF iter   5:  -499.44650246956820   -1.96326e-04   6.76032e-06 DIIS
   @DF-RHF iter   6:  -499.44652377112527   -2.13016e-05   2.07161e-06 DIIS
   @DF-RHF iter   7:  -499.44652623184493   -2.46072e-06   6.49240e-07 DIIS
   @DF-RHF iter   8:  -499.44652657588722   -3.44042e-07   2.66270e-07 DIIS
   @DF-RHF iter   9:  -499.44652666746447   -9.15772e-08   1.22244e-07 DIIS
   @DF-RHF iter  10:  -499.44652669858243   -3.11180e-08   5.38389e-08 DIIS
   @DF-RHF iter  11:  -499.44652670603557   -7.45314e-09   1.68350e-08 DIIS
   @DF-RHF iter  12:  -499.44652670653494   -4.99369e-10   8.61765e-09 DIIS
   @DF-RHF iter  13:  -499.44652670661236   -7.74207e-11   2.20335e-09 DIIS
   @DF-RHF iter  14:  -499.44652670661668   -4.32010e-12   9.51281e-10 DIIS
   @DF-RHF iter  15:  -499.44652670662060   -3.92220e-12   3.67947e-10 DIIS
   @DF-RHF iter  16:  -499.44652670661924    1.36424e-12   1.37195e-10 DIIS
   @DF-RHF iter  17:  -499.44652670662026   -1.02318e-12   7.54974e-11 DIIS
  Energy and wave function converged.


  ==> Post-Iterations <==

    Orbital Energies [Eh]
    ---------------------

    Doubly Occupied:                                                      

       1A    -11.245926     2A    -11.242909     3A    -11.241635  
       4A    -11.241449     5A    -11.237601     6A    -11.235654  
       7A    -11.235500     8A    -11.235495     9A    -11.234351  
      10A    -11.234171    11A    -11.232327    12A    -11.232229  
      13A    -11.225690    14A     -1.167166    15A     -1.138992  
      16A     -1.064250    17A     -1.016158    18A     -1.008299  
      19A     -1.003116    20A     -0.929542    21A     -0.839886  
      22A     -0.835193    23A     -0.809798    24A     -0.780397  
      25A     -0.711473    26A     -0.672572    27A     -0.645524  
      28A     -0.641995    29A     -0.612749    30A     -0.611689  
      31A     -0.586622    32A     -0.579221    33A     -0.577079  
      34A     -0.574013    35A     -0.541375    36A     -0.518474  
      37A     -0.507006    38A     -0.494378    39A     -0.482896  
      40A     -0.480670    41A     -0.476972    42A     -0.357699  
      43A     -0.337365    44A     -0.335471    45A     -0.295531  

    Virtual:                                                              

      46A      0.028661    47A      0.029650    48A      0.032193  
      49A      0.039015    50A      0.039291    51A      0.043426  
      52A      0.050495    53A      0.053211    54A      0.058491  
      55A      0.060099    56A      0.064667    57A      0.075509  
      58A      0.086493    59A      0.088600    60A      0.093598  
      61A      0.099976    62A      0.104781    63A      0.105830  
      64A      0.107489    65A      0.112837    66A      0.113911  
      67A      0.114067    68A      0.114719    69A      0.123845  
      70A      0.125542    71A      0.127746    72A      0.128856  
      73A      0.131078    74A      0.135326    75A      0.141132  
      76A      0.141929    77A      0.143204    78A      0.146052  
      79A      0.150548    80A      0.151259    81A      0.151832  
      82A      0.154515    83A      0.156859    84A      0.159633  
      85A      0.165390    86A      0.173247    87A      0.174038  
      88A      0.177541    89A      0.182065    90A      0.188016  
      91A      0.192660    92A      0.200135    93A      0.202479  
      94A      0.210632    95A      0.211871    96A      0.213163  
      97A      0.226684    98A      0.231953    99A      0.237024  
     100A      0.241959   101A      0.249069   102A      0.251184  
     103A      0.253710   104A      0.256781   105A      0.259680  
     106A      0.262831   107A      0.264061   108A      0.269472  
     109A      0.274359   110A      0.274605   111A      0.277388  
     112A      0.281100   113A      0.290251   114A      0.295334  
     115A      0.299265   116A      0.303498   117A      0.305224  
     118A      0.306799   119A      0.309321   120A      0.314804  
     121A      0.316197   122A      0.323636   123A      0.326922  
     124A      0.328239   125A      0.331944   126A      0.335023  
     127A      0.338693   128A      0.341357   129A      0.347079  
     130A      0.347532   131A      0.352153   132A      0.356833  
     133A      0.361450   134A      0.366247   135A      0.373119  
     136A      0.375401   137A      0.378646   138A      0.379406  
     139A      0.388641   140A      0.392465   141A      0.397445  
     142A      0.402691   143A      0.408905   144A      0.416717  
     145A      0.418118   146A      0.420075   147A      0.422006  
     148A      0.426880   149A      0.431213   150A      0.434274  
     151A      0.438582   152A      0.444606   153A      0.447208  
     154A      0.448755   155A      0.453220   156A      0.455837  
     157A      0.458122   158A      0.459183   159A      0.468289  
     160A      0.473533   161A      0.475217   162A      0.481101  
     163A      0.483952   164A      0.486535   165A      0.487881  
     166A      0.489881   167A      0.493211   168A      0.493337  
     169A      0.499022   170A      0.503833   171A      0.505937  
     172A      0.506601   173A      0.508549   174A      0.511810  
     175A      0.514850   176A      0.520538   177A      0.520986  
     178A      0.521758   179A      0.525945   180A      0.527480  
     181A      0.530380   182A      0.532565   183A      0.536081  
     184A      0.536982   185A      0.540481   186A      0.542877  
     187A      0.545658   188A      0.550320   189A      0.555278  
     190A      0.556072   191A      0.558995   192A      0.561378  
     193A      0.563514   194A      0.572132   195A      0.578184  
     196A      0.585722   197A      0.591900   198A      0.596529  
     199A      0.601517   200A      0.602701   201A      0.606469  
     202A      0.609257   203A      0.618137   204A      0.621024  
     205A      0.624777   206A      0.633868   207A      0.640896  
     208A      0.645312   209A      0.652861   210A      0.662048  
     211A      0.668579   212A      0.674850   213A      0.678519  
     214A      0.691946   215A      0.697029   216A      0.703603  
     217A      0.707365   218A      0.708170   219A      0.712538  
     220A      0.718125   221A      0.720160   222A      0.723508  
     223A      0.729136   224A      0.731551   225A      0.734040  
     226A      0.744527   227A      0.752379   228A      0.753155  
     229A      0.760788   230A      0.763956   231A      0.775926  
     232A      0.781338   233A      0.786588   234A      0.789656  
     235A      0.800626   236A      0.809867   237A      0.811109  
     238A      0.817422   239A      0.819969   240A      0.827867  
     241A      0.833810   242A      0.842527   243A      0.848684  
     244A      0.853302   245A      0.854430   246A      0.857964  
     247A      0.866605   248A      0.873195   249A      0.874391  
     250A      0.880243   251A      0.883180   252A      0.883995  
     253A      0.889295   254A      0.893684   255A      0.895438  
     256A      0.898256   257A      0.903167   258A      0.904409  
     259A      0.909433   260A      0.913036   261A      0.917603  
     262A      0.923373   263A      0.928465   264A      0.930880  
     265A      0.934829   266A      0.941958   267A      0.945550  
     268A      0.947647   269A      0.953457   270A      0.955003  
     271A      0.958523   272A      0.962945   273A      0.965296  
     274A      0.977087   275A      0.983295   276A      0.984085  
     277A      0.987794   278A      0.994966   279A      0.998038  
     280A      1.001617   281A      1.003826   282A      1.007398  
     283A      1.011186   284A      1.017839   285A      1.022619  
     286A      1.026547   287A      1.028536   288A      1.033482  
     289A      1.034685   290A      1.041081   291A      1.044001  
     292A      1.051864   293A      1.052675   294A      1.056676  
     295A      1.062609   296A      1.064203   297A      1.067058  
     298A      1.071580   299A      1.077533   300A      1.081710  
     301A      1.085909   302A      1.088587   303A      1.091166  
     304A      1.098807   305A      1.102066   306A      1.105281  
     307A      1.107243   308A      1.114149   309A      1.117307  
     310A      1.124491   311A      1.126964   312A      1.131157  
     313A      1.136207   314A      1.139535   315A      1.147509  
     316A      1.154879   317A      1.156491   318A      1.161849  
     319A      1.168355   320A      1.170813   321A      1.173763  
     322A      1.179147   323A      1.181170   324A      1.185685  
     325A      1.188460   326A      1.191772   327A      1.199601  
     328A      1.200642   329A      1.207196   330A      1.210478  
     331A      1.213298   332A      1.220373   333A      1.222024  
     334A      1.231800   335A      1.234446   336A      1.238180  
     337A      1.245342   338A      1.248860   339A      1.250016  
     340A      1.253394   341A      1.258286   342A      1.264676  
     343A      1.267563   344A      1.272828   345A      1.284371  
     346A      1.289225   347A      1.296193   348A      1.299377  
     349A      1.303017   350A      1.312333   351A      1.317880  
     352A      1.322402   353A      1.332280   354A      1.335675  
     355A      1.341675   356A      1.343590   357A      1.348616  
     358A      1.359716   359A      1.366685   360A      1.377108  
     361A      1.379323   362A      1.386179   363A      1.387958  
     364A      1.394692   365A      1.402917   366A      1.404024  
     367A      1.409321   368A      1.417728   369A      1.420102  
     370A      1.429974   371A      1.439292   372A      1.444310  
     373A      1.451463   374A      1.457674   375A      1.462883  
     376A      1.464951   377A      1.478419   378A      1.484422  
     379A      1.489446   380A      1.492760   381A      1.496365  
     382A      1.508333   383A      1.516849   384A      1.522850  
     385A      1.530933   386A      1.537386   387A      1.544111  
     388A      1.552301   389A      1.555554   390A      1.566742  
     391A      1.573313   392A      1.580919   393A      1.584381  
     394A      1.589845   395A      1.596109   396A      1.599076  
     397A      1.602344   398A      1.625444   399A      1.633620  
     400A      1.636445   401A      1.643731   402A      1.657181  
     403A      1.663360   404A      1.674849   405A      1.679274  
     406A      1.686908   407A      1.696948   408A      1.700938  
     409A      1.706601   410A      1.715802   411A      1.718333  
     412A      1.720167   413A      1.731152   414A      1.734724  
     415A      1.737946   416A      1.744889   417A      1.752283  
     418A      1.757687   419A      1.762315   420A      1.764351  
     421A      1.780625   422A      1.790293   423A      1.794179  
     424A      1.798183   425A      1.805045   426A      1.810375  
     427A      1.823034   428A      1.839544   429A      1.841837  
     430A      1.847305   431A      1.853673   432A      1.856780  
     433A      1.859418   434A      1.865331   435A      1.872637  
     436A      1.883049   437A      1.890803   438A      1.898555  
     439A      1.909349   440A      1.912186   441A      1.916452  
     442A      1.921755   443A      1.929105   444A      1.933772  
     445A      1.943102   446A      1.951230   447A      1.953560  
     448A      1.959054   449A      1.977104   450A      1.979273  
     451A      1.983893   452A      1.989387   453A      1.996177  
     454A      2.004510   455A      2.012998   456A      2.020306  
     457A      2.027421   458A      2.036415   459A      2.038066  
     460A      2.043087   461A      2.043610   462A      2.054765  
     463A      2.060652   464A      2.065952   465A      2.073643  
     466A      2.080730   467A      2.089750   468A      2.096211  
     469A      2.100656   470A      2.102599   471A      2.109668  
     472A      2.121833   473A      2.126162   474A      2.138302  
     475A      2.140629   476A      2.148690   477A      2.159462  
     478A      2.160978   479A      2.169154   480A      2.173451  
     481A      2.185189   482A      2.188240   483A      2.193629  
     484A      2.197949   485A      2.206559   486A      2.214964  
     487A      2.227173   488A      2.235578   489A      2.246570  
     490A      2.252891   491A      2.265611   492A      2.274057  
     493A      2.276812   494A      2.278864   495A      2.289832  
     496A      2.301227   497A      2.323189   498A      2.331798  
     499A      2.342953   500A      2.345707   501A      2.359430  
     502A      2.366323   503A      2.375406   504A      2.378332  
     505A      2.382211   506A      2.393137   507A      2.397165  
     508A      2.403151   509A      2.414346   510A      2.418408  
     511A      2.423764   512A      2.427553   513A      2.431554  
     514A      2.437274   515A      2.447781   516A      2.468788  
     517A      2.477780   518A      2.485508   519A      2.498627  
     520A      2.532561   521A      2.544881   522A      2.561116  
     523A      2.568836   524A      2.579441   525A      2.591851  
     526A      2.605932   527A      2.611955   528A      2.629921  
     529A      2.633782   530A      2.643690   531A      2.650188  
     532A      2.669403   533A      2.702640   534A      2.703215  
     535A      2.732890   536A      2.747550   537A      2.781120  
     538A      2.791347   539A      2.797429   540A      2.826106  
     541A      2.831249   542A      2.834445   543A      2.847129  
     544A      2.864189   545A      2.872879   546A      2.890374  
     547A      2.911742   548A      2.949940   549A      2.991512  
     550A      3.008539   551A      3.042419   552A      3.070950  
     553A      3.087767   554A      3.178812   555A      3.188644  
     556A      3.197314   557A      3.201862   558A      3.213089  
     559A      3.223856   560A      3.225678   561A      3.245932  
     562A      3.259302   563A      3.277318   564A      3.284331  
     565A      3.294439   566A      3.303609   567A      3.328352  
     568A      3.345479   569A      3.351627   570A      3.359519  
     571A      3.370196   572A      3.379646   573A      3.383223  
     574A      3.387887   575A      3.394170   576A      3.399081  
     577A      3.424153   578A      3.436314   579A      3.448762  
     580A      3.450504   581A      3.455591   582A      3.463996  
     583A      3.468467   584A      3.476078   585A      3.491217  
     586A      3.499549   587A      3.502569   588A      3.516791  
     589A      3.530917   590A      3.533909   591A      3.539719  
     592A      3.547877   593A      3.552827   594A      3.558195  
     595A      3.563628   596A      3.571306   597A      3.575823  
     598A      3.579495   599A      3.584382   600A      3.593217  
     601A      3.602269   602A      3.604716   603A      3.612468  
     604A      3.614060   605A      3.636990   606A      3.644587  
     607A      3.646460   608A      3.652817   609A      3.663496  
     610A      3.677036   611A      3.683058   612A      3.691442  
     613A      3.699564   614A      3.700494   615A      3.705409  
     616A      3.725546   617A      3.740318   618A      3.746848  
     619A      3.750341   620A      3.755636   621A      3.761776  
     622A      3.774530   623A      3.778225   624A      3.795230  
     625A      3.804954   626A      3.809491   627A      3.819456  
     628A      3.827956   629A      3.834226   630A      3.845048  
     631A      3.851476   632A      3.857598   633A      3.860676  
     634A      3.869953   635A      3.878827   636A      3.883154  
     637A      3.884673   638A      3.887641   639A      3.908568  
     640A      3.911929   641A      3.934761   642A      3.940868  
     643A      3.943640   644A      3.948291   645A      3.950470  
     646A      3.957157   647A      3.964902   648A      3.973693  
     649A      3.977111   650A      3.988922   651A      3.995815  
     652A      4.000872   653A      4.008438   654A      4.015274  
     655A      4.017485   656A      4.026113   657A      4.031676  
     658A      4.042920   659A      4.047838   660A      4.050175  
     661A      4.055657   662A      4.066094   663A      4.074399  
     664A      4.082476   665A      4.088392   666A      4.090284  
     667A      4.100116   668A      4.120837   669A      4.127898  
     670A      4.133192   671A      4.138944   672A      4.143654  
     673A      4.160064   674A      4.173882   675A      4.181921  
     676A      4.187979   677A      4.198959   678A      4.204431  
     679A      4.214982   680A      4.219641   681A      4.226766  
     682A      4.235864   683A      4.244750   684A      4.250717  
     685A      4.260010   686A      4.278189   687A      4.281591  
     688A      4.286084   689A      4.290352   690A      4.298414  
     691A      4.303265   692A      4.318152   693A      4.320092  
     694A      4.338185   695A      4.347921   696A      4.350479  
     697A      4.361572   698A      4.375427   699A      4.386156  
     700A      4.391627   701A      4.405369   702A      4.407524  
     703A      4.413313   704A      4.420028   705A      4.424623  
     706A      4.440937   707A      4.445971   708A      4.447997  
     709A      4.460648   710A      4.468804   711A      4.482164  
     712A      4.485029   713A      4.485658   714A      4.493290  
     715A      4.496444   716A      4.502877   717A      4.507856  
     718A      4.512303   719A      4.521604   720A      4.527795  
     721A      4.535378   722A      4.540198   723A      4.547881  
     724A      4.568651   725A      4.580551   726A      4.614390  
     727A      4.618835   728A      4.628289   729A      4.640548  
     730A      4.653086   731A      4.676930   732A      4.694276  
     733A      4.700752   734A      4.705119   735A      4.714870  
     736A      4.726332   737A      4.730877   738A      4.748545  
     739A      4.751821   740A      4.763709   741A      4.772148  
     742A      4.774715   743A      4.781670   744A      4.803463  
     745A      4.812403   746A      4.817940   747A      4.827411  
     748A      4.847298   749A      4.864375   750A      4.882285  
     751A      4.902223   752A      4.907771   753A      4.914759  
     754A      4.932417   755A      4.942562   756A      4.951077  
     757A      4.957169   758A      4.975969   759A      4.994328  
     760A      5.005056   761A      5.016400   762A      5.023273  
     763A      5.034854   764A      5.041972   765A      5.050279  
     766A      5.064957   767A      5.072846   768A      5.076689  
     769A      5.090454   770A      5.102165   771A      5.109351  
     772A      5.119955   773A      5.131562   774A      5.148037  
     775A      5.148850   776A      5.154500   777A      5.164148  
     778A      5.167723   779A      5.173673   780A      5.188849  
     781A      5.197677   782A      5.201482   783A      5.214665  
     784A      5.218703   785A      5.226780   786A      5.248556  
     787A      5.266693   788A      5.274433   789A      5.283163  
     790A      5.294712   791A      5.302617   792A      5.311644  
     793A      5.333468   794A      5.342353   795A      5.357133  
     796A      5.374609   797A      5.388046   798A      5.408130  
     799A      5.422056   800A      5.432419   801A      5.434536  
     802A      5.445152   803A      5.449113   804A      5.466178  
     805A      5.479472   806A      5.496754   807A      5.527964  
     808A      5.534530   809A      5.538010   810A      5.548797  
     811A      5.562235   812A      5.636908   813A      5.649046  
     814A      5.654469   815A      5.681599   816A      5.710407  
     817A      5.746250   818A      5.762560   819A      5.787142  
     820A      5.797137   821A      5.813846   822A      5.824714  
     823A      5.838360   824A      5.847178   825A      5.860225  
     826A      5.909531   827A      5.993496   828A      6.029203  
     829A      6.060512   830A      6.096562   831A      6.114763  
     832A      6.172249   833A      6.195870   834A      6.201289  
     835A      6.210500   836A      6.219226   837A      6.267392  
     838A      6.284879   839A      6.314850   840A      6.356877  
     841A      6.373247   842A      6.422248   843A      6.434952  
     844A      6.482588   845A      6.518752   846A      6.547806  
     847A      6.560034   848A      6.595364   849A      6.608877  
     850A      6.618578   851A      6.778707   852A      6.788864  
     853A      6.851099   854A      6.896215   855A      6.931399  
     856A      6.956651   857A      7.001220   858A      7.059858  
     859A      7.155059   860A      7.261013   861A      7.330523  
     862A     16.031741   863A     16.175235   864A     16.392980  
     865A     16.647159   866A     18.215360   867A     18.886312  
     868A     19.039135   869A     19.151172   870A     19.964515  
     871A     20.002048   872A     20.308189   873A     20.404675  
     874A     21.834552  

    Final Occupation by Irrep:
              A 
    DOCC [    45 ]

  @DF-RHF Final Energy:  -499.44652670662026

   => Energetics <=

    Nuclear Repulsion Energy =            686.5076727298805963
    One-Electron Energy =               -2036.4913747793741550
    Two-Electron Energy =                 850.5371753428732973
    Total Energy =                       -499.4465267066202614

Computation Completed

*** tstop() called on c459-032.stampede2.tacc.utexas.edu at Sat Mar  6 03:22:53 2021
Module time:
	user time   =    1298.21 seconds =      21.64 minutes
	system time =      66.29 seconds =       1.10 minutes
	total time  =         66 seconds =       1.10 minutes
Total time:
	user time   =    1298.21 seconds =      21.64 minutes
	system time =      66.29 seconds =       1.10 minutes
	total time  =         66 seconds =       1.10 minutes
   => Loading Basis Set <=

    Name: (AUG-CC-PVTZ AUX)
    Role: RIFIT
    Keyword: DF_BASIS_MP2
    atoms 1-13  entry C          line   148 file /home1/07844/xy3866/miniconda3/envs/p4env/share/psi4/basis/aug-cc-pvtz-ri.gbs 
    atoms 14-25 entry H          line    30 file /home1/07844/xy3866/miniconda3/envs/p4env/share/psi4/basis/aug-cc-pvtz-ri.gbs 


*** tstart() called on c459-032.stampede2.tacc.utexas.edu
*** at Sat Mar  6 03:22:54 2021


  //>>>>>>>>>>>>>>>>>>>>>>>>>>>>>>>>>>>//
  //               DFMP2               //
  //<<<<<<<<<<<<<<<<<<<<<<<<<<<<<<<<<<<//

	 --------------------------------------------------------
	                          DF-MP2                         
	      2nd-Order Density-Fitted Moller-Plesset Theory     
	              RMP2 Wavefunction,  32 Threads             
	                                                         
	        Rob Parrish, Justin Turney, Andy Simmonett,      
	           Ed Hohenstein, and C. David Sherrill          
	 --------------------------------------------------------

   => Auxiliary Basis Set <=

  Basis Set: (AUG-CC-PVTZ AUX)
    Blend: AUG-CC-PVTZ-RI
    Number of shells: 532
    Number of basis functions: 1930
    Number of Cartesian functions: 2428
    Spherical Harmonics?: true
    Max angular momentum: 4

	 --------------------------------------------------------
	                 NBF =   874, NAUX =  1930
	 --------------------------------------------------------
	   CLASS    FOCC     OCC    AOCC    AVIR     VIR    FVIR
	   PAIRS       0      45      45     829     829       0
	 --------------------------------------------------------

  DFHelper Memory: AOs need 9.875 GiB; user supplied 22.352 GiB. Using in-core AOs.


         ------------------------------------------------------------
                                     CPHF                           
                                  Rob Parrish                       
         ------------------------------------------------------------

  ==> Geometry <==

    Molecular point group: c1
    Full point group: C1

    Geometry (in Angstrom), charge = 0, multiplicity = 1:

       Center              X                  Y                   Z               Mass       
    ------------   -----------------  -----------------  -----------------  -----------------
         C           -0.305570676223     0.002410106721    -0.001736835014    12.000000000000
         C            1.171448323777     0.001622106721    -0.000264835014    12.000000000000
         C           -3.140003676223     0.007136106721    -0.014059835014    12.000000000000
         C           -1.024781676223    -1.112485893279    -0.459029835014    12.000000000000
         C           -1.024995676223     1.120360106721     0.447645164986    12.000000000000
         C           -2.418787676223    -1.108340893279    -0.459140835014    12.000000000000
         C           -2.418961676223     1.118837106721     0.440651164986    12.000000000000
         C            1.885067323777    -1.119431893279     0.452566164986    12.000000000000
         C            1.888354323777     1.121428106721    -0.450931835014    12.000000000000
         C           -4.646063676223    -0.006366893279     0.019480164986    12.000000000000
         C            3.280083323777    -1.121291893279     0.451937164986    12.000000000000
         C            3.283384323777     1.120837106721    -0.445979835014    12.000000000000
         C            4.025547123777    -0.024085093279     0.014007564986    12.000000000000
         H           -0.485232676223    -1.976576893279    -0.842233835014     1.007825032230
         H           -0.485745676223     1.985612106721     0.828666164986     1.007825032230
         H           -2.956572676223    -1.980001893279    -0.829898835014     1.007825032230
         H           -2.956961676223     1.996146106721     0.797564164986     1.007825032230
         H            1.339419323777    -1.981970893279     0.829981164986     1.007825032230
         H            1.345442323777     1.984800106721    -0.830335835014     1.007825032230
         H           -5.051874676223     1.000506106721    -0.114411835014     1.007825032230
         H           -5.051396676223    -0.643858893279    -0.771533835014     1.007825032230
         H           -5.017322676223    -0.388999893279     0.976682164986     1.007825032230
         H            3.819080323777    -1.994613893279     0.812326164986     1.007825032230
         H            3.824992323777     1.993203106721    -0.804762835014     1.007825032230
         H            5.071216323777    -0.001724893279     0.005782164986     1.007825032230

  Nuclear repulsion =  686.507672729880596
  Reference energy  = -499.446526706620261

  ==> Basis Set <==

  Basis Set: AUG-CC-PVTZ
    Blend: AUG-CC-PVTZ
    Number of shells: 290
    Number of basis functions: 874
    Number of Cartesian functions: 1015
    Spherical Harmonics?: true
    Max angular momentum: 3

  ==> CGRSolver (by Rob Parrish) <==

   Number of roots    =         1
   Preconditioning    =    JACOBI
   Convergence cutoff =     1E-06
   Maximum iterations =       100

  ==> CPHFRHamiltonian (by Rob Parrish) <== 

  ==> MemDFJK: Density-Fitted J/K Matrices <==

    J tasked:                   Yes
    K tasked:                   Yes
    wK tasked:                   No
    OpenMP threads:              32
    Memory [MiB]:             22888
    Algorithm:                 Core
    Schwarz Cutoff:           1E-12
    Mask sparsity (%):      12.2200
    Fitting Condition:        1E-10

   => Auxiliary Basis Set <=

  Basis Set: (AUG-CC-PVTZ AUX)
    Blend: AUG-CC-PVTZ-JKFIT
    Number of shells: 558
    Number of basis functions: 1904
    Number of Cartesian functions: 2363
    Spherical Harmonics?: true
    Max angular momentum: 4

  ==> CPHF Iterations <==

  => Iterations <=

             Iter  Converged  Remaining    Residual
  CGR           1          0          1   7.174E-02
  CGR           2          0          1   1.483E-02
  CGR           3          0          1   7.395E-03
  CGR           4          0          1   4.944E-03
  CGR           5          0          1   2.048E-03
  CGR           6          0          1   7.546E-04
  CGR           7          0          1   2.482E-04
  CGR           8          0          1   8.411E-05
  CGR           9          0          1   3.580E-05
  CGR          10          0          1   1.616E-05
  CGR          11          0          1   7.354E-06
  CGR          12          0          1   1.741E-06
  CGR          13          1          0   6.355E-07

    CGRSolver converged.

	-----------------------------------------------------------
	 ==================> DF-MP2 Energies <==================== 
	-----------------------------------------------------------
	 Reference Energy          =    -499.4465267066202614 [Eh]
	 Singles Energy            =      -0.0000000000000000 [Eh]
	 Same-Spin Energy          =      -0.5653506100557948 [Eh]
	 Opposite-Spin Energy      =      -1.7799436924755820 [Eh]
	 Correlation Energy        =      -2.3452943025313768 [Eh]
	 Total Energy              =    -501.7918210091516471 [Eh]
	-----------------------------------------------------------
	 ================> DF-SCS-MP2 Energies <================== 
	-----------------------------------------------------------
	 SCS Same-Spin Scale       =       0.3333333333333333 [-]
	 SCS Opposite-Spin Scale   =       1.2000000000000000 [-]
	 SCS Same-Spin Energy      =      -0.1884502033519316 [Eh]
	 SCS Opposite-Spin Energy  =      -2.1359324309706982 [Eh]
	 SCS Correlation Energy    =      -2.3243826343226299 [Eh]
	 SCS Total Energy          =    -501.7709093409428647 [Eh]
	-----------------------------------------------------------



Properties will be evaluated at  -0.000000,   0.000000,   0.000000 [a0]

Properties computed using the MP2 density matrix

  Nuclear Dipole Moment: [e a0]
     X:    -6.1919      Y:    -0.0070      Z:     0.0542

  Electronic Dipole Moment: [e a0]
     X:     5.9986      Y:     0.0034      Z:    -0.0404

  Dipole Moment: [e a0]
     X:    -0.1933      Y:    -0.0036      Z:     0.0138     Total:     0.1938

  Dipole Moment: [D]
     X:    -0.4914      Y:    -0.0091      Z:     0.0350     Total:     0.4927


*** tstop() called on c459-032.stampede2.tacc.utexas.edu at Sat Mar  6 03:29:54 2021
Module time:
	user time   =    4416.29 seconds =      73.60 minutes
	system time =      90.73 seconds =       1.51 minutes
	total time  =        420 seconds =       7.00 minutes
Total time:
	user time   =    5715.74 seconds =      95.26 minutes
	system time =     157.04 seconds =       2.62 minutes
	total time  =        487 seconds =       8.12 minutes

    Psi4 stopped on: Saturday, 06 March 2021 03:29AM
    Psi4 wall time for execution: 0:08:09.12

*** Psi4 exiting successfully. Buy a developer a beer!
