
    -----------------------------------------------------------------------
          Psi4: An Open-Source Ab Initio Electronic Structure Package
                               Psi4 1.4a3.dev225 

                         Git: Rev {master} 7105e37 


    D. G. A. Smith, L. A. Burns, A. C. Simmonett, R. M. Parrish,
    M. C. Schieber, R. Galvelis, P. Kraus, H. Kruse, R. Di Remigio,
    A. Alenaizan, A. M. James, S. Lehtola, J. P. Misiewicz, M. Scheurer,
    R. A. Shaw, J. B. Schriber, Y. Xie, Z. L. Glick, D. A. Sirianni,
    J. S. O'Brien, J. M. Waldrop, A. Kumar, E. G. Hohenstein,
    B. P. Pritchard, B. R. Brooks, H. F. Schaefer III, A. Yu. Sokolov,
    K. Patkowski, A. E. DePrince III, U. Bozkaya, R. A. King,
    F. A. Evangelista, J. M. Turney, T. D. Crawford, C. D. Sherrill,
    J. Chem. Phys. 152(18) 184108 (2020). https://doi.org/10.1063/5.0006002

                            Additional Code Authors
    E. T. Seidl, C. L. Janssen, E. F. Valeev, M. L. Leininger,
    J. F. Gonthier, R. M. Richard, H. R. McAlexander, M. Saitow, X. Wang,
    P. Verma, and M. H. Lechner

             Previous Authors, Complete List of Code Contributors,
                       and Citations for Specific Modules
    https://github.com/psi4/psi4/blob/master/codemeta.json
    https://github.com/psi4/psi4/graphs/contributors
    http://psicode.org/psi4manual/master/introduction.html#citing-psifour

    -----------------------------------------------------------------------


    Psi4 started on: Saturday, 06 March 2021 10:28AM

    Process ID: 157860
    Host:       c459-032.stampede2.tacc.utexas.edu
    PSIDATADIR: /home1/07844/xy3866/miniconda3/envs/p4env/share/psi4
    Memory:     500.0 MiB
    Threads:    32
    
  ==> Input File <==

--------------------------------------------------------------------------
#psi4
#
memory 32 gb

molecule  {
0 1
  C       -0.2663850     0.0008990    -0.0013960
  C        1.2106340     0.0001110     0.0000760
  C       -3.1008180     0.0056250    -0.0137190
  C       -0.9855960    -1.1139970    -0.4586890
  C       -0.9858100     1.1188490     0.4479860
  C       -2.3796020    -1.1098520    -0.4588000
  C       -2.3797760     1.1173260     0.4409920
  C        1.9242530    -1.1209430     0.4529070
  C        1.9275400     1.1199170    -0.4505910
  C       -4.6068780    -0.0078780     0.0198210
  C        3.3192690    -1.1228030     0.4522780
  C        3.3225700     1.1193260    -0.4456390
  C        4.0230520    -0.0023100     0.0044540
  H       -0.3469015    -2.1368701    -0.9123091
  H       -0.4465600     1.9841010     0.8290070
  H       -2.9173870    -1.9815130    -0.8295580
  H       -2.9177760     1.9946350     0.7979050
  H        1.3786050    -1.9834820     0.8303220
  H        1.3846280     1.9832890    -0.8299950
  H       -5.0126890     0.9989950    -0.1140710
  H       -5.0122110    -0.6453700    -0.7711930
  H       -4.9781370    -0.3905110     0.9770230
  H        3.8582660    -1.9961250     0.8126670
  H        3.8641780     1.9916920    -0.8044220
  H        5.1104020    -0.0032360     0.0061230
units angstrom
no_reorient  #important for SAPT in psi4, default
symmetry c1  #important for SAPT in psi4, default
}

set PROPERTIES_ORIGIN ["COM"]
properties('MP2/aug-cc-pvtz', properties = ['dipole'])
--------------------------------------------------------------------------

  Memory set to  29.802 GiB by Python driver.
    SCF Algorithm Type (re)set to DF.

*** tstart() called on c459-032.stampede2.tacc.utexas.edu
*** at Sat Mar  6 10:28:40 2021

   => Loading Basis Set <=

    Name: AUG-CC-PVTZ
    Role: ORBITAL
    Keyword: BASIS
    atoms 1-13  entry C          line   239 file /home1/07844/xy3866/miniconda3/envs/p4env/share/psi4/basis/aug-cc-pvtz.gbs 
    atoms 14-25 entry H          line    40 file /home1/07844/xy3866/miniconda3/envs/p4env/share/psi4/basis/aug-cc-pvtz.gbs 


         ---------------------------------------------------------
                                   SCF
               by Justin Turney, Rob Parrish, Andy Simmonett
                          and Daniel G. A. Smith
                              RHF Reference
                       32 Threads,  30517 MiB Core
         ---------------------------------------------------------

  ==> Geometry <==

    Molecular point group: c1
    Full point group: C1

    Geometry (in Angstrom), charge = 0, multiplicity = 1:

       Center              X                  Y                   Z               Mass       
    ------------   -----------------  -----------------  -----------------  -----------------
         C           -0.303189576836     0.001699731004    -0.000608299667    12.000000000000
         C            1.173829423164     0.000911731004     0.000863700333    12.000000000000
         C           -3.137622576836     0.006425731004    -0.012931299667    12.000000000000
         C           -1.022400576836    -1.113196268996    -0.457901299667    12.000000000000
         C           -1.022614576836     1.119649731004     0.448773700333    12.000000000000
         C           -2.416406576836    -1.109051268996    -0.458012299667    12.000000000000
         C           -2.416580576836     1.118126731004     0.441779700333    12.000000000000
         C            1.887448423164    -1.120142268996     0.453694700333    12.000000000000
         C            1.890735423164     1.120717731004    -0.449803299667    12.000000000000
         C           -4.643682576836    -0.007077268996     0.020608700333    12.000000000000
         C            3.282464423164    -1.122002268996     0.453065700333    12.000000000000
         C            3.285765423164     1.120126731004    -0.444851299667    12.000000000000
         C            3.986247423164    -0.001509268996     0.005241700333    12.000000000000
         H           -0.383706076836    -2.136069368996    -0.911521399667     1.007825032230
         H           -0.483364576836     1.984901731004     0.829794700333     1.007825032230
         H           -2.954191576836    -1.980712268996    -0.828770299667     1.007825032230
         H           -2.954580576836     1.995435731004     0.798692700333     1.007825032230
         H            1.341800423164    -1.982681268996     0.831109700333     1.007825032230
         H            1.347823423164     1.984089731004    -0.829207299667     1.007825032230
         H           -5.049493576836     0.999795731004    -0.113283299667     1.007825032230
         H           -5.049015576836    -0.644569268996    -0.770405299667     1.007825032230
         H           -5.014941576836    -0.389710268996     0.977810700333     1.007825032230
         H            3.821461423164    -1.995324268996     0.813454700333     1.007825032230
         H            3.827373423164     1.992492731004    -0.803634299667     1.007825032230
         H            5.073597423164    -0.002435268996     0.006910700333     1.007825032230

  Running in c1 symmetry.

  Rotational constants: A =      0.09329  B =      0.01322  C =      0.01202 [cm^-1]
  Rotational constants: A =   2796.62190  B =    396.24407  C =    360.27271 [MHz]
  Nuclear repulsion =  686.432518895897033

  Charge       = 0
  Multiplicity = 1
  Electrons    = 90
  Nalpha       = 45
  Nbeta        = 45

  ==> Algorithm <==

  SCF Algorithm Type is DF.
  DIIS enabled.
  MOM disabled.
  Fractional occupation disabled.
  Guess Type is SAD.
  Energy threshold   = 1.00e-10
  Density threshold  = 1.00e-10
  Integral threshold = 1.00e-12

  ==> Primary Basis <==

  Basis Set: AUG-CC-PVTZ
    Blend: AUG-CC-PVTZ
    Number of shells: 290
    Number of basis functions: 874
    Number of Cartesian functions: 1015
    Spherical Harmonics?: true
    Max angular momentum: 3

   => Loading Basis Set <=

    Name: (AUG-CC-PVTZ AUX)
    Role: JKFIT
    Keyword: DF_BASIS_SCF
    atoms 1-13  entry C          line   162 file /home1/07844/xy3866/miniconda3/envs/p4env/share/psi4/basis/aug-cc-pvtz-jkfit.gbs 
    atoms 14-25 entry H          line    70 file /home1/07844/xy3866/miniconda3/envs/p4env/share/psi4/basis/aug-cc-pvtz-jkfit.gbs 

  ==> Integral Setup <==

  DFHelper Memory: AOs need 9.233 GiB; user supplied 22.352 GiB. Using in-core AOs.

  ==> MemDFJK: Density-Fitted J/K Matrices <==

    J tasked:                   Yes
    K tasked:                   Yes
    wK tasked:                   No
    OpenMP threads:              32
    Memory [MiB]:             22888
    Algorithm:                 Core
    Schwarz Cutoff:           1E-12
    Mask sparsity (%):      18.1454
    Fitting Condition:        1E-10

   => Auxiliary Basis Set <=

  Basis Set: (AUG-CC-PVTZ AUX)
    Blend: AUG-CC-PVTZ-JKFIT
    Number of shells: 558
    Number of basis functions: 1904
    Number of Cartesian functions: 2363
    Spherical Harmonics?: true
    Max angular momentum: 4

  Minimum eigenvalue in the overlap matrix is 4.5175135568E-07.
  Reciprocal condition number of the overlap matrix is 2.2126489731E-08.
    Using symmetric orthogonalization.

  ==> Pre-Iterations <==

  SCF Guess: Superposition of Atomic Densities via on-the-fly atomic UHF (no occupation information).

   -------------------------
    Irrep   Nso     Nmo    
   -------------------------
     A        874     874 
   -------------------------
    Total     874     874
   -------------------------

  ==> Iterations <==

                           Total Energy        Delta E     RMS |[F,P]|

   @DF-RHF iter SAD:  -498.82920419283926   -4.98829e+02   0.00000e+00 
   @DF-RHF iter   1:  -499.05304049925940   -2.23836e-01   8.73711e-04 DIIS
   @DF-RHF iter   2:  -499.36269122897903   -3.09651e-01   3.89567e-04 DIIS
   @DF-RHF iter   3:  -499.42366092826796   -6.09697e-02   7.67939e-05 DIIS
   @DF-RHF iter   4:  -499.42738099830291   -3.72007e-03   1.93044e-05 DIIS
   @DF-RHF iter   5:  -499.42756916133601   -1.88163e-04   6.14055e-06 DIIS
   @DF-RHF iter   6:  -499.42758847912205   -1.93178e-05   2.06092e-06 DIIS
   @DF-RHF iter   7:  -499.42759142332801   -2.94421e-06   7.76044e-07 DIIS
   @DF-RHF iter   8:  -499.42759210894332   -6.85615e-07   4.01497e-07 DIIS
   @DF-RHF iter   9:  -499.42759238528976   -2.76346e-07   2.03358e-07 DIIS
   @DF-RHF iter  10:  -499.42759247291889   -8.76291e-08   7.95909e-08 DIIS
   @DF-RHF iter  11:  -499.42759248757761   -1.46587e-08   2.51959e-08 DIIS
   @DF-RHF iter  12:  -499.42759248835790   -7.80290e-10   1.22409e-08 DIIS
   @DF-RHF iter  13:  -499.42759248851883   -1.60924e-10   3.74052e-09 DIIS
   @DF-RHF iter  14:  -499.42759248854281   -2.39879e-11   2.04432e-09 DIIS
   @DF-RHF iter  15:  -499.42759248854816   -5.34328e-12   9.79515e-10 DIIS
   @DF-RHF iter  16:  -499.42759248855168   -3.52429e-12   3.40101e-10 DIIS
   @DF-RHF iter  17:  -499.42759248854946    2.21689e-12   1.32438e-10 DIIS
   @DF-RHF iter  18:  -499.42759248854964   -1.70530e-13   4.77861e-11 DIIS
  Energy and wave function converged.


  ==> Post-Iterations <==

    Orbital Energies [Eh]
    ---------------------

    Doubly Occupied:                                                      

       1A    -11.256590     2A    -11.244969     3A    -11.244234  
       4A    -11.243558     5A    -11.237014     6A    -11.236841  
       7A    -11.236544     8A    -11.234387     9A    -11.234377  
      10A    -11.234109    11A    -11.233783    12A    -11.233174  
      13A    -11.226510    14A     -1.168233    15A     -1.141712  
      16A     -1.065644    17A     -1.015539    18A     -1.007488  
      19A     -1.003694    20A     -0.929726    21A     -0.838869  
      22A     -0.831149    23A     -0.808356    24A     -0.776639  
      25A     -0.710578    26A     -0.665199    27A     -0.646975  
      28A     -0.632880    29A     -0.613913    30A     -0.608822  
      31A     -0.585575    32A     -0.577592    33A     -0.572242  
      34A     -0.566706    35A     -0.541525    36A     -0.511721  
      37A     -0.508283    38A     -0.495575    39A     -0.482717  
      40A     -0.481347    41A     -0.470009    42A     -0.359559  
      43A     -0.338367    44A     -0.335933    45A     -0.296876  

    Virtual:                                                              

      46A      0.028654    47A      0.029619    48A      0.032190  
      49A      0.039002    50A      0.039403    51A      0.043411  
      52A      0.050523    53A      0.053202    54A      0.058416  
      55A      0.059843    56A      0.064908    57A      0.075526  
      58A      0.086374    59A      0.090233    60A      0.093616  
      61A      0.099813    62A      0.104985    63A      0.105372  
      64A      0.107378    65A      0.113021    66A      0.113745  
      67A      0.113861    68A      0.114640    69A      0.123759  
      70A      0.125782    71A      0.127723    72A      0.128397  
      73A      0.130538    74A      0.135371    75A      0.140912  
      76A      0.142098    77A      0.143227    78A      0.146080  
      79A      0.150050    80A      0.150471    81A      0.152251  
      82A      0.154015    83A      0.157064    84A      0.158906  
      85A      0.165267    86A      0.174205    87A      0.174448  
      88A      0.178167    89A      0.181759    90A      0.187416  
      91A      0.192382    92A      0.199833    93A      0.204384  
      94A      0.210036    95A      0.212165    96A      0.212704  
      97A      0.227148    98A      0.231568    99A      0.236905  
     100A      0.242226   101A      0.245181   102A      0.250932  
     103A      0.253317   104A      0.256729   105A      0.258403  
     106A      0.263088   107A      0.264886   108A      0.269580  
     109A      0.270431   110A      0.273627   111A      0.277090  
     112A      0.281496   113A      0.290453   114A      0.296823  
     115A      0.298010   116A      0.301233   117A      0.302808  
     118A      0.305751   119A      0.308498   120A      0.311041  
     121A      0.314463   122A      0.323149   123A      0.326642  
     124A      0.327551   125A      0.330772   126A      0.333837  
     127A      0.338281   128A      0.340315   129A      0.344188  
     130A      0.345655   131A      0.352291   132A      0.356325  
     133A      0.361256   134A      0.365531   135A      0.372158  
     136A      0.373380   137A      0.376701   138A      0.377712  
     139A      0.385715   140A      0.391995   141A      0.397579  
     142A      0.401253   143A      0.409200   144A      0.416634  
     145A      0.417511   146A      0.417981   147A      0.422006  
     148A      0.427223   149A      0.430854   150A      0.433969  
     151A      0.436552   152A      0.442996   153A      0.446110  
     154A      0.449104   155A      0.451556   156A      0.455385  
     157A      0.456636   158A      0.458238   159A      0.468316  
     160A      0.472538   161A      0.474891   162A      0.477784  
     163A      0.483385   164A      0.485911   165A      0.487389  
     166A      0.489946   167A      0.492537   168A      0.494089  
     169A      0.497978   170A      0.501881   171A      0.504655  
     172A      0.506753   173A      0.508697   174A      0.511315  
     175A      0.514572   176A      0.515965   177A      0.520706  
     178A      0.520977   179A      0.523787   180A      0.526675  
     181A      0.530492   182A      0.532601   183A      0.535580  
     184A      0.537901   185A      0.541521   186A      0.541973  
     187A      0.544317   188A      0.549658   189A      0.553508  
     190A      0.555197   191A      0.558742   192A      0.560898  
     193A      0.564766   194A      0.575013   195A      0.577000  
     196A      0.586390   197A      0.590128   198A      0.593227  
     199A      0.597723   200A      0.603138   201A      0.605693  
     202A      0.610282   203A      0.616543   204A      0.619817  
     205A      0.623223   206A      0.632651   207A      0.644280  
     208A      0.644851   209A      0.653494   210A      0.667084  
     211A      0.671457   212A      0.675011   213A      0.680008  
     214A      0.697451   215A      0.699914   216A      0.701621  
     217A      0.703257   218A      0.707859   219A      0.712272  
     220A      0.716015   221A      0.720939   222A      0.723678  
     223A      0.725375   224A      0.728785   225A      0.738540  
     226A      0.742755   227A      0.751197   228A      0.754323  
     229A      0.761143   230A      0.764988   231A      0.774955  
     232A      0.779233   233A      0.785767   234A      0.789283  
     235A      0.801235   236A      0.808627   237A      0.813160  
     238A      0.815170   239A      0.821423   240A      0.828112  
     241A      0.832245   242A      0.838976   243A      0.849458  
     244A      0.852073   245A      0.854435   246A      0.856196  
     247A      0.866926   248A      0.870984   249A      0.874832  
     250A      0.876835   251A      0.880777   252A      0.884532  
     253A      0.889702   254A      0.892487   255A      0.894886  
     256A      0.897900   257A      0.902822   258A      0.904033  
     259A      0.908791   260A      0.913097   261A      0.916322  
     262A      0.924235   263A      0.925998   264A      0.929327  
     265A      0.932032   266A      0.938485   267A      0.942921  
     268A      0.945463   269A      0.952008   270A      0.956619  
     271A      0.961973   272A      0.962613   273A      0.966744  
     274A      0.976097   275A      0.979954   276A      0.984911  
     277A      0.987045   278A      0.996301   279A      0.997973  
     280A      0.999559   281A      1.006002   282A      1.009980  
     283A      1.014533   284A      1.015959   285A      1.020826  
     286A      1.026433   287A      1.027709   288A      1.032872  
     289A      1.035272   290A      1.040191   291A      1.044797  
     292A      1.051460   293A      1.054306   294A      1.057339  
     295A      1.061783   296A      1.063981   297A      1.065915  
     298A      1.070669   299A      1.077547   300A      1.082029  
     301A      1.083920   302A      1.086976   303A      1.091237  
     304A      1.095863   305A      1.100275   306A      1.103549  
     307A      1.106740   308A      1.115693   309A      1.120588  
     310A      1.121665   311A      1.127219   312A      1.130004  
     313A      1.135339   314A      1.138039   315A      1.146037  
     316A      1.150738   317A      1.153624   318A      1.160583  
     319A      1.167153   320A      1.171326   321A      1.173457  
     322A      1.174773   323A      1.178933   324A      1.180545  
     325A      1.184354   326A      1.191428   327A      1.199522  
     328A      1.202367   329A      1.205915   330A      1.210034  
     331A      1.212846   332A      1.220624   333A      1.221466  
     334A      1.230620   335A      1.231552   336A      1.241524  
     337A      1.243739   338A      1.246832   339A      1.250555  
     340A      1.255996   341A      1.258872   342A      1.261215  
     343A      1.262719   344A      1.272000   345A      1.285645  
     346A      1.286837   347A      1.294957   348A      1.297720  
     349A      1.299989   350A      1.310196   351A      1.316028  
     352A      1.321159   353A      1.330100   354A      1.336105  
     355A      1.340994   356A      1.341972   357A      1.347778  
     358A      1.360773   359A      1.361989   360A      1.372810  
     361A      1.376028   362A      1.380264   363A      1.388497  
     364A      1.395241   365A      1.401812   366A      1.402835  
     367A      1.408298   368A      1.414078   369A      1.418123  
     370A      1.429080   371A      1.438645   372A      1.441920  
     373A      1.448043   374A      1.456287   375A      1.459003  
     376A      1.463090   377A      1.476255   378A      1.482459  
     379A      1.488013   380A      1.493197   381A      1.496976  
     382A      1.506117   383A      1.515367   384A      1.521383  
     385A      1.528009   386A      1.532529   387A      1.539143  
     388A      1.544077   389A      1.552075   390A      1.563623  
     391A      1.570571   392A      1.579108   393A      1.584033  
     394A      1.587673   395A      1.595175   396A      1.598209  
     397A      1.599936   398A      1.621890   399A      1.630118  
     400A      1.633875   401A      1.642184   402A      1.645979  
     403A      1.659637   404A      1.670374   405A      1.676979  
     406A      1.682148   407A      1.693612   408A      1.699571  
     409A      1.706414   410A      1.710989   411A      1.714574  
     412A      1.720983   413A      1.727576   414A      1.733610  
     415A      1.736616   416A      1.743105   417A      1.751892  
     418A      1.754840   419A      1.762805   420A      1.767867  
     421A      1.773132   422A      1.787820   423A      1.788390  
     424A      1.798235   425A      1.801976   426A      1.808204  
     427A      1.815541   428A      1.824931   429A      1.837711  
     430A      1.839667   431A      1.849944   432A      1.852670  
     433A      1.854875   434A      1.857776   435A      1.863022  
     436A      1.879184   437A      1.882957   438A      1.891591  
     439A      1.896019   440A      1.907786   441A      1.915175  
     442A      1.918774   443A      1.921501   444A      1.930797  
     445A      1.933813   446A      1.947880   447A      1.951259  
     448A      1.954408   449A      1.963435   450A      1.971180  
     451A      1.979574   452A      1.990422   453A      1.993306  
     454A      2.000576   455A      2.005120   456A      2.011385  
     457A      2.019990   458A      2.023092   459A      2.034117  
     460A      2.040507   461A      2.046307   462A      2.048190  
     463A      2.054369   464A      2.056890   465A      2.073328  
     466A      2.078608   467A      2.084731   468A      2.091379  
     469A      2.100158   470A      2.103071   471A      2.110355  
     472A      2.114495   473A      2.125789   474A      2.135237  
     475A      2.138222   476A      2.148223   477A      2.152210  
     478A      2.158356   479A      2.163044   480A      2.172084  
     481A      2.182658   482A      2.186832   483A      2.192406  
     484A      2.203686   485A      2.208340   486A      2.214767  
     487A      2.223293   488A      2.226740   489A      2.243580  
     490A      2.250680   491A      2.262445   492A      2.270280  
     493A      2.272547   494A      2.283073   495A      2.288513  
     496A      2.300228   497A      2.314440   498A      2.329450  
     499A      2.332237   500A      2.337356   501A      2.347794  
     502A      2.358266   503A      2.366630   504A      2.371281  
     505A      2.373642   506A      2.385441   507A      2.394075  
     508A      2.395516   509A      2.412699   510A      2.417390  
     511A      2.418280   512A      2.428620   513A      2.434440  
     514A      2.439835   515A      2.445210   516A      2.467139  
     517A      2.472323   518A      2.480312   519A      2.496660  
     520A      2.530135   521A      2.537692   522A      2.562624  
     523A      2.565037   524A      2.572842   525A      2.586990  
     526A      2.599976   527A      2.606830   528A      2.621405  
     529A      2.635864   530A      2.643865   531A      2.648178  
     532A      2.657918   533A      2.707957   534A      2.720829  
     535A      2.736141   536A      2.749481   537A      2.786575  
     538A      2.794637   539A      2.798253   540A      2.809674  
     541A      2.836477   542A      2.845166   543A      2.848027  
     544A      2.865650   545A      2.882403   546A      2.893516  
     547A      2.908815   548A      2.970014   549A      2.982068  
     550A      3.008549   551A      3.063252   552A      3.073014  
     553A      3.087503   554A      3.164896   555A      3.176805  
     556A      3.196325   557A      3.204212   558A      3.207806  
     559A      3.224673   560A      3.234223   561A      3.240505  
     562A      3.266090   563A      3.278394   564A      3.287903  
     565A      3.295981   566A      3.323028   567A      3.328254  
     568A      3.350294   569A      3.352397   570A      3.354343  
     571A      3.376083   572A      3.379594   573A      3.384401  
     574A      3.393532   575A      3.395461   576A      3.403737  
     577A      3.419072   578A      3.434342   579A      3.442985  
     580A      3.452026   581A      3.458481   582A      3.465694  
     583A      3.468122   584A      3.473117   585A      3.490133  
     586A      3.500005   587A      3.508531   588A      3.522223  
     589A      3.529096   590A      3.534490   591A      3.543086  
     592A      3.548025   593A      3.552053   594A      3.559975  
     595A      3.564335   596A      3.566683   597A      3.571412  
     598A      3.580188   599A      3.586440   600A      3.594349  
     601A      3.600714   602A      3.605497   603A      3.610899  
     604A      3.613545   605A      3.639318   606A      3.641570  
     607A      3.649270   608A      3.651793   609A      3.659872  
     610A      3.668984   611A      3.681623   612A      3.692313  
     613A      3.702417   614A      3.708245   615A      3.716275  
     616A      3.727698   617A      3.745027   618A      3.748495  
     619A      3.756455   620A      3.761670   621A      3.762903  
     622A      3.776799   623A      3.784694   624A      3.788006  
     625A      3.792473   626A      3.804323   627A      3.821224  
     628A      3.825015   629A      3.834064   630A      3.840811  
     631A      3.847705   632A      3.851638   633A      3.862225  
     634A      3.868239   635A      3.873982   636A      3.880898  
     637A      3.885796   638A      3.889953   639A      3.896846  
     640A      3.907720   641A      3.920745   642A      3.931138  
     643A      3.938336   644A      3.946717   645A      3.954134  
     646A      3.956294   647A      3.964727   648A      3.970984  
     649A      3.981543   650A      3.988856   651A      3.990857  
     652A      3.997897   653A      4.004317   654A      4.009424  
     655A      4.013261   656A      4.018898   657A      4.026265  
     658A      4.037736   659A      4.041809   660A      4.050719  
     661A      4.052467   662A      4.058688   663A      4.068884  
     664A      4.076250   665A      4.078475   666A      4.087331  
     667A      4.097962   668A      4.112922   669A      4.129508  
     670A      4.138072   671A      4.142597   672A      4.146597  
     673A      4.161560   674A      4.168849   675A      4.179832  
     676A      4.182264   677A      4.186414   678A      4.204201  
     679A      4.207651   680A      4.218117   681A      4.223548  
     682A      4.233929   683A      4.234278   684A      4.252994  
     685A      4.257360   686A      4.270809   687A      4.272213  
     688A      4.283006   689A      4.288027   690A      4.290893  
     691A      4.300536   692A      4.310666   693A      4.316830  
     694A      4.330367   695A      4.334791   696A      4.346656  
     697A      4.356196   698A      4.363684   699A      4.370524  
     700A      4.379323   701A      4.390718   702A      4.397364  
     703A      4.407773   704A      4.408102   705A      4.424887  
     706A      4.433264   707A      4.437168   708A      4.443178  
     709A      4.449371   710A      4.461137   711A      4.474049  
     712A      4.476958   713A      4.483999   714A      4.486093  
     715A      4.488949   716A      4.496669   717A      4.502161  
     718A      4.514560   719A      4.517865   720A      4.519338  
     721A      4.530955   722A      4.534738   723A      4.551408  
     724A      4.566367   725A      4.577759   726A      4.607401  
     727A      4.616229   728A      4.625989   729A      4.643849  
     730A      4.648273   731A      4.664286   732A      4.671968  
     733A      4.688365   734A      4.698503   735A      4.702179  
     736A      4.724319   737A      4.725315   738A      4.738366  
     739A      4.745085   740A      4.754061   741A      4.764662  
     742A      4.768395   743A      4.773484   744A      4.786637  
     745A      4.803227   746A      4.811525   747A      4.816456  
     748A      4.825890   749A      4.843240   750A      4.865788  
     751A      4.875394   752A      4.890219   753A      4.896814  
     754A      4.904000   755A      4.913611   756A      4.931666  
     757A      4.941635   758A      4.966486   759A      4.968360  
     760A      4.978083   761A      4.988213   762A      4.996983  
     763A      5.000939   764A      5.021854   765A      5.028558  
     766A      5.038485   767A      5.044904   768A      5.060414  
     769A      5.065293   770A      5.082278   771A      5.089192  
     772A      5.094495   773A      5.108569   774A      5.122966  
     775A      5.131480   776A      5.142807   777A      5.151430  
     778A      5.151785   779A      5.160537   780A      5.176685  
     781A      5.184544   782A      5.191282   783A      5.195628  
     784A      5.207399   785A      5.210619   786A      5.224804  
     787A      5.239144   788A      5.244526   789A      5.263825  
     790A      5.268044   791A      5.296640   792A      5.304021  
     793A      5.323620   794A      5.330607   795A      5.342336  
     796A      5.349475   797A      5.353389   798A      5.364796  
     799A      5.377451   800A      5.403619   801A      5.411729  
     802A      5.431004   803A      5.436092   804A      5.443332  
     805A      5.456231   806A      5.464044   807A      5.486558  
     808A      5.521790   809A      5.527751   810A      5.536082  
     811A      5.536714   812A      5.583608   813A      5.619891  
     814A      5.628014   815A      5.645003   816A      5.679827  
     817A      5.688280   818A      5.742390   819A      5.758989  
     820A      5.783265   821A      5.798688   822A      5.804477  
     823A      5.815628   824A      5.830880   825A      5.846836  
     826A      5.886165   827A      5.936267   828A      5.999313  
     829A      6.028066   830A      6.038644   831A      6.091827  
     832A      6.180475   833A      6.187167   834A      6.192496  
     835A      6.213345   836A      6.215907   837A      6.253862  
     838A      6.268407   839A      6.317040   840A      6.346442  
     841A      6.366975   842A      6.380891   843A      6.407501  
     844A      6.422207   845A      6.463752   846A      6.522611  
     847A      6.553944   848A      6.602212   849A      6.620090  
     850A      6.621586   851A      6.777436   852A      6.787997  
     853A      6.825220   854A      6.849904   855A      6.901222  
     856A      6.927533   857A      7.022943   858A      7.030126  
     859A      7.168144   860A      7.225406   861A      7.338563  
     862A     15.888655   863A     16.165661   864A     16.233277  
     865A     16.702084   866A     18.216738   867A     18.709578  
     868A     19.015238   869A     19.075063   870A     19.955404  
     871A     20.029805   872A     20.188713   873A     20.272536  
     874A     21.864238  

    Final Occupation by Irrep:
              A 
    DOCC [    45 ]

  @DF-RHF Final Energy:  -499.42759248854964

   => Energetics <=

    Nuclear Repulsion Energy =            686.4325188958970330
    One-Electron Energy =               -2036.3491569029972652
    Two-Electron Energy =                 850.4890455185504834
    Total Energy =                       -499.4275924885496352

Computation Completed

*** tstop() called on c459-032.stampede2.tacc.utexas.edu at Sat Mar  6 10:29:49 2021
Module time:
	user time   =    1379.25 seconds =      22.99 minutes
	system time =      67.27 seconds =       1.12 minutes
	total time  =         69 seconds =       1.15 minutes
Total time:
	user time   =    1379.25 seconds =      22.99 minutes
	system time =      67.27 seconds =       1.12 minutes
	total time  =         69 seconds =       1.15 minutes
   => Loading Basis Set <=

    Name: (AUG-CC-PVTZ AUX)
    Role: RIFIT
    Keyword: DF_BASIS_MP2
    atoms 1-13  entry C          line   148 file /home1/07844/xy3866/miniconda3/envs/p4env/share/psi4/basis/aug-cc-pvtz-ri.gbs 
    atoms 14-25 entry H          line    30 file /home1/07844/xy3866/miniconda3/envs/p4env/share/psi4/basis/aug-cc-pvtz-ri.gbs 


*** tstart() called on c459-032.stampede2.tacc.utexas.edu
*** at Sat Mar  6 10:29:51 2021


  //>>>>>>>>>>>>>>>>>>>>>>>>>>>>>>>>>>>//
  //               DFMP2               //
  //<<<<<<<<<<<<<<<<<<<<<<<<<<<<<<<<<<<//

	 --------------------------------------------------------
	                          DF-MP2                         
	      2nd-Order Density-Fitted Moller-Plesset Theory     
	              RMP2 Wavefunction,  32 Threads             
	                                                         
	        Rob Parrish, Justin Turney, Andy Simmonett,      
	           Ed Hohenstein, and C. David Sherrill          
	 --------------------------------------------------------

   => Auxiliary Basis Set <=

  Basis Set: (AUG-CC-PVTZ AUX)
    Blend: AUG-CC-PVTZ-RI
    Number of shells: 532
    Number of basis functions: 1930
    Number of Cartesian functions: 2428
    Spherical Harmonics?: true
    Max angular momentum: 4

	 --------------------------------------------------------
	                 NBF =   874, NAUX =  1930
	 --------------------------------------------------------
	   CLASS    FOCC     OCC    AOCC    AVIR     VIR    FVIR
	   PAIRS       0      45      45     829     829       0
	 --------------------------------------------------------

  DFHelper Memory: AOs need 9.874 GiB; user supplied 22.352 GiB. Using in-core AOs.


         ------------------------------------------------------------
                                     CPHF                           
                                  Rob Parrish                       
         ------------------------------------------------------------

  ==> Geometry <==

    Molecular point group: c1
    Full point group: C1

    Geometry (in Angstrom), charge = 0, multiplicity = 1:

       Center              X                  Y                   Z               Mass       
    ------------   -----------------  -----------------  -----------------  -----------------
         C           -0.303189576836     0.001699731004    -0.000608299667    12.000000000000
         C            1.173829423164     0.000911731004     0.000863700333    12.000000000000
         C           -3.137622576836     0.006425731004    -0.012931299667    12.000000000000
         C           -1.022400576836    -1.113196268996    -0.457901299667    12.000000000000
         C           -1.022614576836     1.119649731004     0.448773700333    12.000000000000
         C           -2.416406576836    -1.109051268996    -0.458012299667    12.000000000000
         C           -2.416580576836     1.118126731004     0.441779700333    12.000000000000
         C            1.887448423164    -1.120142268996     0.453694700333    12.000000000000
         C            1.890735423164     1.120717731004    -0.449803299667    12.000000000000
         C           -4.643682576836    -0.007077268996     0.020608700333    12.000000000000
         C            3.282464423164    -1.122002268996     0.453065700333    12.000000000000
         C            3.285765423164     1.120126731004    -0.444851299667    12.000000000000
         C            3.986247423164    -0.001509268996     0.005241700333    12.000000000000
         H           -0.383706076836    -2.136069368996    -0.911521399667     1.007825032230
         H           -0.483364576836     1.984901731004     0.829794700333     1.007825032230
         H           -2.954191576836    -1.980712268996    -0.828770299667     1.007825032230
         H           -2.954580576836     1.995435731004     0.798692700333     1.007825032230
         H            1.341800423164    -1.982681268996     0.831109700333     1.007825032230
         H            1.347823423164     1.984089731004    -0.829207299667     1.007825032230
         H           -5.049493576836     0.999795731004    -0.113283299667     1.007825032230
         H           -5.049015576836    -0.644569268996    -0.770405299667     1.007825032230
         H           -5.014941576836    -0.389710268996     0.977810700333     1.007825032230
         H            3.821461423164    -1.995324268996     0.813454700333     1.007825032230
         H            3.827373423164     1.992492731004    -0.803634299667     1.007825032230
         H            5.073597423164    -0.002435268996     0.006910700333     1.007825032230

  Nuclear repulsion =  686.432518895896919
  Reference energy  = -499.427592488549635

  ==> Basis Set <==

  Basis Set: AUG-CC-PVTZ
    Blend: AUG-CC-PVTZ
    Number of shells: 290
    Number of basis functions: 874
    Number of Cartesian functions: 1015
    Spherical Harmonics?: true
    Max angular momentum: 3

  ==> CGRSolver (by Rob Parrish) <==

   Number of roots    =         1
   Preconditioning    =    JACOBI
   Convergence cutoff =     1E-06
   Maximum iterations =       100

  ==> CPHFRHamiltonian (by Rob Parrish) <== 

  ==> MemDFJK: Density-Fitted J/K Matrices <==

    J tasked:                   Yes
    K tasked:                   Yes
    wK tasked:                   No
    OpenMP threads:              32
    Memory [MiB]:             22888
    Algorithm:                 Core
    Schwarz Cutoff:           1E-12
    Mask sparsity (%):      12.2250
    Fitting Condition:        1E-10

   => Auxiliary Basis Set <=

  Basis Set: (AUG-CC-PVTZ AUX)
    Blend: AUG-CC-PVTZ-JKFIT
    Number of shells: 558
    Number of basis functions: 1904
    Number of Cartesian functions: 2363
    Spherical Harmonics?: true
    Max angular momentum: 4

  ==> CPHF Iterations <==

  => Iterations <=

             Iter  Converged  Remaining    Residual
  CGR           1          0          1   7.272E-02
  CGR           2          0          1   1.396E-02
  CGR           3          0          1   5.421E-03
  CGR           4          0          1   3.197E-03
  CGR           5          0          1   1.642E-03
  CGR           6          0          1   6.944E-04
  CGR           7          0          1   2.389E-04
  CGR           8          0          1   7.698E-05
  CGR           9          0          1   2.401E-05
  CGR          10          0          1   7.969E-06
  CGR          11          0          1   2.984E-06
  CGR          12          0          1   1.079E-06
  CGR          13          1          0   4.526E-07

    CGRSolver converged.

	-----------------------------------------------------------
	 ==================> DF-MP2 Energies <==================== 
	-----------------------------------------------------------
	 Reference Energy          =    -499.4275924885496352 [Eh]
	 Singles Energy            =      -0.0000000000000000 [Eh]
	 Same-Spin Energy          =      -0.5660786568179532 [Eh]
	 Opposite-Spin Energy      =      -1.7820999913773707 [Eh]
	 Correlation Energy        =      -2.3481786481953240 [Eh]
	 Total Energy              =    -501.7757711367449360 [Eh]
	-----------------------------------------------------------
	 ================> DF-SCS-MP2 Energies <================== 
	-----------------------------------------------------------
	 SCS Same-Spin Scale       =       0.3333333333333333 [-]
	 SCS Opposite-Spin Scale   =       1.2000000000000000 [-]
	 SCS Same-Spin Energy      =      -0.1886928856059844 [Eh]
	 SCS Opposite-Spin Energy  =      -2.1385199896528446 [Eh]
	 SCS Correlation Energy    =      -2.3272128752588288 [Eh]
	 SCS Total Energy          =    -501.7548053638084866 [Eh]
	-----------------------------------------------------------



Properties will be evaluated at   0.000000,   0.000000,   0.000000 [a0]

Properties computed using the MP2 density matrix

  Nuclear Dipole Moment: [e a0]
     X:    -6.0722      Y:    -0.1639      Z:     0.0009

  Electronic Dipole Moment: [e a0]
     X:     5.8565      Y:     0.1854      Z:     0.0266

  Dipole Moment: [e a0]
     X:    -0.2157      Y:     0.0216      Z:     0.0275     Total:     0.2186

  Dipole Moment: [D]
     X:    -0.5484      Y:     0.0549      Z:     0.0698     Total:     0.5555


*** tstop() called on c459-032.stampede2.tacc.utexas.edu at Sat Mar  6 10:36:52 2021
Module time:
	user time   =    4464.79 seconds =      74.41 minutes
	system time =      91.21 seconds =       1.52 minutes
	total time  =        421 seconds =       7.02 minutes
Total time:
	user time   =    5845.37 seconds =      97.42 minutes
	system time =     158.51 seconds =       2.64 minutes
	total time  =        492 seconds =       8.20 minutes

    Psi4 stopped on: Saturday, 06 March 2021 10:36AM
    Psi4 wall time for execution: 0:08:13.70

*** Psi4 exiting successfully. Buy a developer a beer!
