
    -----------------------------------------------------------------------
          Psi4: An Open-Source Ab Initio Electronic Structure Package
                               Psi4 1.4a3.dev225 

                         Git: Rev {master} 7105e37 


    D. G. A. Smith, L. A. Burns, A. C. Simmonett, R. M. Parrish,
    M. C. Schieber, R. Galvelis, P. Kraus, H. Kruse, R. Di Remigio,
    A. Alenaizan, A. M. James, S. Lehtola, J. P. Misiewicz, M. Scheurer,
    R. A. Shaw, J. B. Schriber, Y. Xie, Z. L. Glick, D. A. Sirianni,
    J. S. O'Brien, J. M. Waldrop, A. Kumar, E. G. Hohenstein,
    B. P. Pritchard, B. R. Brooks, H. F. Schaefer III, A. Yu. Sokolov,
    K. Patkowski, A. E. DePrince III, U. Bozkaya, R. A. King,
    F. A. Evangelista, J. M. Turney, T. D. Crawford, C. D. Sherrill,
    J. Chem. Phys. 152(18) 184108 (2020). https://doi.org/10.1063/5.0006002

                            Additional Code Authors
    E. T. Seidl, C. L. Janssen, E. F. Valeev, M. L. Leininger,
    J. F. Gonthier, R. M. Richard, H. R. McAlexander, M. Saitow, X. Wang,
    P. Verma, and M. H. Lechner

             Previous Authors, Complete List of Code Contributors,
                       and Citations for Specific Modules
    https://github.com/psi4/psi4/blob/master/codemeta.json
    https://github.com/psi4/psi4/graphs/contributors
    http://psicode.org/psi4manual/master/introduction.html#citing-psifour

    -----------------------------------------------------------------------


    Psi4 started on: Saturday, 06 March 2021 09:46AM

    Process ID: 152879
    Host:       c459-032.stampede2.tacc.utexas.edu
    PSIDATADIR: /home1/07844/xy3866/miniconda3/envs/p4env/share/psi4
    Memory:     500.0 MiB
    Threads:    32
    
  ==> Input File <==

--------------------------------------------------------------------------
#psi4
#
memory 32 gb

molecule  {
0 1
  C       -0.2663850     0.0008990    -0.0013960
  C        1.2106340     0.0001110     0.0000760
  C       -3.1008180     0.0056250    -0.0137190
  C       -0.9855960    -1.1139970    -0.4586890
  C       -0.9858100     1.1188490     0.4479860
  C       -2.3796020    -1.1098520    -0.4588000
  C       -2.2768368     1.2760375     0.5059086
  C        1.9242530    -1.1209430     0.4529070
  C        1.9275400     1.1199170    -0.4505910
  C       -4.6068780    -0.0078780     0.0198210
  C        3.3192690    -1.1228030     0.4522780
  C        3.3225700     1.1193260    -0.4456390
  C        4.0230520    -0.0023100     0.0044540
  H       -0.4460470    -1.9780880    -0.8418930
  H       -0.4465600     1.9841010     0.8290070
  H       -2.9173870    -1.9815130    -0.8295580
  H       -2.9177760     1.9946350     0.7979050
  H        1.3786050    -1.9834820     0.8303220
  H        1.3846280     1.9832890    -0.8299950
  H       -5.0126890     0.9989950    -0.1140710
  H       -5.0122110    -0.6453700    -0.7711930
  H       -4.9781370    -0.3905110     0.9770230
  H        3.8582660    -1.9961250     0.8126670
  H        3.8641780     1.9916920    -0.8044220
  H        5.1104020    -0.0032360     0.0061230
units angstrom
no_reorient  #important for SAPT in psi4, default
symmetry c1  #important for SAPT in psi4, default
}

set PROPERTIES_ORIGIN ["COM"]
properties('MP2/aug-cc-pvtz', properties = ['dipole'])
--------------------------------------------------------------------------

  Memory set to  29.802 GiB by Python driver.
    SCF Algorithm Type (re)set to DF.

*** tstart() called on c459-032.stampede2.tacc.utexas.edu
*** at Sat Mar  6 09:47:03 2021

   => Loading Basis Set <=

    Name: AUG-CC-PVTZ
    Role: ORBITAL
    Keyword: BASIS
    atoms 1-13  entry C          line   239 file /home1/07844/xy3866/miniconda3/envs/p4env/share/psi4/basis/aug-cc-pvtz.gbs 
    atoms 14-25 entry H          line    40 file /home1/07844/xy3866/miniconda3/envs/p4env/share/psi4/basis/aug-cc-pvtz.gbs 


         ---------------------------------------------------------
                                   SCF
               by Justin Turney, Rob Parrish, Andy Simmonett
                          and Daniel G. A. Smith
                              RHF Reference
                       32 Threads,  30517 MiB Core
         ---------------------------------------------------------

  ==> Geometry <==

    Molecular point group: c1
    Full point group: C1

    Geometry (in Angstrom), charge = 0, multiplicity = 1:

       Center              X                  Y                   Z               Mass       
    ------------   -----------------  -----------------  -----------------  -----------------
         C           -0.309943831932    -0.010582467043    -0.005664796698    12.000000000000
         C            1.167075168068    -0.011370467043    -0.004192796698    12.000000000000
         C           -3.144376831932    -0.005856467043    -0.017987796698    12.000000000000
         C           -1.029154831932    -1.125478467043    -0.462957796698    12.000000000000
         C           -1.029368831932     1.107367532957     0.443717203302    12.000000000000
         C           -2.423160831932    -1.121333467043    -0.463068796698    12.000000000000
         C           -2.320395631932     1.264556032957     0.501639803302    12.000000000000
         C            1.880694168068    -1.132424467043     0.448638203302    12.000000000000
         C            1.883981168068     1.108435532957    -0.454859796698    12.000000000000
         C           -4.650436831932    -0.019359467043     0.015552203302    12.000000000000
         C            3.275710168068    -1.134284467043     0.448009203302    12.000000000000
         C            3.279011168068     1.107844532957    -0.449907796698    12.000000000000
         C            3.979493168068    -0.013791467043     0.000185203302    12.000000000000
         H           -0.489605831932    -1.989569467043    -0.846161796698     1.007825032230
         H           -0.490118831932     1.972619532957     0.824738203302     1.007825032230
         H           -2.960945831932    -1.992994467043    -0.833826796698     1.007825032230
         H           -2.961334831932     1.983153532957     0.793636203302     1.007825032230
         H            1.335046168068    -1.994963467043     0.826053203302     1.007825032230
         H            1.341069168068     1.971807532957    -0.834263796698     1.007825032230
         H           -5.056247831932     0.987513532957    -0.118339796698     1.007825032230
         H           -5.055769831932    -0.656851467043    -0.775461796698     1.007825032230
         H           -5.021695831932    -0.401992467043     0.972754203302     1.007825032230
         H            3.814707168068    -2.007606467043     0.808398203302     1.007825032230
         H            3.820619168068     1.980210532957    -0.808690796698     1.007825032230
         H            5.066843168068    -0.014717467043     0.001854203302     1.007825032230

  Running in c1 symmetry.

  Rotational constants: A =      0.09103  B =      0.01327  C =      0.01203 [cm^-1]
  Rotational constants: A =   2728.99756  B =    397.85648  C =    360.75146 [MHz]
  Nuclear repulsion =  685.751538440502713

  Charge       = 0
  Multiplicity = 1
  Electrons    = 90
  Nalpha       = 45
  Nbeta        = 45

  ==> Algorithm <==

  SCF Algorithm Type is DF.
  DIIS enabled.
  MOM disabled.
  Fractional occupation disabled.
  Guess Type is SAD.
  Energy threshold   = 1.00e-10
  Density threshold  = 1.00e-10
  Integral threshold = 1.00e-12

  ==> Primary Basis <==

  Basis Set: AUG-CC-PVTZ
    Blend: AUG-CC-PVTZ
    Number of shells: 290
    Number of basis functions: 874
    Number of Cartesian functions: 1015
    Spherical Harmonics?: true
    Max angular momentum: 3

   => Loading Basis Set <=

    Name: (AUG-CC-PVTZ AUX)
    Role: JKFIT
    Keyword: DF_BASIS_SCF
    atoms 1-13  entry C          line   162 file /home1/07844/xy3866/miniconda3/envs/p4env/share/psi4/basis/aug-cc-pvtz-jkfit.gbs 
    atoms 14-25 entry H          line    70 file /home1/07844/xy3866/miniconda3/envs/p4env/share/psi4/basis/aug-cc-pvtz-jkfit.gbs 

  ==> Integral Setup <==

  DFHelper Memory: AOs need 9.240 GiB; user supplied 22.352 GiB. Using in-core AOs.

  ==> MemDFJK: Density-Fitted J/K Matrices <==

    J tasked:                   Yes
    K tasked:                   Yes
    wK tasked:                   No
    OpenMP threads:              32
    Memory [MiB]:             22888
    Algorithm:                 Core
    Schwarz Cutoff:           1E-12
    Mask sparsity (%):      18.0752
    Fitting Condition:        1E-10

   => Auxiliary Basis Set <=

  Basis Set: (AUG-CC-PVTZ AUX)
    Blend: AUG-CC-PVTZ-JKFIT
    Number of shells: 558
    Number of basis functions: 1904
    Number of Cartesian functions: 2363
    Spherical Harmonics?: true
    Max angular momentum: 4

  Minimum eigenvalue in the overlap matrix is 4.1768889930E-07.
  Reciprocal condition number of the overlap matrix is 2.0369653264E-08.
    Using symmetric orthogonalization.

  ==> Pre-Iterations <==

  SCF Guess: Superposition of Atomic Densities via on-the-fly atomic UHF (no occupation information).

   -------------------------
    Irrep   Nso     Nmo    
   -------------------------
     A        874     874 
   -------------------------
    Total     874     874
   -------------------------

  ==> Iterations <==

                           Total Energy        Delta E     RMS |[F,P]|

   @DF-RHF iter SAD:  -498.79435759362480   -4.98794e+02   0.00000e+00 
   @DF-RHF iter   1:  -499.04085264590674   -2.46495e-01   8.68479e-04 DIIS
   @DF-RHF iter   2:  -499.34822548659315   -3.07373e-01   3.75904e-04 DIIS
   @DF-RHF iter   3:  -499.40452495514199   -5.62995e-02   7.94786e-05 DIIS
   @DF-RHF iter   4:  -499.40822221817587   -3.69726e-03   3.15921e-05 DIIS
   @DF-RHF iter   5:  -499.40867418883550   -4.51971e-04   9.63295e-06 DIIS
   @DF-RHF iter   6:  -499.40872693908750   -5.27503e-05   2.64797e-06 DIIS
   @DF-RHF iter   7:  -499.40873559885597   -8.65977e-06   1.04049e-06 DIIS
   @DF-RHF iter   8:  -499.40873810890832   -2.51005e-06   5.12202e-07 DIIS
   @DF-RHF iter   9:  -499.40873887852871   -7.69620e-07   1.97389e-07 DIIS
   @DF-RHF iter  10:  -499.40873895199400   -7.34653e-08   6.18273e-08 DIIS
   @DF-RHF iter  11:  -499.40873895841173   -6.41774e-09   2.09451e-08 DIIS
   @DF-RHF iter  12:  -499.40873895878320   -3.71472e-10   8.99192e-09 DIIS
   @DF-RHF iter  13:  -499.40873895885647   -7.32712e-11   2.58683e-09 DIIS
   @DF-RHF iter  14:  -499.40873895886722   -1.07434e-11   1.05382e-09 DIIS
   @DF-RHF iter  15:  -499.40873895886864   -1.42109e-12   5.70715e-10 DIIS
   @DF-RHF iter  16:  -499.40873895886858    5.68434e-14   2.26542e-10 DIIS
   @DF-RHF iter  17:  -499.40873895886995   -1.36424e-12   8.83501e-11 DIIS
  Energy and wave function converged.


  ==> Post-Iterations <==

    Orbital Energies [Eh]
    ---------------------

    Doubly Occupied:                                                      

       1A    -11.258913     2A    -11.244741     3A    -11.240430  
       4A    -11.237330     5A    -11.236219     6A    -11.235978  
       7A    -11.234802     8A    -11.233416     9A    -11.233235  
      10A    -11.233032    11A    -11.228934    12A    -11.227607  
      13A    -11.226970    14A     -1.165580    15A     -1.135992  
      16A     -1.056441    17A     -1.031018    18A     -1.011799  
      19A     -1.001929    20A     -0.926540    21A     -0.840980  
      22A     -0.826889    23A     -0.809407    24A     -0.778692  
      25A     -0.714565    26A     -0.672509    27A     -0.653444  
      28A     -0.637684    29A     -0.621137    30A     -0.609062  
      31A     -0.592182    32A     -0.582942    33A     -0.574642  
      34A     -0.568336    35A     -0.546839    36A     -0.514302  
      37A     -0.508472    38A     -0.491955    39A     -0.489751  
      40A     -0.479819    41A     -0.445412    42A     -0.355432  
      43A     -0.351683    44A     -0.335690    45A     -0.284304  

    Virtual:                                                              

      46A      0.028324    47A      0.029787    48A      0.032070  
      49A      0.038854    50A      0.039447    51A      0.043503  
      52A      0.050494    53A      0.053344    54A      0.058457  
      55A      0.060216    56A      0.064566    57A      0.075340  
      58A      0.084140    59A      0.087022    60A      0.094742  
      61A      0.100023    62A      0.105222    63A      0.105858  
      64A      0.108042    65A      0.112692    66A      0.113309  
      67A      0.115078    68A      0.115505    69A      0.123501  
      70A      0.125982    71A      0.127657    72A      0.129838  
      73A      0.129998    74A      0.136955    75A      0.140800  
      76A      0.142066    77A      0.144678    78A      0.144859  
      79A      0.150324    80A      0.151092    81A      0.152239  
      82A      0.153289    83A      0.158324    84A      0.159715  
      85A      0.163851    86A      0.171788    87A      0.175425  
      88A      0.177767    89A      0.181926    90A      0.189431  
      91A      0.194796    92A      0.197924    93A      0.202908  
      94A      0.205352    95A      0.212310    96A      0.213677  
      97A      0.226016    98A      0.230422    99A      0.233102  
     100A      0.241935   101A      0.246298   102A      0.251207  
     103A      0.251819   104A      0.257168   105A      0.259379  
     106A      0.263222   107A      0.264335   108A      0.270173  
     109A      0.272391   110A      0.274992   111A      0.277534  
     112A      0.284418   113A      0.291125   114A      0.297099  
     115A      0.300051   116A      0.302984   117A      0.304297  
     118A      0.306587   119A      0.309548   120A      0.314445  
     121A      0.317672   122A      0.323609   123A      0.325704  
     124A      0.327923   125A      0.330658   126A      0.336525  
     127A      0.338131   128A      0.339705   129A      0.345756  
     130A      0.347614   131A      0.353621   132A      0.357551  
     133A      0.358248   134A      0.365969   135A      0.373085  
     136A      0.375536   137A      0.377073   138A      0.379430  
     139A      0.387291   140A      0.393301   141A      0.398303  
     142A      0.401527   143A      0.403097   144A      0.414387  
     145A      0.419349   146A      0.420666   147A      0.425519  
     148A      0.427726   149A      0.432311   150A      0.436756  
     151A      0.441867   152A      0.445479   153A      0.446139  
     154A      0.447435   155A      0.452905   156A      0.455388  
     157A      0.456847   158A      0.460154   159A      0.465033  
     160A      0.469106   161A      0.474087   162A      0.477615  
     163A      0.482125   164A      0.484564   165A      0.487043  
     166A      0.490372   167A      0.492217   168A      0.494504  
     169A      0.498850   170A      0.502337   171A      0.505218  
     172A      0.506044   173A      0.507446   174A      0.510114  
     175A      0.512359   176A      0.518061   177A      0.518521  
     178A      0.521546   179A      0.524116   180A      0.525591  
     181A      0.529536   182A      0.530805   183A      0.535612  
     184A      0.537019   185A      0.542577   186A      0.545632  
     187A      0.546371   188A      0.549744   189A      0.550567  
     190A      0.555757   191A      0.557764   192A      0.563377  
     193A      0.565176   194A      0.571459   195A      0.583757  
     196A      0.586125   197A      0.590705   198A      0.596379  
     199A      0.599132   200A      0.603203   201A      0.606016  
     202A      0.608953   203A      0.617430   204A      0.618958  
     205A      0.624292   206A      0.635903   207A      0.638864  
     208A      0.644903   209A      0.651666   210A      0.665897  
     211A      0.668184   212A      0.671263   213A      0.679262  
     214A      0.687721   215A      0.698008   216A      0.699659  
     217A      0.703916   218A      0.706616   219A      0.708541  
     220A      0.715022   221A      0.719886   222A      0.724815  
     223A      0.727793   224A      0.737779   225A      0.739004  
     226A      0.739923   227A      0.747513   228A      0.752840  
     229A      0.760101   230A      0.764608   231A      0.769335  
     232A      0.771882   233A      0.782418   234A      0.788050  
     235A      0.799708   236A      0.808403   237A      0.815830  
     238A      0.819788   239A      0.826203   240A      0.829739  
     241A      0.834521   242A      0.840780   243A      0.851504  
     244A      0.852422   245A      0.855221   246A      0.864298  
     247A      0.864871   248A      0.872761   249A      0.877257  
     250A      0.878744   251A      0.883304   252A      0.885695  
     253A      0.888685   254A      0.893481   255A      0.894924  
     256A      0.897721   257A      0.902467   258A      0.904503  
     259A      0.906492   260A      0.914335   261A      0.918085  
     262A      0.923095   263A      0.925004   264A      0.928652  
     265A      0.931576   266A      0.938182   267A      0.944740  
     268A      0.949667   269A      0.952948   270A      0.956394  
     271A      0.961350   272A      0.964515   273A      0.970820  
     274A      0.974525   275A      0.977307   276A      0.983542  
     277A      0.989415   278A      0.992273   279A      0.997997  
     280A      1.000574   281A      1.003438   282A      1.008057  
     283A      1.008842   284A      1.018341   285A      1.024111  
     286A      1.028203   287A      1.028776   288A      1.033272  
     289A      1.037981   290A      1.038691   291A      1.041795  
     292A      1.048439   293A      1.056272   294A      1.057364  
     295A      1.063842   296A      1.069037   297A      1.069932  
     298A      1.076257   299A      1.079984   300A      1.084541  
     301A      1.086670   302A      1.091882   303A      1.093727  
     304A      1.097505   305A      1.104565   306A      1.106452  
     307A      1.108673   308A      1.112856   309A      1.118451  
     310A      1.122685   311A      1.129316   312A      1.132331  
     313A      1.136383   314A      1.142892   315A      1.145578  
     316A      1.153835   317A      1.155410   318A      1.156598  
     319A      1.163955   320A      1.167765   321A      1.173362  
     322A      1.176597   323A      1.180941   324A      1.183310  
     325A      1.189427   326A      1.193389   327A      1.194456  
     328A      1.200452   329A      1.204544   330A      1.209812  
     331A      1.211628   332A      1.214022   333A      1.224804  
     334A      1.229408   335A      1.236818   336A      1.237932  
     337A      1.239672   338A      1.249041   339A      1.251983  
     340A      1.256199   341A      1.261869   342A      1.266206  
     343A      1.272711   344A      1.276875   345A      1.279629  
     346A      1.286338   347A      1.296292   348A      1.304407  
     349A      1.311553   350A      1.315284   351A      1.316912  
     352A      1.322333   353A      1.327922   354A      1.335789  
     355A      1.336491   356A      1.344093   357A      1.349228  
     358A      1.356837   359A      1.367622   360A      1.368425  
     361A      1.381651   362A      1.389584   363A      1.393705  
     364A      1.395354   365A      1.397918   366A      1.409843  
     367A      1.411426   368A      1.416144   369A      1.419916  
     370A      1.431574   371A      1.439035   372A      1.442985  
     373A      1.453829   374A      1.456258   375A      1.460106  
     376A      1.467121   377A      1.477111   378A      1.485410  
     379A      1.489387   380A      1.497116   381A      1.500703  
     382A      1.510049   383A      1.519575   384A      1.530614  
     385A      1.532636   386A      1.540095   387A      1.544985  
     388A      1.549910   389A      1.557077   390A      1.564496  
     391A      1.576281   392A      1.583539   393A      1.586025  
     394A      1.590093   395A      1.596036   396A      1.606117  
     397A      1.615341   398A      1.624772   399A      1.634860  
     400A      1.639827   401A      1.646054   402A      1.655474  
     403A      1.668374   404A      1.671231   405A      1.676487  
     406A      1.691589   407A      1.697718   408A      1.703734  
     409A      1.707522   410A      1.716968   411A      1.720744  
     412A      1.723764   413A      1.729742   414A      1.731556  
     415A      1.737126   416A      1.747641   417A      1.749363  
     418A      1.760283   419A      1.765736   420A      1.771155  
     421A      1.775192   422A      1.786931   423A      1.791808  
     424A      1.800789   425A      1.804832   426A      1.817577  
     427A      1.820121   428A      1.828209   429A      1.838440  
     430A      1.848094   431A      1.851422   432A      1.853128  
     433A      1.855482   434A      1.862071   435A      1.870881  
     436A      1.879195   437A      1.893262   438A      1.897175  
     439A      1.905997   440A      1.909844   441A      1.917544  
     442A      1.920567   443A      1.929761   444A      1.932558  
     445A      1.943207   446A      1.952381   447A      1.955684  
     448A      1.962772   449A      1.976651   450A      1.983243  
     451A      1.988840   452A      1.993299   453A      1.997099  
     454A      2.008074   455A      2.014742   456A      2.021300  
     457A      2.026433   458A      2.029238   459A      2.037699  
     460A      2.041721   461A      2.048183   462A      2.051713  
     463A      2.055649   464A      2.060149   465A      2.071461  
     466A      2.081984   467A      2.083935   468A      2.089890  
     469A      2.097585   470A      2.104733   471A      2.111690  
     472A      2.116062   473A      2.121537   474A      2.139798  
     475A      2.146527   476A      2.148577   477A      2.157834  
     478A      2.163295   479A      2.166777   480A      2.179360  
     481A      2.180250   482A      2.182000   483A      2.188795  
     484A      2.203032   485A      2.212573   486A      2.220018  
     487A      2.224539   488A      2.238900   489A      2.241859  
     490A      2.252356   491A      2.258571   492A      2.264666  
     493A      2.272751   494A      2.280411   495A      2.286583  
     496A      2.290722   497A      2.322910   498A      2.324754  
     499A      2.334984   500A      2.347324   501A      2.359129  
     502A      2.360853   503A      2.368036   504A      2.368889  
     505A      2.383509   506A      2.393716   507A      2.397239  
     508A      2.401541   509A      2.410260   510A      2.412992  
     511A      2.416743   512A      2.427696   513A      2.434844  
     514A      2.444267   515A      2.455822   516A      2.467483  
     517A      2.473986   518A      2.500837   519A      2.507375  
     520A      2.532706   521A      2.543486   522A      2.550856  
     523A      2.567659   524A      2.573644   525A      2.586313  
     526A      2.598534   527A      2.609225   528A      2.620290  
     529A      2.636322   530A      2.644868   531A      2.655197  
     532A      2.666547   533A      2.682091   534A      2.685221  
     535A      2.719728   536A      2.735115   537A      2.753715  
     538A      2.773014   539A      2.786628   540A      2.798874  
     541A      2.817264   542A      2.819747   543A      2.833045  
     544A      2.849334   545A      2.874774   546A      2.900960  
     547A      2.939641   548A      2.987193   549A      3.001184  
     550A      3.019467   551A      3.069958   552A      3.078657  
     553A      3.083777   554A      3.150211   555A      3.164534  
     556A      3.168117   557A      3.204338   558A      3.210987  
     559A      3.218874   560A      3.233827   561A      3.240832  
     562A      3.248332   563A      3.271077   564A      3.287404  
     565A      3.294741   566A      3.301386   567A      3.318684  
     568A      3.342105   569A      3.347359   570A      3.359288  
     571A      3.364272   572A      3.376663   573A      3.380658  
     574A      3.383571   575A      3.390157   576A      3.404270  
     577A      3.411611   578A      3.432914   579A      3.440550  
     580A      3.452468   581A      3.456689   582A      3.466701  
     583A      3.474217   584A      3.474787   585A      3.492476  
     586A      3.503497   587A      3.509468   588A      3.512601  
     589A      3.517913   590A      3.528919   591A      3.539501  
     592A      3.545578   593A      3.552657   594A      3.558077  
     595A      3.559976   596A      3.570897   597A      3.579021  
     598A      3.583639   599A      3.587807   600A      3.593421  
     601A      3.599412   602A      3.603164   603A      3.615514  
     604A      3.625844   605A      3.634597   606A      3.647937  
     607A      3.655088   608A      3.662974   609A      3.666656  
     610A      3.678534   611A      3.693403   612A      3.696642  
     613A      3.703497   614A      3.708549   615A      3.713533  
     616A      3.715200   617A      3.733181   618A      3.740633  
     619A      3.754037   620A      3.756057   621A      3.761001  
     622A      3.770872   623A      3.773372   624A      3.790963  
     625A      3.803689   626A      3.807185   627A      3.819614  
     628A      3.825743   629A      3.830499   630A      3.840718  
     631A      3.842517   632A      3.852215   633A      3.855415  
     634A      3.859880   635A      3.863807   636A      3.872335  
     637A      3.878087   638A      3.898919   639A      3.904083  
     640A      3.909274   641A      3.925370   642A      3.927954  
     643A      3.938386   644A      3.947994   645A      3.953289  
     646A      3.960634   647A      3.969077   648A      3.976101  
     649A      3.988762   650A      3.991988   651A      3.996857  
     652A      3.998814   653A      4.012187   654A      4.018022  
     655A      4.022099   656A      4.034828   657A      4.037114  
     658A      4.044920   659A      4.049335   660A      4.052628  
     661A      4.056152   662A      4.066635   663A      4.070920  
     664A      4.083893   665A      4.089065   666A      4.096589  
     667A      4.107445   668A      4.113725   669A      4.125912  
     670A      4.126516   671A      4.137638   672A      4.149521  
     673A      4.156125   674A      4.162430   675A      4.178222  
     676A      4.184976   677A      4.190480   678A      4.195741  
     679A      4.207090   680A      4.217391   681A      4.221287  
     682A      4.231496   683A      4.238909   684A      4.246150  
     685A      4.254941   686A      4.260821   687A      4.273459  
     688A      4.286208   689A      4.295063   690A      4.297353  
     691A      4.306248   692A      4.317725   693A      4.324613  
     694A      4.333026   695A      4.346547   696A      4.356189  
     697A      4.361865   698A      4.367393   699A      4.381950  
     700A      4.387773   701A      4.396069   702A      4.401818  
     703A      4.409733   704A      4.417027   705A      4.422522  
     706A      4.431790   707A      4.433012   708A      4.445780  
     709A      4.452902   710A      4.457678   711A      4.465735  
     712A      4.478591   713A      4.486748   714A      4.489517  
     715A      4.492995   716A      4.496155   717A      4.510501  
     718A      4.512295   719A      4.517993   720A      4.526973  
     721A      4.534014   722A      4.537100   723A      4.556530  
     724A      4.566922   725A      4.569259   726A      4.598998  
     727A      4.616591   728A      4.619826   729A      4.632278  
     730A      4.648784   731A      4.658939   732A      4.676934  
     733A      4.687103   734A      4.706505   735A      4.717526  
     736A      4.728506   737A      4.731328   738A      4.741459  
     739A      4.747186   740A      4.756906   741A      4.768192  
     742A      4.776917   743A      4.794504   744A      4.798321  
     745A      4.809823   746A      4.825924   747A      4.831150  
     748A      4.843757   749A      4.870045   750A      4.886235  
     751A      4.895868   752A      4.911282   753A      4.923743  
     754A      4.930352   755A      4.943011   756A      4.954352  
     757A      4.963843   758A      4.981681   759A      4.985242  
     760A      4.991861   761A      5.017980   762A      5.031497  
     763A      5.033802   764A      5.041833   765A      5.057004  
     766A      5.065865   767A      5.082896   768A      5.090664  
     769A      5.103116   770A      5.108884   771A      5.123776  
     772A      5.130270   773A      5.138356   774A      5.145747  
     775A      5.156738   776A      5.171967   777A      5.176697  
     778A      5.179587   779A      5.184948   780A      5.188345  
     781A      5.197921   782A      5.204817   783A      5.216546  
     784A      5.219624   785A      5.225120   786A      5.256452  
     787A      5.266118   788A      5.273697   789A      5.293499  
     790A      5.316197   791A      5.325594   792A      5.332106  
     793A      5.338962   794A      5.350065   795A      5.364125  
     796A      5.370060   797A      5.392634   798A      5.409683  
     799A      5.428428   800A      5.434370   801A      5.440781  
     802A      5.447165   803A      5.452248   804A      5.496940  
     805A      5.506795   806A      5.517031   807A      5.527141  
     808A      5.548256   809A      5.561452   810A      5.573413  
     811A      5.577604   812A      5.623090   813A      5.650758  
     814A      5.658497   815A      5.700146   816A      5.729867  
     817A      5.756865   818A      5.779247   819A      5.787266  
     820A      5.805462   821A      5.814883   822A      5.816391  
     823A      5.838726   824A      5.851568   825A      5.890125  
     826A      5.956139   827A      5.975913   828A      6.014965  
     829A      6.049079   830A      6.114231   831A      6.140168  
     832A      6.145566   833A      6.182011   834A      6.193451  
     835A      6.210241   836A      6.224068   837A      6.259447  
     838A      6.270634   839A      6.284115   840A      6.350410  
     841A      6.358656   842A      6.397574   843A      6.407524  
     844A      6.453800   845A      6.508974   846A      6.532930  
     847A      6.583089   848A      6.608186   849A      6.644366  
     850A      6.675938   851A      6.776915   852A      6.782893  
     853A      6.823596   854A      6.852923   855A      6.908663  
     856A      6.970142   857A      7.001885   858A      7.126543  
     859A      7.180753   860A      7.276094   861A      7.362887  
     862A     15.959104   863A     16.180182   864A     16.532535  
     865A     17.277075   866A     18.352232   867A     18.892692  
     868A     19.098262   869A     19.253725   870A     19.679086  
     871A     20.058035   872A     20.296887   873A     20.966144  
     874A     22.002329  

    Final Occupation by Irrep:
              A 
    DOCC [    45 ]

  @DF-RHF Final Energy:  -499.40873895886995

   => Energetics <=

    Nuclear Repulsion Energy =            685.7515384405027135
    One-Electron Energy =               -2034.9464857784435026
    Two-Electron Energy =                 849.7862083790710130
    Total Energy =                       -499.4087389588698898

Computation Completed

*** tstop() called on c459-032.stampede2.tacc.utexas.edu at Sat Mar  6 09:48:10 2021
Module time:
	user time   =    1303.40 seconds =      21.72 minutes
	system time =      64.82 seconds =       1.08 minutes
	total time  =         67 seconds =       1.12 minutes
Total time:
	user time   =    1303.40 seconds =      21.72 minutes
	system time =      64.82 seconds =       1.08 minutes
	total time  =         67 seconds =       1.12 minutes
   => Loading Basis Set <=

    Name: (AUG-CC-PVTZ AUX)
    Role: RIFIT
    Keyword: DF_BASIS_MP2
    atoms 1-13  entry C          line   148 file /home1/07844/xy3866/miniconda3/envs/p4env/share/psi4/basis/aug-cc-pvtz-ri.gbs 
    atoms 14-25 entry H          line    30 file /home1/07844/xy3866/miniconda3/envs/p4env/share/psi4/basis/aug-cc-pvtz-ri.gbs 


*** tstart() called on c459-032.stampede2.tacc.utexas.edu
*** at Sat Mar  6 09:48:11 2021


  //>>>>>>>>>>>>>>>>>>>>>>>>>>>>>>>>>>>//
  //               DFMP2               //
  //<<<<<<<<<<<<<<<<<<<<<<<<<<<<<<<<<<<//

	 --------------------------------------------------------
	                          DF-MP2                         
	      2nd-Order Density-Fitted Moller-Plesset Theory     
	              RMP2 Wavefunction,  32 Threads             
	                                                         
	        Rob Parrish, Justin Turney, Andy Simmonett,      
	           Ed Hohenstein, and C. David Sherrill          
	 --------------------------------------------------------

   => Auxiliary Basis Set <=

  Basis Set: (AUG-CC-PVTZ AUX)
    Blend: AUG-CC-PVTZ-RI
    Number of shells: 532
    Number of basis functions: 1930
    Number of Cartesian functions: 2428
    Spherical Harmonics?: true
    Max angular momentum: 4

	 --------------------------------------------------------
	                 NBF =   874, NAUX =  1930
	 --------------------------------------------------------
	   CLASS    FOCC     OCC    AOCC    AVIR     VIR    FVIR
	   PAIRS       0      45      45     829     829       0
	 --------------------------------------------------------

  DFHelper Memory: AOs need 9.881 GiB; user supplied 22.352 GiB. Using in-core AOs.


         ------------------------------------------------------------
                                     CPHF                           
                                  Rob Parrish                       
         ------------------------------------------------------------

  ==> Geometry <==

    Molecular point group: c1
    Full point group: C1

    Geometry (in Angstrom), charge = 0, multiplicity = 1:

       Center              X                  Y                   Z               Mass       
    ------------   -----------------  -----------------  -----------------  -----------------
         C           -0.309943831932    -0.010582467043    -0.005664796698    12.000000000000
         C            1.167075168068    -0.011370467043    -0.004192796698    12.000000000000
         C           -3.144376831932    -0.005856467043    -0.017987796698    12.000000000000
         C           -1.029154831932    -1.125478467043    -0.462957796698    12.000000000000
         C           -1.029368831932     1.107367532957     0.443717203302    12.000000000000
         C           -2.423160831932    -1.121333467043    -0.463068796698    12.000000000000
         C           -2.320395631932     1.264556032957     0.501639803302    12.000000000000
         C            1.880694168068    -1.132424467043     0.448638203302    12.000000000000
         C            1.883981168068     1.108435532957    -0.454859796698    12.000000000000
         C           -4.650436831932    -0.019359467043     0.015552203302    12.000000000000
         C            3.275710168068    -1.134284467043     0.448009203302    12.000000000000
         C            3.279011168068     1.107844532957    -0.449907796698    12.000000000000
         C            3.979493168068    -0.013791467043     0.000185203302    12.000000000000
         H           -0.489605831932    -1.989569467043    -0.846161796698     1.007825032230
         H           -0.490118831932     1.972619532957     0.824738203302     1.007825032230
         H           -2.960945831932    -1.992994467043    -0.833826796698     1.007825032230
         H           -2.961334831932     1.983153532957     0.793636203302     1.007825032230
         H            1.335046168068    -1.994963467043     0.826053203302     1.007825032230
         H            1.341069168068     1.971807532957    -0.834263796698     1.007825032230
         H           -5.056247831932     0.987513532957    -0.118339796698     1.007825032230
         H           -5.055769831932    -0.656851467043    -0.775461796698     1.007825032230
         H           -5.021695831932    -0.401992467043     0.972754203302     1.007825032230
         H            3.814707168068    -2.007606467043     0.808398203302     1.007825032230
         H            3.820619168068     1.980210532957    -0.808690796698     1.007825032230
         H            5.066843168068    -0.014717467043     0.001854203302     1.007825032230

  Nuclear repulsion =  685.751538440502713
  Reference energy  = -499.408738958869947

  ==> Basis Set <==

  Basis Set: AUG-CC-PVTZ
    Blend: AUG-CC-PVTZ
    Number of shells: 290
    Number of basis functions: 874
    Number of Cartesian functions: 1015
    Spherical Harmonics?: true
    Max angular momentum: 3

  ==> CGRSolver (by Rob Parrish) <==

   Number of roots    =         1
   Preconditioning    =    JACOBI
   Convergence cutoff =     1E-06
   Maximum iterations =       100

  ==> CPHFRHamiltonian (by Rob Parrish) <== 

  ==> MemDFJK: Density-Fitted J/K Matrices <==

    J tasked:                   Yes
    K tasked:                   Yes
    wK tasked:                   No
    OpenMP threads:              32
    Memory [MiB]:             22888
    Algorithm:                 Core
    Schwarz Cutoff:           1E-12
    Mask sparsity (%):      12.1638
    Fitting Condition:        1E-10

   => Auxiliary Basis Set <=

  Basis Set: (AUG-CC-PVTZ AUX)
    Blend: AUG-CC-PVTZ-JKFIT
    Number of shells: 558
    Number of basis functions: 1904
    Number of Cartesian functions: 2363
    Spherical Harmonics?: true
    Max angular momentum: 4

  ==> CPHF Iterations <==

  => Iterations <=

             Iter  Converged  Remaining    Residual
  CGR           1          0          1   7.993E-02
  CGR           2          0          1   2.573E-02
  CGR           3          0          1   1.728E-02
  CGR           4          0          1   6.804E-03
  CGR           5          0          1   2.278E-03
  CGR           6          0          1   1.032E-03
  CGR           7          0          1   5.619E-04
  CGR           8          0          1   2.685E-04
  CGR           9          0          1   1.033E-04
  CGR          10          0          1   3.056E-05
  CGR          11          0          1   1.177E-05
  CGR          12          0          1   2.676E-06
  CGR          13          0          1   1.117E-06
  CGR          14          1          0   3.803E-07

    CGRSolver converged.

	-----------------------------------------------------------
	 ==================> DF-MP2 Energies <==================== 
	-----------------------------------------------------------
	 Reference Energy          =    -499.4087389588699466 [Eh]
	 Singles Energy            =      -0.0000000000000000 [Eh]
	 Same-Spin Energy          =      -0.5649629119957046 [Eh]
	 Opposite-Spin Energy      =      -1.7818453296909293 [Eh]
	 Correlation Energy        =      -2.3468082416866340 [Eh]
	 Total Energy              =    -501.7555472005565775 [Eh]
	-----------------------------------------------------------
	 ================> DF-SCS-MP2 Energies <================== 
	-----------------------------------------------------------
	 SCS Same-Spin Scale       =       0.3333333333333333 [-]
	 SCS Opposite-Spin Scale   =       1.2000000000000000 [-]
	 SCS Same-Spin Energy      =      -0.1883209706652348 [Eh]
	 SCS Opposite-Spin Energy  =      -2.1382143956291153 [Eh]
	 SCS Correlation Energy    =      -2.3265353662943502 [Eh]
	 SCS Total Energy          =    -501.7352743251643119 [Eh]
	-----------------------------------------------------------



Properties will be evaluated at  -0.000000,  -0.000000,  -0.000000 [a0]

Properties computed using the MP2 density matrix

  Nuclear Dipole Moment: [e a0]
     X:    -6.2411      Y:    -0.1532      Z:     0.0100

  Electronic Dipole Moment: [e a0]
     X:     6.0120      Y:     0.1604      Z:     0.0102

  Dipole Moment: [e a0]
     X:    -0.2292      Y:     0.0073      Z:     0.0202     Total:     0.2302

  Dipole Moment: [D]
     X:    -0.5825      Y:     0.0185      Z:     0.0514     Total:     0.5850


*** tstop() called on c459-032.stampede2.tacc.utexas.edu at Sat Mar  6 09:55:15 2021
Module time:
	user time   =    4497.29 seconds =      74.95 minutes
	system time =      88.93 seconds =       1.48 minutes
	total time  =        424 seconds =       7.07 minutes
Total time:
	user time   =    5801.94 seconds =      96.70 minutes
	system time =     153.78 seconds =       2.56 minutes
	total time  =        492 seconds =       8.20 minutes

    Psi4 stopped on: Saturday, 06 March 2021 09:55AM
    Psi4 wall time for execution: 0:08:13.54

*** Psi4 exiting successfully. Buy a developer a beer!
