opt=Tight                                                               
Freq      RMP2-FC                                                     6-31G(d)            
Number of atoms                            I               14
Info1-9                                    I   N=           9
          23          23        1002           0           0         100
           6           2           1
Charge                                     I                1
Multiplicity                               I                1
Number of electrons                        I               48
Number of alpha electrons                  I               24
Number of beta electrons                   I               24
Number of basis functions                  I              106
Number of independent functions            I              106
Number of point charges in /Mol/           I                0
Number of translation vectors              I                0
Atomic numbers                             I   N=          14
           8           8           7           6           6           6
           1           1           1           1           1           1
           1           1
Nuclear charges                            R   N=          14
  8.00000000E+00  8.00000000E+00  7.00000000E+00  6.00000000E+00  6.00000000E+00
  6.00000000E+00  1.00000000E+00  1.00000000E+00  1.00000000E+00  1.00000000E+00
  1.00000000E+00  1.00000000E+00  1.00000000E+00  1.00000000E+00
Current cartesian coordinates              R   N=          42
 -3.04680800E+00  1.71860925E+00 -3.16702639E-01 -2.25408700E+00 -2.41792810E+00
  5.73356927E-01  2.67525745E+00 -1.98852403E+00 -1.20494770E-01  1.15195152E+00
  3.16354061E-01 -7.47898352E-01  2.20155359E+00  2.63209241E+00  5.89992258E-01
 -1.56562083E+00 -3.12276260E-01 -6.62008281E-02  1.25796800E+00  5.49115510E-01
 -2.79862571E+00  1.72390988E+00 -3.60308302E+00 -6.40738343E-01  3.00848527E+00
 -2.12873527E+00  1.78821486E+00  4.39711516E+00 -1.97337917E+00 -1.01730630E+00
  2.06112793E+00  2.43069645E+00  2.63996642E+00  1.11562964E+00  4.28446785E+00
  1.35413492E-02  4.17565953E+00  2.92995080E+00  6.80027472E-02 -4.78684321E+00
  1.20816459E+00  8.18155971E-02
Force Field                                I                0
Int Atom Types                             I   N=          14
           0           0           0           0           0           0
           0           0           0           0           0           0
           0           0
MM charges                                 R   N=          14
  0.00000000E+00  0.00000000E+00  0.00000000E+00  0.00000000E+00  0.00000000E+00
  0.00000000E+00  0.00000000E+00  0.00000000E+00  0.00000000E+00  0.00000000E+00
  0.00000000E+00  0.00000000E+00  0.00000000E+00  0.00000000E+00
Integer atomic weights                     I   N=          14
          16          16          14          12          12          12
           1           1           1           1           1           1
           1           1
Real atomic weights                        R   N=          14
  1.59949146E+01  1.59949146E+01  1.40030740E+01  1.20000000E+01  1.20000000E+01
  1.20000000E+01  1.00782504E+00  1.00782504E+00  1.00782504E+00  1.00782504E+00
  1.00782504E+00  1.00782504E+00  1.00782504E+00  1.00782504E+00
Atom fragment info                         I   N=          14
           0           0           0           0           0           0
           0           0           0           0           0           0
           0           0
Atom residue num                           I   N=          14
           0           0           0           0           0           0
           0           0           0           0           0           0
           0           0
Nuclear spins                              I   N=          14
           0           0           2           0           0           0
           1           1           1           1           1           1
           1           1
Nuclear ZEff                               R   N=          14
 -5.60000000E+00 -5.60000000E+00 -4.55000000E+00 -3.60000000E+00 -3.60000000E+00
 -3.60000000E+00 -1.00000000E+00 -1.00000000E+00 -1.00000000E+00 -1.00000000E+00
 -1.00000000E+00 -1.00000000E+00 -1.00000000E+00 -1.00000000E+00
Nuclear QMom                               R   N=          14
  0.00000000E+00  0.00000000E+00  2.04400000E+00  0.00000000E+00  0.00000000E+00
  0.00000000E+00  0.00000000E+00  0.00000000E+00  0.00000000E+00  0.00000000E+00
  0.00000000E+00  0.00000000E+00  0.00000000E+00  0.00000000E+00
Nuclear GFac                               R   N=          14
  0.00000000E+00  0.00000000E+00  4.03761000E-01  0.00000000E+00  0.00000000E+00
  0.00000000E+00  2.79284600E+00  2.79284600E+00  2.79284600E+00  2.79284600E+00
  2.79284600E+00  2.79284600E+00  2.79284600E+00  2.79284600E+00
MicOpt                                     I   N=          14
          -1          -1          -1          -1          -1          -1
          -1          -1          -1          -1          -1          -1
          -1          -1
Number of contracted shells                I               40
Number of primitive shells                 I               98
Pure/Cartesian d shells                    I                1
Pure/Cartesian f shells                    I                0
Highest angular momentum                   I                2
Largest degree of contraction              I                6
Shell types                                I   N=          40
           0          -1          -1           2           0          -1
          -1           2           0          -1          -1           2
           0          -1          -1           2           0          -1
          -1           2           0          -1          -1           2
           0           0           0           0           0           0
           0           0           0           0           0           0
           0           0           0           0
Number of primitives per shell             I   N=          40
           6           3           1           1           6           3
           1           1           6           3           1           1
           6           3           1           1           6           3
           1           1           6           3           1           1
           3           1           3           1           3           1
           3           1           3           1           3           1
           3           1           3           1
Shell to atom map                          I   N=          40
           1           1           1           1           2           2
           2           2           3           3           3           3
           4           4           4           4           5           5
           5           5           6           6           6           6
           7           7           8           8           9           9
          10          10          11          11          12          12
          13          13          14          14
Primitive exponents                        R   N=          98
  5.48467166E+03  8.25234946E+02  1.88046958E+02  5.29645000E+01  1.68975704E+01
  5.79963534E+00  1.55396162E+01  3.59993359E+00  1.01376175E+00  2.70005823E-01
  8.00000000E-01  5.48467166E+03  8.25234946E+02  1.88046958E+02  5.29645000E+01
  1.68975704E+01  5.79963534E+00  1.55396162E+01  3.59993359E+00  1.01376175E+00
  2.70005823E-01  8.00000000E-01  4.17351146E+03  6.27457911E+02  1.42902093E+02
  4.02343293E+01  1.28202129E+01  4.39043701E+00  1.16263619E+01  2.71627981E+00
  7.72218397E-01  2.12031498E-01  8.00000000E-01  3.04752488E+03  4.57369518E+02
  1.03948685E+02  2.92101553E+01  9.28666296E+00  3.16392696E+00  7.86827235E+00
  1.88128854E+00  5.44249258E-01  1.68714478E-01  8.00000000E-01  3.04752488E+03
  4.57369518E+02  1.03948685E+02  2.92101553E+01  9.28666296E+00  3.16392696E+00
  7.86827235E+00  1.88128854E+00  5.44249258E-01  1.68714478E-01  8.00000000E-01
  3.04752488E+03  4.57369518E+02  1.03948685E+02  2.92101553E+01  9.28666296E+00
  3.16392696E+00  7.86827235E+00  1.88128854E+00  5.44249258E-01  1.68714478E-01
  8.00000000E-01  1.87311370E+01  2.82539436E+00  6.40121692E-01  1.61277759E-01
  1.87311370E+01  2.82539436E+00  6.40121692E-01  1.61277759E-01  1.87311370E+01
  2.82539436E+00  6.40121692E-01  1.61277759E-01  1.87311370E+01  2.82539436E+00
  6.40121692E-01  1.61277759E-01  1.87311370E+01  2.82539436E+00  6.40121692E-01
  1.61277759E-01  1.87311370E+01  2.82539436E+00  6.40121692E-01  1.61277759E-01
  1.87311370E+01  2.82539436E+00  6.40121692E-01  1.61277759E-01  1.87311370E+01
  2.82539436E+00  6.40121692E-01  1.61277759E-01
Contraction coefficients                   R   N=          98
  1.83107443E-03  1.39501722E-02  6.84450781E-02  2.32714336E-01  4.70192898E-01
  3.58520853E-01 -1.10777550E-01 -1.48026263E-01  1.13076702E+00  1.00000000E+00
  1.00000000E+00  1.83107443E-03  1.39501722E-02  6.84450781E-02  2.32714336E-01
  4.70192898E-01  3.58520853E-01 -1.10777550E-01 -1.48026263E-01  1.13076702E+00
  1.00000000E+00  1.00000000E+00  1.83477216E-03  1.39946270E-02  6.85865518E-02
  2.32240873E-01  4.69069948E-01  3.60455199E-01 -1.14961182E-01 -1.69117479E-01
  1.14585195E+00  1.00000000E+00  1.00000000E+00  1.83473713E-03  1.40373228E-02
  6.88426223E-02  2.32184443E-01  4.67941348E-01  3.62311985E-01 -1.19332420E-01
 -1.60854152E-01  1.14345644E+00  1.00000000E+00  1.00000000E+00  1.83473713E-03
  1.40373228E-02  6.88426223E-02  2.32184443E-01  4.67941348E-01  3.62311985E-01
 -1.19332420E-01 -1.60854152E-01  1.14345644E+00  1.00000000E+00  1.00000000E+00
  1.83473713E-03  1.40373228E-02  6.88426223E-02  2.32184443E-01  4.67941348E-01
  3.62311985E-01 -1.19332420E-01 -1.60854152E-01  1.14345644E+00  1.00000000E+00
  1.00000000E+00  3.34946043E-02  2.34726953E-01  8.13757326E-01  1.00000000E+00
  3.34946043E-02  2.34726953E-01  8.13757326E-01  1.00000000E+00  3.34946043E-02
  2.34726953E-01  8.13757326E-01  1.00000000E+00  3.34946043E-02  2.34726953E-01
  8.13757326E-01  1.00000000E+00  3.34946043E-02  2.34726953E-01  8.13757326E-01
  1.00000000E+00  3.34946043E-02  2.34726953E-01  8.13757326E-01  1.00000000E+00
  3.34946043E-02  2.34726953E-01  8.13757326E-01  1.00000000E+00  3.34946043E-02
  2.34726953E-01  8.13757326E-01  1.00000000E+00
P(S=P) Contraction coefficients            R   N=          98
  0.00000000E+00  0.00000000E+00  0.00000000E+00  0.00000000E+00  0.00000000E+00
  0.00000000E+00  7.08742682E-02  3.39752839E-01  7.27158577E-01  1.00000000E+00
  0.00000000E+00  0.00000000E+00  0.00000000E+00  0.00000000E+00  0.00000000E+00
  0.00000000E+00  0.00000000E+00  7.08742682E-02  3.39752839E-01  7.27158577E-01
  1.00000000E+00  0.00000000E+00  0.00000000E+00  0.00000000E+00  0.00000000E+00
  0.00000000E+00  0.00000000E+00  0.00000000E+00  6.75797439E-02  3.23907296E-01
  7.40895140E-01  1.00000000E+00  0.00000000E+00  0.00000000E+00  0.00000000E+00
  0.00000000E+00  0.00000000E+00  0.00000000E+00  0.00000000E+00  6.89990666E-02
  3.16423961E-01  7.44308291E-01  1.00000000E+00  0.00000000E+00  0.00000000E+00
  0.00000000E+00  0.00000000E+00  0.00000000E+00  0.00000000E+00  0.00000000E+00
  6.89990666E-02  3.16423961E-01  7.44308291E-01  1.00000000E+00  0.00000000E+00
  0.00000000E+00  0.00000000E+00  0.00000000E+00  0.00000000E+00  0.00000000E+00
  0.00000000E+00  6.89990666E-02  3.16423961E-01  7.44308291E-01  1.00000000E+00
  0.00000000E+00  0.00000000E+00  0.00000000E+00  0.00000000E+00  0.00000000E+00
  0.00000000E+00  0.00000000E+00  0.00000000E+00  0.00000000E+00  0.00000000E+00
  0.00000000E+00  0.00000000E+00  0.00000000E+00  0.00000000E+00  0.00000000E+00
  0.00000000E+00  0.00000000E+00  0.00000000E+00  0.00000000E+00  0.00000000E+00
  0.00000000E+00  0.00000000E+00  0.00000000E+00  0.00000000E+00  0.00000000E+00
  0.00000000E+00  0.00000000E+00  0.00000000E+00  0.00000000E+00  0.00000000E+00
  0.00000000E+00  0.00000000E+00  0.00000000E+00
Coordinates of each shell                  R   N=         120
 -3.04680800E+00  1.71860925E+00 -3.16702639E-01 -3.04680800E+00  1.71860925E+00
 -3.16702639E-01 -3.04680800E+00  1.71860925E+00 -3.16702639E-01 -3.04680800E+00
  1.71860925E+00 -3.16702639E-01 -2.25408700E+00 -2.41792810E+00  5.73356927E-01
 -2.25408700E+00 -2.41792810E+00  5.73356927E-01 -2.25408700E+00 -2.41792810E+00
  5.73356927E-01 -2.25408700E+00 -2.41792810E+00  5.73356927E-01  2.67525745E+00
 -1.98852403E+00 -1.20494770E-01  2.67525745E+00 -1.98852403E+00 -1.20494770E-01
  2.67525745E+00 -1.98852403E+00 -1.20494770E-01  2.67525745E+00 -1.98852403E+00
 -1.20494770E-01  1.15195152E+00  3.16354061E-01 -7.47898352E-01  1.15195152E+00
  3.16354061E-01 -7.47898352E-01  1.15195152E+00  3.16354061E-01 -7.47898352E-01
  1.15195152E+00  3.16354061E-01 -7.47898352E-01  2.20155359E+00  2.63209241E+00
  5.89992258E-01  2.20155359E+00  2.63209241E+00  5.89992258E-01  2.20155359E+00
  2.63209241E+00  5.89992258E-01  2.20155359E+00  2.63209241E+00  5.89992258E-01
 -1.56562083E+00 -3.12276260E-01 -6.62008281E-02 -1.56562083E+00 -3.12276260E-01
 -6.62008281E-02 -1.56562083E+00 -3.12276260E-01 -6.62008281E-02 -1.56562083E+00
 -3.12276260E-01 -6.62008281E-02  1.25796800E+00  5.49115510E-01 -2.79862571E+00
  1.25796800E+00  5.49115510E-01 -2.79862571E+00  1.72390988E+00 -3.60308302E+00
 -6.40738343E-01  1.72390988E+00 -3.60308302E+00 -6.40738343E-01  3.00848527E+00
 -2.12873527E+00  1.78821486E+00  3.00848527E+00 -2.12873527E+00  1.78821486E+00
  4.39711516E+00 -1.97337917E+00 -1.01730630E+00  4.39711516E+00 -1.97337917E+00
 -1.01730630E+00  2.06112793E+00  2.43069645E+00  2.63996642E+00  2.06112793E+00
  2.43069645E+00  2.63996642E+00  1.11562964E+00  4.28446785E+00  1.35413492E-02
  1.11562964E+00  4.28446785E+00  1.35413492E-02  4.17565953E+00  2.92995080E+00
  6.80027472E-02  4.17565953E+00  2.92995080E+00  6.80027472E-02 -4.78684321E+00
  1.20816459E+00  8.18155971E-02 -4.78684321E+00  1.20816459E+00  8.18155971E-02
Constraint Structure                       R   N=          42
 -3.04680800E+00  1.71860925E+00 -3.16702639E-01 -2.25408700E+00 -2.41792810E+00
  5.73356927E-01  2.67525745E+00 -1.98852403E+00 -1.20494770E-01  1.15195152E+00
  3.16354061E-01 -7.47898352E-01  2.20155359E+00  2.63209241E+00  5.89992258E-01
 -1.56562083E+00 -3.12276260E-01 -6.62008281E-02  1.25796800E+00  5.49115510E-01
 -2.79862571E+00  1.72390988E+00 -3.60308302E+00 -6.40738343E-01  3.00848527E+00
 -2.12873527E+00  1.78821486E+00  4.39711516E+00 -1.97337917E+00 -1.01730630E+00
  2.06112793E+00  2.43069645E+00  2.63996642E+00  1.11562964E+00  4.28446785E+00
  1.35413492E-02  4.17565953E+00  2.92995080E+00  6.80027472E-02 -4.78684321E+00
  1.20816459E+00  8.18155971E-02
Num ILSW                                   I              100
ILSW                                       I   N=         100
           0           1           0           0           2           0
           0           0           0           0           0          -1
           0           0           0           0           0           0
           0           0           0           0           1           0
           1           0           0           0           0           0
           0           0      100000           0          -1           0
           0           0           0           0           0           0
           0           0           0           1           1           0
           0           0           1           0           0           0
           0           0           4          40           0           0
           0           0           0           0           0           0
           0           0           0           0           0           0
           0           0           0           0           0           0
           0           0           0           0           0           0
           0           0           0           0           0           0
           0           0           0           0           0           0
           0           0           0           0
Num RLSW                                   I               40
RLSW                                       R   N=          40
  1.00000000E+00  1.00000000E+00  1.00000000E+00  1.00000000E+00  1.00000000E+00
  0.00000000E+00  0.00000000E+00  1.00000000E+00  0.00000000E+00  0.00000000E+00
  0.00000000E+00  0.00000000E+00  1.00000000E+00  0.00000000E+00  0.00000000E+00
  0.00000000E+00  0.00000000E+00  1.00000000E+00  0.00000000E+00  0.00000000E+00
  0.00000000E+00  0.00000000E+00  1.00000000E+00  0.00000000E+00  0.00000000E+00
  0.00000000E+00  0.00000000E+00  1.00000000E+00  0.00000000E+00  0.00000000E+00
  0.00000000E+00  0.00000000E+00  0.00000000E+00  0.00000000E+00  0.00000000E+00
  0.00000000E+00  0.00000000E+00  0.00000000E+00  1.00000000E+00  1.00000000E+00
MxBond                                     I                4
NBond                                      I   N=          14
           2           1           4           4           4           3
           1           1           1           1           1           1
           1           1
IBond                                      I   N=          56
           6          14           0           0           6           0
           0           0           4           8           9          10
           3           5           6           7           4          11
          12          13           1           2           4           0
           4           0           0           0           3           0
           0           0           3           0           0           0
           3           0           0           0           5           0
           0           0           5           0           0           0
           5           0           0           0           1           0
           0           0
RBond                                      R   N=          56
  1.00000000E+00  1.00000000E+00  0.00000000E+00  0.00000000E+00  2.00000000E+00
  0.00000000E+00  0.00000000E+00  0.00000000E+00  1.00000000E+00  1.00000000E+00
  1.00000000E+00  1.00000000E+00  1.00000000E+00  1.00000000E+00  1.00000000E+00
  1.00000000E+00  1.00000000E+00  1.00000000E+00  1.00000000E+00  1.00000000E+00
  1.00000000E+00  2.00000000E+00  1.00000000E+00  0.00000000E+00  1.00000000E+00
  0.00000000E+00  0.00000000E+00  0.00000000E+00  1.00000000E+00  0.00000000E+00
  0.00000000E+00  0.00000000E+00  1.00000000E+00  0.00000000E+00  0.00000000E+00
  0.00000000E+00  1.00000000E+00  0.00000000E+00  0.00000000E+00  0.00000000E+00
  1.00000000E+00  0.00000000E+00  0.00000000E+00  0.00000000E+00  1.00000000E+00
  0.00000000E+00  0.00000000E+00  0.00000000E+00  1.00000000E+00  0.00000000E+00
  0.00000000E+00  0.00000000E+00  1.00000000E+00  0.00000000E+00  0.00000000E+00
  0.00000000E+00
Virial Ratio                               R      2.003371793440601E+00
SCF Energy                                 R     -3.223259874476837E+02
MP2 Energy                                 R     -3.232302352645439E+02
Total Energy                               R     -3.232302352645439E+02
Post-SCF wavefunction norm                 R      1.595039450267003E+00
RMS Force                                  R      3.572692771592442E-05
RMS Density                                R      1.446710458899008E-09
External E-field                           R   N=          35
  0.00000000E+00  0.00000000E+00  0.00000000E+00  0.00000000E+00  0.00000000E+00
  0.00000000E+00  0.00000000E+00  0.00000000E+00  0.00000000E+00  0.00000000E+00
  0.00000000E+00  0.00000000E+00  0.00000000E+00  0.00000000E+00  0.00000000E+00
  0.00000000E+00  0.00000000E+00  0.00000000E+00  0.00000000E+00  0.00000000E+00
  0.00000000E+00  0.00000000E+00  0.00000000E+00  0.00000000E+00  0.00000000E+00
  0.00000000E+00  0.00000000E+00  0.00000000E+00  0.00000000E+00  0.00000000E+00
  0.00000000E+00  0.00000000E+00  0.00000000E+00  0.00000000E+00  0.00000000E+00
IOpCl                                      I                0
IROHF                                      I                0
Alpha Orbital Energies                     R   N=         106
 -2.06515670E+01 -2.05974314E+01 -1.57203548E+01 -1.14342418E+01 -1.13427064E+01
 -1.12560913E+01 -1.49556252E+00 -1.39714460E+00 -1.33684072E+00 -1.09017560E+00
 -9.48215559E-01 -8.53587778E-01 -8.03898596E-01 -7.85052862E-01 -7.37345385E-01
 -6.99594320E-01 -6.87577105E-01 -6.54338948E-01 -6.19773908E-01 -5.79044394E-01
 -5.73894321E-01 -5.54352823E-01 -5.10925451E-01 -4.86638008E-01  1.38860429E-01
  1.76217654E-01  2.14993913E-01  2.33534951E-01  2.46543076E-01  2.69693112E-01
  2.81107285E-01  2.99826183E-01  3.10843802E-01  3.37415940E-01  3.76341936E-01
  4.12191982E-01  4.59796100E-01  5.26531258E-01  6.78458774E-01  6.93155691E-01
  7.07637875E-01  7.43121646E-01  7.88258927E-01  8.29608767E-01  8.82061600E-01
  8.92927794E-01  9.07372832E-01  9.47283554E-01  9.75301218E-01  1.02007181E+00
  1.03996447E+00  1.05799541E+00  1.06734279E+00  1.08869208E+00  1.11146152E+00
  1.12082157E+00  1.14441460E+00  1.15179181E+00  1.17434926E+00  1.19940795E+00
  1.21315034E+00  1.25756172E+00  1.29264873E+00  1.32649357E+00  1.38134017E+00
  1.51779786E+00  1.55641187E+00  1.58851465E+00  1.65910612E+00  1.69809948E+00
  1.79993730E+00  1.88470346E+00  1.91586017E+00  1.97442179E+00  1.99815475E+00
  2.03021253E+00  2.05135338E+00  2.07260729E+00  2.10494818E+00  2.17338756E+00
  2.20035540E+00  2.26297052E+00  2.27395874E+00  2.30916168E+00  2.37035708E+00
  2.41486428E+00  2.54915117E+00  2.57549193E+00  2.61927209E+00  2.63251279E+00
  2.69244462E+00  2.75313225E+00  2.81588009E+00  2.86267723E+00  2.92643409E+00
  2.97204044E+00  3.08997449E+00  3.19663519E+00  3.30761661E+00  3.43602046E+00
  4.12782294E+00  4.27900425E+00  4.47678426E+00  4.64559299E+00  4.71801933E+00
  4.94388750E+00
Alpha MO coefficients                      R   N=       11236
  9.94627910E-01  2.12078973E-02 -2.84369891E-04 -1.22983696E-03  3.34219172E-04
  4.05207753E-03  3.15809756E-04  5.77888194E-04 -1.71827583E-04 -4.15425302E-03
 -4.07844101E-03 -3.98990740E-03  9.01354115E-06  3.29827253E-05  2.77664644E-05
 -3.04667770E-04  1.87956268E-05  1.65883748E-05 -2.78746460E-05  4.59271472E-06
 -2.05946663E-04  1.14941149E-04 -7.57318600E-05  4.16953972E-08  4.46597444E-05
 -5.34981072E-05 -1.13418194E-05  6.64716746E-05 -2.92714334E-05 -5.30147213E-07
  7.45677037E-06  4.06743213E-05  2.44348337E-06 -3.40258189E-06 -1.41535031E-06
 -3.70069636E-04  1.19554422E-04 -1.42021541E-04  1.87890701E-05  3.35842289E-06
  7.44845408E-06  1.34691447E-05  1.61315847E-05 -1.07085826E-06 -5.01783882E-06
 -1.62294038E-05 -4.61574915E-05  5.79375898E-06  1.69922823E-05 -1.75594485E-05
  8.79452278E-04 -2.93742812E-05 -2.98394749E-04  2.95157582E-04 -7.73548820E-05
 -1.35683795E-06 -3.68870402E-05  2.24313315E-05  9.24549689E-06 -1.23000587E-05
  3.73352132E-06  1.61117503E-05 -3.61193786E-05 -1.02378057E-05  1.76323529E-05
 -2.69111435E-05  1.39265143E-04  2.25107876E-04 -1.31265475E-04  1.97357933E-05
 -1.82154933E-05  7.94499943E-06 -4.58837311E-06 -6.57335900E-06 -6.41912684E-07
 -1.54767310E-06  4.37600671E-04 -1.79826943E-04  2.46438393E-04 -3.68482998E-05
 -3.56172738E-04 -5.14134235E-04 -2.43387477E-04  1.27676236E-04 -7.16942207E-05
 -1.28065355E-04 -5.65550295E-05  8.60980981E-05 -2.36762459E-05  3.23522306E-06
  1.58040030E-05  3.13840035E-05  1.79044532E-05 -2.56037897E-05  1.38399321E-05
 -1.21919823E-05  6.90489893E-06 -5.03686520E-06  2.28195889E-05  9.07634954E-05
  6.25248535E-05 -2.46034966E-04 -2.23511526E-05 -9.85512129E-05  4.46426468E-04
 -2.83876598E-04  2.98036970E-04 -5.72437375E-05  7.33157904E-06  2.67780696E-05
 -1.03253686E-05  2.67970373E-04  9.49452593E-05 -1.11356997E-04  1.96691144E-05
  5.90459950E-05 -8.67454867E-05 -8.33838758E-05 -7.39884614E-05 -8.01595061E-06
  1.37857631E-05  9.94689027E-01  2.09966106E-02  4.77119856E-04  1.43040769E-03
 -4.38272580E-04  4.47491196E-03 -2.25017032E-05 -2.54933918E-05  9.15865212E-06
 -3.89117933E-03 -3.66805578E-03 -4.08642814E-03  9.67506319E-05 -7.31904977E-05
 -1.49006544E-04  1.71247291E-06  2.28320388E-05 -7.28151064E-06  8.57085676E-06
  1.05163341E-05 -4.59708302E-05  7.76691741E-05 -1.15884677E-04 -5.14082209E-05
 -1.19982478E-05 -7.11287896E-06  2.39625137E-06  5.12068432E-06  1.02278705E-06
  9.17456710E-06 -4.56410783E-06 -1.70003312E-05  1.31962669E-05  2.43846873E-05
 -1.26254037E-05  7.43972630E-05  1.03614850E-04 -4.96915488E-05  8.61988833E-05
  1.27913059E-05 -2.49267583E-05 -2.55241441E-05 -6.07234517E-05  8.58846315E-06
  1.09440500E-05  3.58552827E-06  1.44449297E-05 -1.31093396E-05 -1.05697920E-06
  6.10810920E-08 -9.89914658E-05  8.28365051E-05  3.91546788E-05 -2.41987993E-05
  7.77832188E-07  5.77918218E-06  1.27810774E-05 -2.68819397E-06 -1.66395868E-06
  6.60722817E-06 -6.23491967E-06  4.91779854E-04  1.50545648E-05  3.62945790E-05
 -1.28837585E-05 -4.83080117E-04  2.91835053E-04  3.08700701E-04 -1.42117085E-04
 -1.18354786E-04 -7.28344112E-04 -9.62391800E-05 -2.05132473E-04  6.33482037E-05
  2.31572778E-04  1.39963092E-05  2.08041625E-06  1.24546673E-05 -1.41600588E-04
  2.58424631E-05 -7.93114135E-06 -1.25870990E-05 -2.72359313E-05  6.89819338E-06
  3.27893594E-05  1.48988757E-05  3.49521003E-06 -4.24111010E-06 -4.24484579E-05
 -1.53026901E-05  9.23626125E-06 -1.94759159E-05 -8.12438175E-05 -1.24465439E-05
  1.68016625E-06  3.78219552E-06  4.22598811E-04  1.49958656E-04 -1.15324397E-04
 -1.24290073E-06 -4.33275663E-05 -4.10587648E-05 -6.18542599E-05 -3.06359036E-05
  2.24146366E-06 -2.50064157E-06 -1.50475350E-05 -6.69607931E-05 -2.43429764E-05
 -5.28201422E-06 -2.50869444E-06  3.53342775E-04  6.44334624E-05  1.54013471E-04
 -2.38643730E-05 -5.67471840E-05 -2.20880530E-05 -6.41638843E-05  2.27657069E-05
 -1.66179018E-06 -1.64587302E-05  9.94940265E-01  2.53202090E-02  1.93439370E-05
 -1.10778186E-05  2.44918723E-05 -2.54805736E-03  3.21444564E-04 -4.21189087E-04
  7.81666654E-05 -3.49134112E-03 -3.55103879E-03 -3.45917907E-03  8.37276967E-05
 -2.51266717E-05  2.83986910E-05 -3.25285855E-05 -2.87415656E-06  1.46925645E-04
 -2.31481093E-04  5.50911428E-05  1.77205059E-03  2.52431412E-04 -6.21346781E-04
  2.58486935E-04 -6.21807055E-05 -3.60115048E-05 -9.95638689E-05 -3.92485397E-05
  1.48070523E-05 -2.50068475E-05 -9.70294030E-06 -1.70408121E-05 -1.22427504E-05
  6.95559939E-05  7.77117952E-06 -5.40942476E-05  6.32597257E-05  6.00448583E-05
  1.53473584E-05 -1.56160163E-05 -5.66184751E-05 -2.89582117E-05 -5.39862425E-06
  1.70658376E-05  4.08869015E-07 -8.46039350E-06 -1.58051193E-05 -3.01173496E-05
  2.15900864E-05 -3.77210014E-06 -7.14800651E-04 -5.76759124E-05 -4.28884953E-05
  2.97915318E-06 -4.62573199E-05 -5.39627801E-05 -2.12559547E-05  1.10894277E-05
  2.99574764E-06  5.00141043E-06 -8.78488942E-05 -8.22244151E-05  3.59487651E-04
  3.23307099E-04  3.50335038E-04  3.45825536E-04  3.34586963E-04  3.23069469E-04
  7.24832323E-06 -6.38480282E-05  2.73734704E-06  6.49168174E-05 -5.39467036E-06
 -7.09546329E-05  1.17515354E-06  1.82749336E-05 -1.12664540E-04  5.86662114E-04
  1.91379630E-06 -1.52984957E-04  5.40519931E-05 -1.33859961E-03 -1.24760655E-04
  1.68602982E-03 -4.45677152E-04 -8.90477768E-05 -3.98466629E-04  4.66500404E-04
  4.57045782E-04 -8.49761680E-06  1.77877016E-04 -2.53656425E-04  7.22823579E-04
  3.53319251E-05  2.88049739E-04 -8.37658120E-05 -3.69485697E-03  8.38281485E-05
 -1.92677406E-03  4.74804942E-04  3.04659940E-04  5.70967818E-05  4.43688096E-04
  5.90943735E-05  2.47268337E-05  1.08580111E-04 -3.01810893E-05 -2.01493302E-04
  7.02145098E-05 -3.10362263E-05 -2.62388108E-05  6.68839341E-04 -4.19791129E-04
  3.51712050E-04  1.90245109E-04  2.03075679E-05 -3.39817856E-05 -1.04339414E-04
 -3.93766553E-05 -1.51930284E-05 -2.16437161E-05  3.29587323E-03  3.21700136E-04
  9.37410319E-06  6.08813547E-06  2.26287042E-06  2.74650121E-03 -2.23595966E-03
 -2.70305186E-04 -1.81906418E-04 -4.31895484E-04 -2.51176427E-04 -1.05791260E-04
 -5.47784064E-05  7.71402660E-05  2.19967322E-05 -9.17801735E-05 -3.39358632E-04
  1.71621849E-04  4.36228999E-05 -2.61623949E-05  1.21898125E-03 -9.16815582E-04
 -4.89024055E-04  9.68344885E-05 -6.15913955E-05 -3.66884826E-05 -1.00116359E-04
  5.54395618E-05 -7.58756194E-06  3.05104697E-05  9.95900810E-01  2.60649421E-02
 -6.50266541E-04  4.11845208E-04  3.81311053E-05 -5.79987143E-03 -3.90453326E-03
 -2.19916199E-03  1.27377882E-03 -1.26538840E-03 -4.69102816E-04 -2.14593342E-03
 -6.65824123E-05 -1.69482569E-04 -5.09151297E-04 -1.90785759E-04  1.54968261E-04
 -5.46231693E-05  8.77791369E-05 -9.67660605E-05 -3.36378663E-05  3.32537782E-05
  2.27181175E-04 -1.74664889E-04 -1.03284322E-04 -8.50899198E-05 -2.86567385E-04
  2.09047181E-05  5.19991899E-04  3.00583296E-04  2.05147523E-06 -5.68406190E-05
 -3.77984530E-04 -7.87996847E-05  6.75626375E-05  2.89197698E-05  1.59023341E-03
  3.91897120E-04 -6.29503454E-04 -4.83326489E-05 -7.59750207E-05 -7.70869411E-05
 -2.71433455E-04 -4.25993689E-05 -5.33536744E-05 -4.27953441E-05  1.26972741E-05
 -1.28240134E-05  3.92125121E-06 -3.14330919E-05  1.88919338E-05 -7.31036095E-04
 -6.43587918E-04  9.13942722E-05 -4.19722675E-06  3.11210484E-05  1.26876761E-04
 -8.13219529E-05 -6.89296437E-05 -1.22650122E-05 -6.91658817E-05 -2.21811352E-04
 -7.71056460E-06 -5.62900911E-05  7.39374043E-05  1.34742533E-05  4.55694620E-03
 -9.08070222E-04  1.41446365E-03 -3.25756846E-04 -3.33921703E-04 -5.10568711E-04
 -1.04584636E-04  2.89791089E-04 -1.18090093E-04  1.81582903E-04  9.96013526E-01
  2.87940100E-02  1.49246993E-04 -8.34650027E-04  4.09450241E-04 -2.11375421E-02
  6.36850629E-04  1.40778741E-03 -2.08658652E-03 -1.37127574E-03 -1.42342951E-03
 -1.20810224E-03  3.54663728E-05 -7.92774564E-06  4.68276964E-05  3.41786726E-03