
    -----------------------------------------------------------------------
          Psi4: An Open-Source Ab Initio Electronic Structure Package
                               Psi4 1.4a3.dev225 

                         Git: Rev {master} 7105e37 


    D. G. A. Smith, L. A. Burns, A. C. Simmonett, R. M. Parrish,
    M. C. Schieber, R. Galvelis, P. Kraus, H. Kruse, R. Di Remigio,
    A. Alenaizan, A. M. James, S. Lehtola, J. P. Misiewicz, M. Scheurer,
    R. A. Shaw, J. B. Schriber, Y. Xie, Z. L. Glick, D. A. Sirianni,
    J. S. O'Brien, J. M. Waldrop, A. Kumar, E. G. Hohenstein,
    B. P. Pritchard, B. R. Brooks, H. F. Schaefer III, A. Yu. Sokolov,
    K. Patkowski, A. E. DePrince III, U. Bozkaya, R. A. King,
    F. A. Evangelista, J. M. Turney, T. D. Crawford, C. D. Sherrill,
    J. Chem. Phys. 152(18) 184108 (2020). https://doi.org/10.1063/5.0006002

                            Additional Code Authors
    E. T. Seidl, C. L. Janssen, E. F. Valeev, M. L. Leininger,
    J. F. Gonthier, R. M. Richard, H. R. McAlexander, M. Saitow, X. Wang,
    P. Verma, and M. H. Lechner

             Previous Authors, Complete List of Code Contributors,
                       and Citations for Specific Modules
    https://github.com/psi4/psi4/blob/master/codemeta.json
    https://github.com/psi4/psi4/graphs/contributors
    http://psicode.org/psi4manual/master/introduction.html#citing-psifour

    -----------------------------------------------------------------------


    Psi4 started on: Saturday, 20 March 2021 04:51AM

    Process ID: 79898
    Host:       c446-101.stampede2.tacc.utexas.edu
    PSIDATADIR: /home1/07844/xy3866/miniconda3/envs/p4env/share/psi4
    Memory:     500.0 MiB
    Threads:    32
    
  ==> Input File <==

--------------------------------------------------------------------------
#psi4
#
memory 32 gb

molecule  {
0 1
  F       -2.0746710    -0.0124370    -0.0000860
  N        1.3733650    -0.6503060     0.0000540
  C        0.0797100    -1.1194690     0.0000080
  C       -0.7418445     0.0039994    -0.0000298
  C        0.0790740     1.1640700     0.0000030
  C        1.3909070     0.7202580     0.0000560
  H       -0.1632220    -2.1709030    -0.0000010
  H        2.1947510    -1.2389290     0.0000860
  H       -0.2615160     2.1895410    -0.0000100
  H        2.3214050     1.2697350     0.0000920
units angstrom
no_reorient  #important for SAPT in psi4, default
symmetry c1  #important for SAPT in psi4, default
}

set PROPERTIES_ORIGIN ["COM"]
properties('MP2/aug-cc-pvtz', properties = ['dipole'])
--------------------------------------------------------------------------

  Memory set to  29.802 GiB by Python driver.
    SCF Algorithm Type (re)set to DF.

*** tstart() called on c446-101.stampede2.tacc.utexas.edu
*** at Sat Mar 20 04:51:08 2021

   => Loading Basis Set <=

    Name: AUG-CC-PVTZ
    Role: ORBITAL
    Keyword: BASIS
    atoms 1    entry F          line   377 file /home1/07844/xy3866/miniconda3/envs/p4env/share/psi4/basis/aug-cc-pvtz.gbs 
    atoms 2    entry N          line   285 file /home1/07844/xy3866/miniconda3/envs/p4env/share/psi4/basis/aug-cc-pvtz.gbs 
    atoms 3-6  entry C          line   239 file /home1/07844/xy3866/miniconda3/envs/p4env/share/psi4/basis/aug-cc-pvtz.gbs 
    atoms 7-10 entry H          line    40 file /home1/07844/xy3866/miniconda3/envs/p4env/share/psi4/basis/aug-cc-pvtz.gbs 


         ---------------------------------------------------------
                                   SCF
               by Justin Turney, Rob Parrish, Andy Simmonett
                          and Daniel G. A. Smith
                              RHF Reference
                       32 Threads,  30517 MiB Core
         ---------------------------------------------------------

  ==> Geometry <==

    Molecular point group: c1
    Full point group: C1

    Geometry (in Angstrom), charge = 0, multiplicity = 1:

       Center              X                  Y                   Z               Mass       
    ------------   -----------------  -----------------  -----------------  -----------------
         F           -1.999799719975    -0.011655719124    -0.000082907194    18.998403162730
         N            1.448236280025    -0.649524719124     0.000057092806    14.003074004430
         C            0.154581280025    -1.118687719124     0.000011092806    12.000000000000
         C           -0.666973219975     0.004780680876    -0.000026707194    12.000000000000
         C            0.153945280025     1.164851280876     0.000006092806    12.000000000000
         C            1.465778280025     0.721039280876     0.000059092806    12.000000000000
         H           -0.088350719975    -2.170121719124     0.000002092806     1.007825032230
         H            2.269622280025    -1.238147719124     0.000089092806     1.007825032230
         H           -0.186644719975     2.190322280876    -0.000006907194     1.007825032230
         H            2.396276280025     1.270516280876     0.000095092806     1.007825032230

  Running in c1 symmetry.

  Rotational constants: A =      0.29994  B =      0.11386  C =      0.08253 [cm^-1]
  Rotational constants: A =   8992.10181  B =   3413.31008  C =   2474.14854 [MHz]
  Nuclear repulsion =  219.861332433767501

  Charge       = 0
  Multiplicity = 1
  Electrons    = 44
  Nalpha       = 22
  Nbeta        = 22

  ==> Algorithm <==

  SCF Algorithm Type is DF.
  DIIS enabled.
  MOM disabled.
  Fractional occupation disabled.
  Guess Type is SAD.
  Energy threshold   = 1.00e-10
  Density threshold  = 1.00e-10
  Integral threshold = 1.00e-12

  ==> Primary Basis <==

  Basis Set: AUG-CC-PVTZ
    Blend: AUG-CC-PVTZ
    Number of shells: 120
    Number of basis functions: 368
    Number of Cartesian functions: 430
    Spherical Harmonics?: true
    Max angular momentum: 3

   => Loading Basis Set <=

    Name: (AUG-CC-PVTZ AUX)
    Role: JKFIT
    Keyword: DF_BASIS_SCF
    atoms 1    entry F          line   348 file /home1/07844/xy3866/miniconda3/envs/p4env/share/psi4/basis/aug-cc-pvtz-jkfit.gbs 
    atoms 2    entry N          line   224 file /home1/07844/xy3866/miniconda3/envs/p4env/share/psi4/basis/aug-cc-pvtz-jkfit.gbs 
    atoms 3-6  entry C          line   162 file /home1/07844/xy3866/miniconda3/envs/p4env/share/psi4/basis/aug-cc-pvtz-jkfit.gbs 
    atoms 7-10 entry H          line    70 file /home1/07844/xy3866/miniconda3/envs/p4env/share/psi4/basis/aug-cc-pvtz-jkfit.gbs 

  ==> Integral Setup <==

  DFHelper Memory: AOs need 0.862 GiB; user supplied 22.352 GiB. Using in-core AOs.

  ==> MemDFJK: Density-Fitted J/K Matrices <==

    J tasked:                   Yes
    K tasked:                   Yes
    wK tasked:                   No
    OpenMP threads:              32
    Memory [MiB]:             22888
    Algorithm:                 Core
    Schwarz Cutoff:           1E-12
    Mask sparsity (%):       2.1429
    Fitting Condition:        1E-10

   => Auxiliary Basis Set <=

  Basis Set: (AUG-CC-PVTZ AUX)
    Blend: AUG-CC-PVTZ-JKFIT
    Number of shells: 236
    Number of basis functions: 808
    Number of Cartesian functions: 1006
    Spherical Harmonics?: true
    Max angular momentum: 4

  Minimum eigenvalue in the overlap matrix is 5.6164962245E-06.
  Reciprocal condition number of the overlap matrix is 3.8402528093E-07.
    Using symmetric orthogonalization.

  ==> Pre-Iterations <==

  SCF Guess: Superposition of Atomic Densities via on-the-fly atomic UHF (no occupation information).

   -------------------------
    Irrep   Nso     Nmo    
   -------------------------
     A        368     368 
   -------------------------
    Total     368     368
   -------------------------

  ==> Iterations <==

                           Total Energy        Delta E     RMS |[F,P]|

   @DF-RHF iter SAD:  -307.36632679877277   -3.07366e+02   0.00000e+00 
   @DF-RHF iter   1:  -307.62301355217528   -2.56687e-01   1.41189e-03 DIIS
   @DF-RHF iter   2:  -307.74035525941781   -1.17342e-01   6.60650e-04 DIIS
   @DF-RHF iter   3:  -307.76657985712876   -2.62246e-02   1.17634e-04 DIIS
   @DF-RHF iter   4:  -307.76794776569602   -1.36791e-03   4.37171e-05 DIIS
   @DF-RHF iter   5:  -307.76807162030161   -1.23855e-04   1.10360e-05 DIIS
   @DF-RHF iter   6:  -307.76808852353605   -1.69032e-05   3.79338e-06 DIIS
   @DF-RHF iter   7:  -307.76809236629600   -3.84276e-06   2.02162e-06 DIIS
   @DF-RHF iter   8:  -307.76809322994251   -8.63647e-07   7.23825e-07 DIIS
   @DF-RHF iter   9:  -307.76809338993417   -1.59992e-07   1.98543e-07 DIIS
   @DF-RHF iter  10:  -307.76809339732432   -7.39016e-09   7.46763e-08 DIIS
   @DF-RHF iter  11:  -307.76809339806437   -7.40044e-10   2.17094e-08 DIIS
   @DF-RHF iter  12:  -307.76809339816577   -1.01409e-10   6.03137e-09 DIIS
   @DF-RHF iter  13:  -307.76809339817623   -1.04592e-11   3.70629e-09 DIIS
   @DF-RHF iter  14:  -307.76809339817885   -2.61480e-12   1.41804e-09 DIIS
   @DF-RHF iter  15:  -307.76809339817987   -1.02318e-12   5.33101e-10 DIIS
   @DF-RHF iter  16:  -307.76809339817942    4.54747e-13   2.04915e-10 DIIS
   @DF-RHF iter  17:  -307.76809339817930    1.13687e-13   5.14120e-11 DIIS
  Energy and wave function converged.


  ==> Post-Iterations <==

    Orbital Energies [Eh]
    ---------------------

    Doubly Occupied:                                                      

       1A    -26.303385     2A    -15.620632     3A    -11.307792  
       4A    -11.271506     5A    -11.262113     6A    -11.225265  
       7A     -1.620592     8A     -1.301799     9A     -1.053025  
      10A     -0.989494    11A     -0.822087    12A     -0.800733  
      13A     -0.752682    14A     -0.688336    15A     -0.684199  
      16A     -0.657286    17A     -0.598216    18A     -0.584151  
      19A     -0.574416    20A     -0.527403    21A     -0.354134  
      22A     -0.306898  

    Virtual:                                                              

      23A      0.022652    24A      0.034009    25A      0.039723  
      26A      0.053432    27A      0.074817    28A      0.076775  
      29A      0.101486    30A      0.108279    31A      0.111678  
      32A      0.112576    33A      0.113998    34A      0.122787  
      35A      0.124529    36A      0.134988    37A      0.136782  
      38A      0.149629    39A      0.152058    40A      0.157972  
      41A      0.163874    42A      0.187431    43A      0.195834  
      44A      0.207251    45A      0.224837    46A      0.227421  
      47A      0.235263    48A      0.264133    49A      0.266699  
      50A      0.284864    51A      0.294117    52A      0.298915  
      53A      0.305566    54A      0.310407    55A      0.310562  
      56A      0.317155    57A      0.322313    58A      0.325949  
      59A      0.338960    60A      0.342777    61A      0.360538  
      62A      0.364120    63A      0.378343    64A      0.385235  
      65A      0.398416    66A      0.410779    67A      0.411327  
      68A      0.421068    69A      0.440775    70A      0.448862  
      71A      0.449539    72A      0.455779    73A      0.465203  
      74A      0.471926    75A      0.477129    76A      0.487171  
      77A      0.490616    78A      0.494225    79A      0.500460  
      80A      0.517585    81A      0.529011    82A      0.531515  
      83A      0.546100    84A      0.548068    85A      0.567070  
      86A      0.587769    87A      0.616424    88A      0.624475  
      89A      0.627872    90A      0.651753    91A      0.656167  
      92A      0.670559    93A      0.681695    94A      0.694666  
      95A      0.700554    96A      0.708885    97A      0.720460  
      98A      0.734588    99A      0.756313   100A      0.770091  
     101A      0.772361   102A      0.785290   103A      0.811998  
     104A      0.815749   105A      0.858674   106A      0.860398  
     107A      0.865215   108A      0.880720   109A      0.893059  
     110A      0.911615   111A      0.929943   112A      0.931898  
     113A      0.939698   114A      0.950865   115A      0.959756  
     116A      0.961044   117A      0.965009   118A      0.984780  
     119A      0.987637   120A      1.004735   121A      1.021505  
     122A      1.028812   123A      1.031361   124A      1.038704  
     125A      1.052520   126A      1.064053   127A      1.078779  
     128A      1.087304   129A      1.091702   130A      1.109724  
     131A      1.121833   132A      1.145937   133A      1.153195  
     134A      1.156124   135A      1.170653   136A      1.176559  
     137A      1.180979   138A      1.188524   139A      1.204866  
     140A      1.217394   141A      1.223671   142A      1.233769  
     143A      1.265590   144A      1.277636   145A      1.291659  
     146A      1.304296   147A      1.327720   148A      1.332782  
     149A      1.338051   150A      1.346492   151A      1.346820  
     152A      1.385630   153A      1.397930   154A      1.425813  
     155A      1.434523   156A      1.439740   157A      1.460098  
     158A      1.467302   159A      1.469427   160A      1.488163  
     161A      1.500215   162A      1.525277   163A      1.572489  
     164A      1.579010   165A      1.606967   166A      1.614330  
     167A      1.634505   168A      1.636333   169A      1.666621  
     170A      1.669410   171A      1.678818   172A      1.715472  
     173A      1.729509   174A      1.751519   175A      1.761232  
     176A      1.763177   177A      1.802653   178A      1.831522  
     179A      1.851348   180A      1.862376   181A      1.863777  
     182A      1.885700   183A      1.920153   184A      1.941771  
     185A      1.955703   186A      1.965955   187A      1.980648  
     188A      1.994154   189A      2.016487   190A      2.023255  
     191A      2.055346   192A      2.079192   193A      2.079573  
     194A      2.084037   195A      2.096207   196A      2.124413  
     197A      2.125638   198A      2.184665   199A      2.193108  
     200A      2.212356   201A      2.221526   202A      2.319632  
     203A      2.345117   204A      2.371296   205A      2.374788  
     206A      2.386478   207A      2.402388   208A      2.457391  
     209A      2.479974   210A      2.494361   211A      2.515026  
     212A      2.564844   213A      2.610245   214A      2.630543  
     215A      2.689502   216A      2.701058   217A      2.711634  
     218A      2.820213   219A      2.865454   220A      2.876891  
     221A      2.915805   222A      2.965978   223A      2.991040  
     224A      3.036730   225A      3.039444   226A      3.052303  
     227A      3.106735   228A      3.152519   229A      3.158266  
     230A      3.165308   231A      3.198509   232A      3.213363  
     233A      3.247030   234A      3.314273   235A      3.320072  
     236A      3.336417   237A      3.366780   238A      3.378946  
     239A      3.408424   240A      3.427366   241A      3.436754  
     242A      3.452150   243A      3.484593   244A      3.503941  
     245A      3.522717   246A      3.537497   247A      3.559490  
     248A      3.574210   249A      3.611289   250A      3.628662  
     251A      3.651713   252A      3.660245   253A      3.683385  
     254A      3.690239   255A      3.717552   256A      3.724929  
     257A      3.753611   258A      3.769107   259A      3.771227  
     260A      3.817252   261A      3.845273   262A      3.851409  
     263A      3.886235   264A      3.890109   265A      3.925839  
     266A      3.936867   267A      3.945344   268A      4.005313  
     269A      4.025458   270A      4.042643   271A      4.064408  
     272A      4.071090   273A      4.084791   274A      4.132677  
     275A      4.150768   276A      4.152928   277A      4.206337  
     278A      4.227044   279A      4.230045   280A      4.250572  
     281A      4.254666   282A      4.283619   283A      4.306253  
     284A      4.306317   285A      4.326065   286A      4.329657  
     287A      4.377269   288A      4.398704   289A      4.419151  
     290A      4.508553   291A      4.512886   292A      4.531956  
     293A      4.535926   294A      4.582870   295A      4.628774  
     296A      4.646355   297A      4.666091   298A      4.735518  
     299A      4.740497   300A      4.791629   301A      4.835322  
     302A      4.840346   303A      4.868215   304A      4.910653  
     305A      4.927680   306A      4.989968   307A      5.003176  
     308A      5.031388   309A      5.037497   310A      5.072039  
     311A      5.090273   312A      5.121185   313A      5.141915  
     314A      5.192935   315A      5.254684   316A      5.277023  
     317A      5.288301   318A      5.338234   319A      5.392014  
     320A      5.479887   321A      5.487701   322A      5.527699  
     323A      5.537809   324A      5.550172   325A      5.584976  
     326A      5.604164   327A      5.744689   328A      5.757135  
     329A      5.784825   330A      5.834695   331A      5.854727  
     332A      5.951276   333A      5.977025   334A      6.090210  
     335A      6.126772   336A      6.152677   337A      6.226083  
     338A      6.295560   339A      6.371846   340A      6.424378  
     341A      6.461390   342A      6.562878   343A      6.636089  
     344A      6.765137   345A      6.896549   346A      7.030229  
     347A      7.094206   348A      7.392950   349A      7.501561  
     350A      7.768144   351A      8.971909   352A      9.028193  
     353A      9.247687   354A      9.248896   355A      9.378567  
     356A      9.443116   357A      9.473913   358A      9.536444  
     359A      9.553512   360A      9.722106   361A      9.952219  
     362A      9.972181   363A     15.991932   364A     16.219070  
     365A     16.791994   366A     18.258162   367A     18.540591  
     368A     19.209080  

    Final Occupation by Irrep:
              A 
    DOCC [    22 ]

  @DF-RHF Final Energy:  -307.76809339817930

   => Energetics <=

    Nuclear Repulsion Energy =            219.8613324337675010
    One-Electron Energy =                -856.6465608833658507
    Two-Electron Energy =                 329.0171350514190181
    Total Energy =                       -307.7680933981793032

Computation Completed

*** tstop() called on c446-101.stampede2.tacc.utexas.edu at Sat Mar 20 04:51:19 2021
Module time:
	user time   =     171.96 seconds =       2.87 minutes
	system time =      15.59 seconds =       0.26 minutes
	total time  =         11 seconds =       0.18 minutes
Total time:
	user time   =     171.96 seconds =       2.87 minutes
	system time =      15.59 seconds =       0.26 minutes
	total time  =         11 seconds =       0.18 minutes
   => Loading Basis Set <=

    Name: (AUG-CC-PVTZ AUX)
    Role: RIFIT
    Keyword: DF_BASIS_MP2
    atoms 1    entry F          line   322 file /home1/07844/xy3866/miniconda3/envs/p4env/share/psi4/basis/aug-cc-pvtz-ri.gbs 
    atoms 2    entry N          line   206 file /home1/07844/xy3866/miniconda3/envs/p4env/share/psi4/basis/aug-cc-pvtz-ri.gbs 
    atoms 3-6  entry C          line   148 file /home1/07844/xy3866/miniconda3/envs/p4env/share/psi4/basis/aug-cc-pvtz-ri.gbs 
    atoms 7-10 entry H          line    30 file /home1/07844/xy3866/miniconda3/envs/p4env/share/psi4/basis/aug-cc-pvtz-ri.gbs 


*** tstart() called on c446-101.stampede2.tacc.utexas.edu
*** at Sat Mar 20 04:51:20 2021


  //>>>>>>>>>>>>>>>>>>>>>>>>>>>>>>>>>>>//
  //               DFMP2               //
  //<<<<<<<<<<<<<<<<<<<<<<<<<<<<<<<<<<<//

	 --------------------------------------------------------
	                          DF-MP2                         
	      2nd-Order Density-Fitted Moller-Plesset Theory     
	              RMP2 Wavefunction,  32 Threads             
	                                                         
	        Rob Parrish, Justin Turney, Andy Simmonett,      
	           Ed Hohenstein, and C. David Sherrill          
	 --------------------------------------------------------

   => Auxiliary Basis Set <=

  Basis Set: (AUG-CC-PVTZ AUX)
    Blend: AUG-CC-PVTZ-RI
    Number of shells: 224
    Number of basis functions: 820
    Number of Cartesian functions: 1036
    Spherical Harmonics?: true
    Max angular momentum: 4

	 --------------------------------------------------------
	                 NBF =   368, NAUX =   820
	 --------------------------------------------------------
	   CLASS    FOCC     OCC    AOCC    AVIR     VIR    FVIR
	   PAIRS       0      22      22     346     346       0
	 --------------------------------------------------------

  DFHelper Memory: AOs need 0.867 GiB; user supplied 22.352 GiB. Using in-core AOs.


         ------------------------------------------------------------
                                     CPHF                           
                                  Rob Parrish                       
         ------------------------------------------------------------

  ==> Geometry <==

    Molecular point group: c1
    Full point group: C1

    Geometry (in Angstrom), charge = 0, multiplicity = 1:

       Center              X                  Y                   Z               Mass       
    ------------   -----------------  -----------------  -----------------  -----------------
         F           -1.999799719975    -0.011655719124    -0.000082907194    18.998403162730
         N            1.448236280025    -0.649524719124     0.000057092806    14.003074004430
         C            0.154581280025    -1.118687719124     0.000011092806    12.000000000000
         C           -0.666973219975     0.004780680876    -0.000026707194    12.000000000000
         C            0.153945280025     1.164851280876     0.000006092806    12.000000000000
         C            1.465778280025     0.721039280876     0.000059092806    12.000000000000
         H           -0.088350719975    -2.170121719124     0.000002092806     1.007825032230
         H            2.269622280025    -1.238147719124     0.000089092806     1.007825032230
         H           -0.186644719975     2.190322280876    -0.000006907194     1.007825032230
         H            2.396276280025     1.270516280876     0.000095092806     1.007825032230

  Nuclear repulsion =  219.861332433767501
  Reference energy  = -307.768093398179303

  ==> Basis Set <==

  Basis Set: AUG-CC-PVTZ
    Blend: AUG-CC-PVTZ
    Number of shells: 120
    Number of basis functions: 368
    Number of Cartesian functions: 430
    Spherical Harmonics?: true
    Max angular momentum: 3

  ==> CGRSolver (by Rob Parrish) <==

   Number of roots    =         1
   Preconditioning    =    JACOBI
   Convergence cutoff =     1E-06
   Maximum iterations =       100

  ==> CPHFRHamiltonian (by Rob Parrish) <== 

  ==> MemDFJK: Density-Fitted J/K Matrices <==

    J tasked:                   Yes
    K tasked:                   Yes
    wK tasked:                   No
    OpenMP threads:              32
    Memory [MiB]:             22888
    Algorithm:                 Core
    Schwarz Cutoff:           1E-12
    Mask sparsity (%):       1.5330
    Fitting Condition:        1E-10

   => Auxiliary Basis Set <=

  Basis Set: (AUG-CC-PVTZ AUX)
    Blend: AUG-CC-PVTZ-JKFIT
    Number of shells: 236
    Number of basis functions: 808
    Number of Cartesian functions: 1006
    Spherical Harmonics?: true
    Max angular momentum: 4

  ==> CPHF Iterations <==

  => Iterations <=

             Iter  Converged  Remaining    Residual
  CGR           1          0          1   1.003E-01
  CGR           2          0          1   3.198E-02
  CGR           3          0          1   1.718E-02
  CGR           4          0          1   4.997E-03
  CGR           5          0          1   1.237E-03
  CGR           6          0          1   4.787E-04
  CGR           7          0          1   1.714E-04
  CGR           8          0          1   6.013E-05
  CGR           9          0          1   2.509E-05
  CGR          10          0          1   1.236E-05
  CGR          11          0          1   2.925E-06
  CGR          12          1          0   6.423E-07

    CGRSolver converged.

	-----------------------------------------------------------
	 ==================> DF-MP2 Energies <==================== 
	-----------------------------------------------------------
	 Reference Energy          =    -307.7680933981793032 [Eh]
	 Singles Energy            =      -0.0000000000000000 [Eh]
	 Same-Spin Energy          =      -0.3024524219252850 [Eh]
	 Opposite-Spin Energy      =      -0.9113592762838685 [Eh]
	 Correlation Energy        =      -1.2138116982091534 [Eh]
	 Total Energy              =    -308.9819050963884592 [Eh]
	-----------------------------------------------------------
	 ================> DF-SCS-MP2 Energies <================== 
	-----------------------------------------------------------
	 SCS Same-Spin Scale       =       0.3333333333333333 [-]
	 SCS Opposite-Spin Scale   =       1.2000000000000000 [-]
	 SCS Same-Spin Energy      =      -0.1008174739750950 [Eh]
	 SCS Opposite-Spin Energy  =      -1.0936311315406422 [Eh]
	 SCS Correlation Energy    =      -1.1944486055157371 [Eh]
	 SCS Total Energy          =    -308.9625420036950345 [Eh]
	-----------------------------------------------------------



Properties will be evaluated at  -0.000000,  -0.000000,  -0.000000 [a0]

Properties computed using the MP2 density matrix

  Nuclear Dipole Moment: [e a0]
     X:     5.9987      Y:     0.0622      Z:     0.0002

  Electronic Dipole Moment: [e a0]
     X:    -4.8320      Y:    -0.4535      Z:    -0.0002

  Dipole Moment: [e a0]
     X:     1.1666      Y:    -0.3913      Z:     0.0000     Total:     1.2305

  Dipole Moment: [D]
     X:     2.9652      Y:    -0.9946      Z:     0.0001     Total:     3.1276


*** tstop() called on c446-101.stampede2.tacc.utexas.edu at Sat Mar 20 04:52:19 2021
Module time:
	user time   =     369.24 seconds =       6.15 minutes
	system time =      15.18 seconds =       0.25 minutes
	total time  =         59 seconds =       0.98 minutes
Total time:
	user time   =     542.58 seconds =       9.04 minutes
	system time =      30.89 seconds =       0.51 minutes
	total time  =         71 seconds =       1.18 minutes

    Psi4 stopped on: Saturday, 20 March 2021 04:52AM
    Psi4 wall time for execution: 0:01:11.67

*** Psi4 exiting successfully. Buy a developer a beer!
