
    -----------------------------------------------------------------------
          Psi4: An Open-Source Ab Initio Electronic Structure Package
                               Psi4 1.4a3.dev225 

                         Git: Rev {master} 7105e37 


    D. G. A. Smith, L. A. Burns, A. C. Simmonett, R. M. Parrish,
    M. C. Schieber, R. Galvelis, P. Kraus, H. Kruse, R. Di Remigio,
    A. Alenaizan, A. M. James, S. Lehtola, J. P. Misiewicz, M. Scheurer,
    R. A. Shaw, J. B. Schriber, Y. Xie, Z. L. Glick, D. A. Sirianni,
    J. S. O'Brien, J. M. Waldrop, A. Kumar, E. G. Hohenstein,
    B. P. Pritchard, B. R. Brooks, H. F. Schaefer III, A. Yu. Sokolov,
    K. Patkowski, A. E. DePrince III, U. Bozkaya, R. A. King,
    F. A. Evangelista, J. M. Turney, T. D. Crawford, C. D. Sherrill,
    J. Chem. Phys. 152(18) 184108 (2020). https://doi.org/10.1063/5.0006002

                            Additional Code Authors
    E. T. Seidl, C. L. Janssen, E. F. Valeev, M. L. Leininger,
    J. F. Gonthier, R. M. Richard, H. R. McAlexander, M. Saitow, X. Wang,
    P. Verma, and M. H. Lechner

             Previous Authors, Complete List of Code Contributors,
                       and Citations for Specific Modules
    https://github.com/psi4/psi4/blob/master/codemeta.json
    https://github.com/psi4/psi4/graphs/contributors
    http://psicode.org/psi4manual/master/introduction.html#citing-psifour

    -----------------------------------------------------------------------


    Psi4 started on: Friday, 19 March 2021 01:44PM

    Process ID: 18216
    Host:       c444-063.stampede2.tacc.utexas.edu
    PSIDATADIR: /home1/07844/xy3866/miniconda3/envs/p4env/share/psi4
    Memory:     500.0 MiB
    Threads:    32
    
  ==> Input File <==

--------------------------------------------------------------------------
#psi4
#
memory 32 gb

molecule  {
0 1
  F       -1.0804830    -0.7645010    -0.1361910
  F       -0.0639430     1.0151310    -0.8578250
  F        1.0890430    -0.7229080    -0.2486870
  F        0.0553850     0.4722830     1.2427050
  C        0.0162378     0.0114832     0.0020441
units angstrom
no_reorient  #important for SAPT in psi4, default
symmetry c1  #important for SAPT in psi4, default
}

set PROPERTIES_ORIGIN ["COM"]
properties('MP2/aug-cc-pvtz', properties = ['dipole'])
--------------------------------------------------------------------------

  Memory set to  29.802 GiB by Python driver.
    SCF Algorithm Type (re)set to DF.

*** tstart() called on c444-063.stampede2.tacc.utexas.edu
*** at Fri Mar 19 13:45:00 2021

   => Loading Basis Set <=

    Name: AUG-CC-PVTZ
    Role: ORBITAL
    Keyword: BASIS
    atoms 1-4 entry F          line   377 file /home1/07844/xy3866/miniconda3/envs/p4env/share/psi4/basis/aug-cc-pvtz.gbs 
    atoms 5   entry C          line   239 file /home1/07844/xy3866/miniconda3/envs/p4env/share/psi4/basis/aug-cc-pvtz.gbs 


         ---------------------------------------------------------
                                   SCF
               by Justin Turney, Rob Parrish, Andy Simmonett
                          and Daniel G. A. Smith
                              RHF Reference
                       32 Threads,  30517 MiB Core
         ---------------------------------------------------------

  ==> Geometry <==

    Molecular point group: c1
    Full point group: C1

    Geometry (in Angstrom), charge = 0, multiplicity = 1:

       Center              X                  Y                   Z               Mass       
    ------------   -----------------  -----------------  -----------------  -----------------
         F           -1.082697837997    -0.766068084108    -0.136470192956    18.998403162730
         F           -0.066157837997     1.013563915892    -0.858104192956    18.998403162730
         F            1.086828162003    -0.724475084108    -0.248966192956    18.998403162730
         F            0.053170162003     0.470715915892     1.242425807044    18.998403162730
         C            0.014022962003     0.009916115892     0.001764907044    12.000000000000

  Running in c1 symmetry.

  Rotational constants: A =      0.18794  B =      0.18794  C =      0.18793 [cm^-1]
  Rotational constants: A =   5634.42642  B =   5634.16189  C =   5634.12346 [MHz]
  Nuclear repulsion =  204.265666610536272

  Charge       = 0
  Multiplicity = 1
  Electrons    = 42
  Nalpha       = 21
  Nbeta        = 21

  ==> Algorithm <==

  SCF Algorithm Type is DF.
  DIIS enabled.
  MOM disabled.
  Fractional occupation disabled.
  Guess Type is SAD.
  Energy threshold   = 1.00e-10
  Density threshold  = 1.00e-10
  Integral threshold = 1.00e-12

  ==> Primary Basis <==

  Basis Set: AUG-CC-PVTZ
    Blend: AUG-CC-PVTZ
    Number of shells: 70
    Number of basis functions: 230
    Number of Cartesian functions: 275
    Spherical Harmonics?: true
    Max angular momentum: 3

   => Loading Basis Set <=

    Name: (AUG-CC-PVTZ AUX)
    Role: JKFIT
    Keyword: DF_BASIS_SCF
    atoms 1-4 entry F          line   348 file /home1/07844/xy3866/miniconda3/envs/p4env/share/psi4/basis/aug-cc-pvtz-jkfit.gbs 
    atoms 5   entry C          line   162 file /home1/07844/xy3866/miniconda3/envs/p4env/share/psi4/basis/aug-cc-pvtz-jkfit.gbs 

  ==> Integral Setup <==

  DFHelper Memory: AOs need 0.230 GiB; user supplied 22.352 GiB. Using in-core AOs.

  ==> MemDFJK: Density-Fitted J/K Matrices <==

    J tasked:                   Yes
    K tasked:                   Yes
    wK tasked:                   No
    OpenMP threads:              32
    Memory [MiB]:             22888
    Algorithm:                 Core
    Schwarz Cutoff:           1E-12
    Mask sparsity (%):       0.0000
    Fitting Condition:        1E-10

   => Auxiliary Basis Set <=

  Basis Set: (AUG-CC-PVTZ AUX)
    Blend: AUG-CC-PVTZ-JKFIT
    Number of shells: 150
    Number of basis functions: 520
    Number of Cartesian functions: 655
    Spherical Harmonics?: true
    Max angular momentum: 4

  Minimum eigenvalue in the overlap matrix is 2.5957286654E-04.
  Reciprocal condition number of the overlap matrix is 3.0255596453E-05.
    Using symmetric orthogonalization.

  ==> Pre-Iterations <==

  SCF Guess: Superposition of Atomic Densities via on-the-fly atomic UHF (no occupation information).

   -------------------------
    Irrep   Nso     Nmo    
   -------------------------
     A        230     230 
   -------------------------
    Total     230     230
   -------------------------

  ==> Iterations <==

                           Total Energy        Delta E     RMS |[F,P]|

   @DF-RHF iter SAD:  -435.17669955360435   -4.35177e+02   0.00000e+00 
   @DF-RHF iter   1:  -435.67649018472343   -4.99791e-01   2.77061e-03 DIIS
   @DF-RHF iter   2:  -435.76898528964114   -9.24951e-02   1.82344e-03 DIIS
   @DF-RHF iter   3:  -435.81602271963845   -4.70374e-02   1.61765e-04 DIIS
   @DF-RHF iter   4:  -435.81712742298447   -1.10470e-03   4.80326e-05 DIIS
   @DF-RHF iter   5:  -435.81721342117299   -8.59982e-05   1.13036e-05 DIIS
   @DF-RHF iter   6:  -435.81721897988677   -5.55871e-06   2.18876e-06 DIIS
   @DF-RHF iter   7:  -435.81721906615439   -8.62676e-08   7.26798e-07 DIIS
   @DF-RHF iter   8:  -435.81721907622551   -1.00711e-08   7.93140e-08 DIIS
   @DF-RHF iter   9:  -435.81721907647250   -2.46985e-10   1.29180e-08 DIIS
   @DF-RHF iter  10:  -435.81721907648102   -8.52651e-12   4.32113e-09 DIIS
   @DF-RHF iter  11:  -435.81721907648222   -1.19371e-12   9.25591e-10 DIIS
   @DF-RHF iter  12:  -435.81721907648165    5.68434e-13   1.26459e-10 DIIS
   @DF-RHF iter  13:  -435.81721907648193   -2.84217e-13   3.06298e-11 DIIS
  Energy and wave function converged.


  ==> Post-Iterations <==

    Orbital Energies [Eh]
    ---------------------

    Doubly Occupied:                                                      

       1A    -26.381656     2A    -26.381655     3A    -26.381621  
       4A    -26.369661     5A    -11.616333     6A     -1.798800  
       7A     -1.682927     8A     -1.682925     9A     -1.667015  
      10A     -1.011019    11A     -0.887332    12A     -0.887331  
      13A     -0.882656    14A     -0.763343    15A     -0.763342  
      16A     -0.714370    17A     -0.714369    18A     -0.706598  
      19A     -0.689542    20A     -0.683887    21A     -0.683885  

    Virtual:                                                              

      22A      0.066717    23A      0.076319    24A      0.076319  
      25A      0.076500    26A      0.183345    27A      0.183345  
      28A      0.188741    29A      0.189425    30A      0.189425  
      31A      0.263485    32A      0.276221    33A      0.276281  
      34A      0.276281    35A      0.290229    36A      0.290946  
      37A      0.290946    38A      0.307571    39A      0.346974  
      40A      0.359049    41A      0.359053    42A      0.420980  
      43A      0.422301    44A      0.422301    45A      0.464022  
      46A      0.476098    47A      0.476677    48A      0.476679  
      49A      0.526764    50A      0.526764    51A      0.690503  
      52A      0.693887    53A      0.693889    54A      0.715491  
      55A      0.880757    56A      0.880757    57A      0.970966  
      58A      0.973672    59A      0.973673    60A      1.024692  
      61A      1.027030    62A      1.027033    63A      1.065372  
      64A      1.065373    65A      1.066087    66A      1.072570  
      67A      1.074365    68A      1.074365    69A      1.160115  
      70A      1.160115    71A      1.183697    72A      1.214225  
      73A      1.214227    74A      1.218029    75A      1.229172  
      76A      1.229174    77A      1.239675    78A      1.316449  
      79A      1.316450    80A      1.335611    81A      1.580058  
      82A      1.580060    83A      1.581995    84A      1.621159  
      85A      1.621166    86A      1.626655    87A      1.626655  
      88A      1.642402    89A      1.733523    90A      1.736062  
      91A      1.736063    92A      1.747241    93A      1.764045  
      94A      1.764053    95A      1.823002    96A      1.823006  
      97A      1.833849    98A      2.139300    99A      2.484584  
     100A      2.572511   101A      2.577899   102A      2.577904  
     103A      2.654923   104A      2.656518   105A      2.656518  
     106A      2.790036   107A      2.790037   108A      2.829852  
     109A      2.836495   110A      2.836497   111A      2.860228  
     112A      2.867518   113A      2.867518   114A      2.882925  
     115A      2.895683   116A      2.895685   117A      3.066000  
     118A      3.066001   119A      3.066747   120A      3.067069  
     121A      3.102378   122A      3.111412   123A      3.111416  
     124A      3.124064   125A      3.124066   126A      3.266814  
     127A      3.335604   128A      3.335610   129A      3.338951  
     130A      3.351561   131A      3.351566   132A      3.389048  
     133A      3.389051   134A      3.407973   135A      3.419558  
     136A      3.542486   137A      3.543611   138A      3.543614  
     139A      3.683551   140A      3.683554   141A      3.697073  
     142A      3.831159   143A      3.831160   144A      3.874338  
     145A      3.885823   146A      3.885834   147A      3.893792  
     148A      4.063561   149A      4.085536   150A      4.085539  
     151A      4.185696   152A      4.192595   153A      4.192606  
     154A      4.445348   155A      4.445348   156A      4.531892  
     157A      4.590411   158A      4.590422   159A      4.612276  
     160A      4.780756   161A      4.780757   162A      4.796255  
     163A      4.797702   164A      4.797707   165A      4.805276  
     166A      5.625661   167A      5.625665   168A      5.700449  
     169A      5.700450   170A      5.703592   171A      5.787140  
     172A      5.787148   173A      5.825008   174A      6.368351  
     175A      7.222098   176A      7.269064   177A      7.269069  
     178A      8.847042   179A      8.847045   180A      8.855326  
     181A      8.888140   182A      8.912851   183A      8.912858  
     184A      8.919627   185A      8.926242   186A      8.926247  
     187A      8.951760   188A      9.196412   189A      9.200219  
     190A      9.200221   191A      9.221021   192A      9.221022  
     193A      9.234784   194A      9.238016   195A      9.238020  
     196A      9.281742   197A      9.288991   198A      9.288997  
     199A      9.343283   200A      9.344606   201A      9.347166  
     202A      9.347169   203A      9.361008   204A      9.361008  
     205A      9.406391   206A      9.408499   207A      9.408499  
     208A      9.509228   209A      9.516851   210A      9.516855  
     211A      9.577560   212A      9.603407   213A      9.603419  
     214A      9.609742   215A      9.619952   216A      9.619961  
     217A      9.626202   218A      9.755803   219A      9.755805  
     220A      9.760152   221A      9.871990   222A      9.871991  
     223A      9.874080   224A     10.161971   225A     10.161972  
     226A     13.877135   227A     15.484945   228A     15.529278  
     229A     15.529325   230A     17.950761  

    Final Occupation by Irrep:
              A 
    DOCC [    21 ]

  @DF-RHF Final Energy:  -435.81721907648193

   => Energetics <=

    Nuclear Repulsion Energy =            204.2656666105362717
    One-Electron Energy =               -1013.4652320710421236
    Two-Electron Energy =                 373.3823463840238901
    Total Energy =                       -435.8172190764819334

Computation Completed

*** tstop() called on c444-063.stampede2.tacc.utexas.edu at Fri Mar 19 13:45:05 2021
Module time:
	user time   =      72.46 seconds =       1.21 minutes
	system time =       7.84 seconds =       0.13 minutes
	total time  =          5 seconds =       0.08 minutes
Total time:
	user time   =      72.46 seconds =       1.21 minutes
	system time =       7.84 seconds =       0.13 minutes
	total time  =          5 seconds =       0.08 minutes
   => Loading Basis Set <=

    Name: (AUG-CC-PVTZ AUX)
    Role: RIFIT
    Keyword: DF_BASIS_MP2
    atoms 1-4 entry F          line   322 file /home1/07844/xy3866/miniconda3/envs/p4env/share/psi4/basis/aug-cc-pvtz-ri.gbs 
    atoms 5   entry C          line   148 file /home1/07844/xy3866/miniconda3/envs/p4env/share/psi4/basis/aug-cc-pvtz-ri.gbs 


*** tstart() called on c444-063.stampede2.tacc.utexas.edu
*** at Fri Mar 19 13:45:06 2021


  //>>>>>>>>>>>>>>>>>>>>>>>>>>>>>>>>>>>//
  //               DFMP2               //
  //<<<<<<<<<<<<<<<<<<<<<<<<<<<<<<<<<<<//

	 --------------------------------------------------------
	                          DF-MP2                         
	      2nd-Order Density-Fitted Moller-Plesset Theory     
	              RMP2 Wavefunction,  32 Threads             
	                                                         
	        Rob Parrish, Justin Turney, Andy Simmonett,      
	           Ed Hohenstein, and C. David Sherrill          
	 --------------------------------------------------------

   => Auxiliary Basis Set <=

  Basis Set: (AUG-CC-PVTZ AUX)
    Blend: AUG-CC-PVTZ-RI
    Number of shells: 140
    Number of basis functions: 530
    Number of Cartesian functions: 680
    Spherical Harmonics?: true
    Max angular momentum: 4

	 --------------------------------------------------------
	                 NBF =   230, NAUX =   530
	 --------------------------------------------------------
	   CLASS    FOCC     OCC    AOCC    AVIR     VIR    FVIR
	   PAIRS       0      21      21     209     209       0
	 --------------------------------------------------------

  DFHelper Memory: AOs need 0.230 GiB; user supplied 22.352 GiB. Using in-core AOs.


         ------------------------------------------------------------
                                     CPHF                           
                                  Rob Parrish                       
         ------------------------------------------------------------

  ==> Geometry <==

    Molecular point group: c1
    Full point group: C1

    Geometry (in Angstrom), charge = 0, multiplicity = 1:

       Center              X                  Y                   Z               Mass       
    ------------   -----------------  -----------------  -----------------  -----------------
         F           -1.082697837997    -0.766068084108    -0.136470192956    18.998403162730
         F           -0.066157837997     1.013563915892    -0.858104192956    18.998403162730
         F            1.086828162003    -0.724475084108    -0.248966192956    18.998403162730
         F            0.053170162003     0.470715915892     1.242425807044    18.998403162730
         C            0.014022962003     0.009916115892     0.001764907044    12.000000000000

  Nuclear repulsion =  204.265666610536272
  Reference energy  = -435.817219076481933

  ==> Basis Set <==

  Basis Set: AUG-CC-PVTZ
    Blend: AUG-CC-PVTZ
    Number of shells: 70
    Number of basis functions: 230
    Number of Cartesian functions: 275
    Spherical Harmonics?: true
    Max angular momentum: 3

  ==> CGRSolver (by Rob Parrish) <==

   Number of roots    =         1
   Preconditioning    =    JACOBI
   Convergence cutoff =     1E-06
   Maximum iterations =       100

  ==> CPHFRHamiltonian (by Rob Parrish) <== 

  ==> MemDFJK: Density-Fitted J/K Matrices <==

    J tasked:                   Yes
    K tasked:                   Yes
    wK tasked:                   No
    OpenMP threads:              32
    Memory [MiB]:             22888
    Algorithm:                 Core
    Schwarz Cutoff:           1E-12
    Mask sparsity (%):       0.0000
    Fitting Condition:        1E-10

   => Auxiliary Basis Set <=

  Basis Set: (AUG-CC-PVTZ AUX)
    Blend: AUG-CC-PVTZ-JKFIT
    Number of shells: 150
    Number of basis functions: 520
    Number of Cartesian functions: 655
    Spherical Harmonics?: true
    Max angular momentum: 4

  ==> CPHF Iterations <==

  => Iterations <=

             Iter  Converged  Remaining    Residual
  CGR           1          0          1   8.117E-02
  CGR           2          0          1   1.815E-02
  CGR           3          0          1   5.784E-03
  CGR           4          0          1   1.097E-03
  CGR           5          0          1   1.732E-04
  CGR           6          0          1   4.878E-05
  CGR           7          0          1   7.313E-06
  CGR           8          0          1   1.397E-06
  CGR           9          1          0   2.452E-07

    CGRSolver converged.

	-----------------------------------------------------------
	 ==================> DF-MP2 Energies <==================== 
	-----------------------------------------------------------
	 Reference Energy          =    -435.8172190764819334 [Eh]
	 Singles Energy            =      -0.0000000000000000 [Eh]
	 Same-Spin Energy          =      -0.3303847092510026 [Eh]
	 Opposite-Spin Energy      =      -0.9262244552161658 [Eh]
	 Correlation Energy        =      -1.2566091644671684 [Eh]
	 Total Energy              =    -437.0738282409491262 [Eh]
	-----------------------------------------------------------
	 ================> DF-SCS-MP2 Energies <================== 
	-----------------------------------------------------------
	 SCS Same-Spin Scale       =       0.3333333333333333 [-]
	 SCS Opposite-Spin Scale   =       1.2000000000000000 [-]
	 SCS Same-Spin Energy      =      -0.1101282364170009 [Eh]
	 SCS Opposite-Spin Energy  =      -1.1114693462593990 [Eh]
	 SCS Correlation Energy    =      -1.2215975826763998 [Eh]
	 SCS Total Energy          =    -437.0388166591583285 [Eh]
	-----------------------------------------------------------



Properties will be evaluated at   0.000000,   0.000000,  -0.000000 [a0]

Properties computed using the MP2 density matrix

  Nuclear Dipole Moment: [e a0]
     X:     0.0084      Y:     0.0059      Z:     0.0011

  Electronic Dipole Moment: [e a0]
     X:     0.0539      Y:     0.0381      Z:     0.0068

  Dipole Moment: [e a0]
     X:     0.0622      Y:     0.0440      Z:     0.0078     Total:     0.0766

  Dipole Moment: [D]
     X:     0.1582      Y:     0.1119      Z:     0.0199     Total:     0.1948


*** tstop() called on c444-063.stampede2.tacc.utexas.edu at Fri Mar 19 13:45:35 2021
Module time:
	user time   =     148.41 seconds =       2.47 minutes
	system time =       9.72 seconds =       0.16 minutes
	total time  =         29 seconds =       0.48 minutes
Total time:
	user time   =     223.57 seconds =       3.73 minutes
	system time =      17.85 seconds =       0.30 minutes
	total time  =         35 seconds =       0.58 minutes

    Psi4 stopped on: Friday, 19 March 2021 01:45PM
    Psi4 wall time for execution: 0:00:35.88

*** Psi4 exiting successfully. Buy a developer a beer!
