
    -----------------------------------------------------------------------
          Psi4: An Open-Source Ab Initio Electronic Structure Package
                               Psi4 1.3.2 release

                         Git: Rev {HEAD} ecbda83 


    R. M. Parrish, L. A. Burns, D. G. A. Smith, A. C. Simmonett,
    A. E. DePrince III, E. G. Hohenstein, U. Bozkaya, A. Yu. Sokolov,
    R. Di Remigio, R. M. Richard, J. F. Gonthier, A. M. James,
    H. R. McAlexander, A. Kumar, M. Saitow, X. Wang, B. P. Pritchard,
    P. Verma, H. F. Schaefer III, K. Patkowski, R. A. King, E. F. Valeev,
    F. A. Evangelista, J. M. Turney, T. D. Crawford, and C. D. Sherrill,
    J. Chem. Theory Comput. 13(7) pp 3185--3197 (2017).
    (doi: 10.1021/acs.jctc.7b00174)


                         Additional Contributions by
    P. Kraus, H. Kruse, M. H. Lechner, M. C. Schieber, R. A. Shaw,
    A. Alenaizan, R. Galvelis, Z. L. Glick, S. Lehtola, and J. P. Misiewicz

    -----------------------------------------------------------------------


    Psi4 started on: Tuesday, 03 November 2020 11:25PM

    Process ID: 27150
    Host:       node74.bme.utexas.edu
    PSIDATADIR: /home/xy3866/psi4conda/share/psi4
    Memory:     500.0 MiB
    Threads:    8
    
  ==> Input File <==

--------------------------------------------------------------------------
#psi4
#
memory 32 gb

molecule  {
0 1
  F        0.1055314    -0.4306068     1.2542216
  F       -0.9758850     0.8758910    -0.2239650
  F       -0.1919820    -1.0798600    -0.7527970
  F        1.1706460     0.5522470    -0.3071110
  C        0.0000030     0.0000010     0.0000050
units angstrom
no_reorient  #important for SAPT in psi4, default
symmetry c1  #important for SAPT in psi4, default
}

set PROPERTIES_ORIGIN ["COM"]
properties('MP2/aug-cc-pvtz', properties = ['dipole'])
--------------------------------------------------------------------------

  Memory set to  29.802 GiB by Python driver.
    SCF Algorithm Type (re)set to DF.

*** tstart() called on node74.bme.utexas.edu
*** at Tue Nov  3 23:25:40 2020

   => Loading Basis Set <=

    Name: AUG-CC-PVTZ
    Role: ORBITAL
    Keyword: BASIS
    atoms 1-4 entry F          line   373 file /home/xy3866/psi4conda/share/psi4/basis/aug-cc-pvtz.gbs 
    atoms 5   entry C          line   235 file /home/xy3866/psi4conda/share/psi4/basis/aug-cc-pvtz.gbs 


         ---------------------------------------------------------
                                   SCF
               by Justin Turney, Rob Parrish, Andy Simmonett
                          and Daniel G. A. Smith
                              RHF Reference
                        8 Threads,  30517 MiB Core
         ---------------------------------------------------------

  ==> Geometry <==

    Molecular point group: c1
    Full point group: C1

    Geometry (in Angstrom), charge = 0, multiplicity = 1:

       Center              X                  Y                   Z               Mass       
    ------------   -----------------  -----------------  -----------------  -----------------
         F            0.082146058906    -0.412831603742     1.260622851575    18.998403162730
         F           -0.999270341094     0.893666196258    -0.217563748425    18.998403162730
         F           -0.215367341094    -1.062084803742    -0.746395748425    18.998403162730
         F            1.147260658906     0.570022196258    -0.300709748425    18.998403162730
         C           -0.023382341094     0.017776196258     0.006406251575    12.000000000000

  Running in c1 symmetry.

  Rotational constants: A =      0.19579  B =      0.18819  C =      0.18101 [cm^-1]
  Rotational constants: A =   5869.56675  B =   5641.90079  C =   5426.53797 [MHz]
  Nuclear repulsion =  204.410199578064322

  Charge       = 0
  Multiplicity = 1
  Electrons    = 42
  Nalpha       = 21
  Nbeta        = 21

  ==> Algorithm <==

  SCF Algorithm Type is DF.
  DIIS enabled.
  MOM disabled.
  Fractional occupation disabled.
  Guess Type is SAD.
  Energy threshold   = 1.00e-10
  Density threshold  = 1.00e-10
  Integral threshold = 0.00e+00

  ==> Primary Basis <==

  Basis Set: AUG-CC-PVTZ
    Blend: AUG-CC-PVTZ
    Number of shells: 70
    Number of basis function: 230
    Number of Cartesian functions: 275
    Spherical Harmonics?: true
    Max angular momentum: 3

   => Loading Basis Set <=

    Name: (AUG-CC-PVTZ AUX)
    Role: JKFIT
    Keyword: DF_BASIS_SCF
    atoms 1-4 entry F          line   348 file /home/xy3866/psi4conda/share/psi4/basis/aug-cc-pvtz-jkfit.gbs 
    atoms 5   entry C          line   162 file /home/xy3866/psi4conda/share/psi4/basis/aug-cc-pvtz-jkfit.gbs 

  ==> Pre-Iterations <==

   -------------------------------------------------------
    Irrep   Nso     Nmo     Nalpha   Nbeta   Ndocc  Nsocc
   -------------------------------------------------------
     A        230     230       0       0       0       0
   -------------------------------------------------------
    Total     230     230      21      21      21       0
   -------------------------------------------------------

  ==> Integral Setup <==

  DFHelper Memory: AOs need 0.221 GiB; user supplied 22.352 GiB. Using in-core AOs.

  ==> MemDFJK: Density-Fitted J/K Matrices <==

    J tasked:                   Yes
    K tasked:                   Yes
    wK tasked:                   No
    OpenMP threads:               8
    Memory [MiB]:             22888
    Algorithm:                 Core
    Schwarz Cutoff:           1E-12
    Mask sparsity (%):       0.0000
    Fitting Condition:        1E-10

   => Auxiliary Basis Set <=

  Basis Set: (AUG-CC-PVTZ AUX)
    Blend: AUG-CC-PVTZ-JKFIT
    Number of shells: 150
    Number of basis function: 520
    Number of Cartesian functions: 655
    Spherical Harmonics?: true
    Max angular momentum: 4

  Minimum eigenvalue in the overlap matrix is 2.5837486249E-04.
  Using Symmetric Orthogonalization.

  SCF Guess: Superposition of Atomic Densities via on-the-fly atomic UHF.

  ==> Iterations <==

                           Total Energy        Delta E     RMS |[F,P]|

   @DF-RHF iter SAD:  -435.18141088570570   -4.35181e+02   0.00000e+00 
   @DF-RHF iter   1:  -435.67375686414528   -4.92346e-01   2.77423e-03 DIIS
   @DF-RHF iter   2:  -435.76652128858672   -9.27644e-02   1.82596e-03 DIIS
   @DF-RHF iter   3:  -435.81366870160161   -4.71474e-02   1.61795e-04 DIIS
   @DF-RHF iter   4:  -435.81477606474203   -1.10736e-03   4.76898e-05 DIIS
   @DF-RHF iter   5:  -435.81486145956137   -8.53948e-05   1.11120e-05 DIIS
   @DF-RHF iter   6:  -435.81486701152755   -5.55197e-06   1.36135e-06 DIIS
   @DF-RHF iter   7:  -435.81486706281748   -5.12899e-08   5.69920e-07 DIIS
   @DF-RHF iter   8:  -435.81486706791787   -5.10039e-09   9.10408e-08 DIIS
   @DF-RHF iter   9:  -435.81486706817782   -2.59945e-10   1.33564e-08 DIIS
   @DF-RHF iter  10:  -435.81486706818509   -7.27596e-12   4.08096e-09 DIIS
   @DF-RHF iter  11:  -435.81486706818635   -1.25056e-12   1.00496e-09 DIIS
   @DF-RHF iter  12:  -435.81486706818691   -5.68434e-13   2.09574e-10 DIIS
   @DF-RHF iter  13:  -435.81486706818674    1.70530e-13   9.71269e-11 DIIS
  Energy and wave function converged.


  ==> Post-Iterations <==

    Orbital Energies [Eh]
    ---------------------

    Doubly Occupied:                                                      

       1A    -26.387541     2A    -26.377854     3A    -26.373819  
       4A    -26.373796     5A    -11.616138     6A     -1.798651  
       7A     -1.687294     8A     -1.674851     9A     -1.670494  
      10A     -1.010734    11A     -0.890981    12A     -0.884570  
      13A     -0.880899    14A     -0.768202    15A     -0.758552  
      16A     -0.717890    17A     -0.709951    18A     -0.708804  
      19A     -0.687176    20A     -0.685927    21A     -0.681143  

    Virtual:                                                              

      22A      0.066533    23A      0.076054    24A      0.076246  
      25A      0.076884    26A      0.182517    27A      0.182973  
      28A      0.188762    29A      0.189334    30A      0.190928  
      31A      0.263008    32A      0.274140    33A      0.276704  
      34A      0.277412    35A      0.289420    36A      0.290648  
      37A      0.291356    38A      0.306462    39A      0.343085  
      40A      0.349796    41A      0.369454    42A      0.418601  
      43A      0.422850    44A      0.425963    45A      0.460205  
      46A      0.471694    47A      0.473896    48A      0.491870  
      49A      0.522487    50A      0.530863    51A      0.681858  
      52A      0.695331    53A      0.699571    54A      0.718650  
      55A      0.878737    56A      0.886917    57A      0.962795  
      58A      0.968922    59A      0.982690    60A      1.006320  
      61A      1.030256    62A      1.040197    63A      1.065590  
      64A      1.066188    65A      1.067803    66A      1.070618  
      67A      1.074957    68A      1.078865    69A      1.147231  
      70A      1.170240    71A      1.187136    72A      1.202949  
      73A      1.217005    74A      1.221565    75A      1.224784  
      76A      1.234102    77A      1.236517    78A      1.303880  
      79A      1.327931    80A      1.338705    81A      1.556567  
      82A      1.572119    83A      1.595384    84A      1.607411  
      85A      1.613553    86A      1.616442    87A      1.638388  
      88A      1.642956    89A      1.714199    90A      1.732440  
      91A      1.735112    92A      1.755831    93A      1.756965  
      94A      1.795734    95A      1.812713    96A      1.824522  
      97A      1.870531    98A      2.146689    99A      2.484170  
     100A      2.546993   101A      2.575250   102A      2.581030  
     103A      2.655321   104A      2.662582   105A      2.670564  
     106A      2.783971   107A      2.797859   108A      2.829195  
     109A      2.832482   110A      2.846727   111A      2.858322  
     112A      2.872949   113A      2.873363   114A      2.883811  
     115A      2.893982   116A      2.901126   117A      3.049603  
     118A      3.057149   119A      3.058338   120A      3.078977  
     121A      3.091728   122A      3.101272   123A      3.113522  
     124A      3.134954   125A      3.149049   126A      3.271042  
     127A      3.289274   128A      3.339170   129A      3.341338  
     130A      3.366285   131A      3.377587   132A      3.389301  
     133A      3.397621   134A      3.404321   135A      3.413144  
     136A      3.534787   137A      3.545767   138A      3.550476  
     139A      3.672172   140A      3.680550   141A      3.690894  
     142A      3.814934   143A      3.844282   144A      3.848316  
     145A      3.880799   146A      3.892930   147A      3.936540  
     148A      4.066043   149A      4.076921   150A      4.081998  
     151A      4.155444   152A      4.157827   153A      4.243483  
     154A      4.442374   155A      4.459861   156A      4.531209  
     157A      4.550366   158A      4.604145   159A      4.619658  
     160A      4.767950   161A      4.769106   162A      4.785471  
     163A      4.795058   164A      4.808362   165A      4.821220  
     166A      5.556180   167A      5.648760   168A      5.669461  
     169A      5.746095   170A      5.759025   171A      5.771723  
     172A      5.831801   173A      5.850733   174A      6.382897  
     175A      7.228582   176A      7.257619   177A      7.272291  
     178A      8.839490   179A      8.852522   180A      8.857415  
     181A      8.858872   182A      8.899737   183A      8.916668  
     184A      8.924926   185A      8.942766   186A      8.945140  
     187A      8.959640   188A      9.168721   189A      9.192997  
     190A      9.204821   191A      9.207052   192A      9.222644  
     193A      9.224749   194A      9.234448   195A      9.252861  
     196A      9.280893   197A      9.285093   198A      9.312948  
     199A      9.322796   200A      9.329415   201A      9.345845  
     202A      9.357694   203A      9.362153   204A      9.369515  
     205A      9.401310   206A      9.406285   207A      9.423436  
     208A      9.486289   209A      9.495745   210A      9.535933  
     211A      9.571961   212A      9.573385   213A      9.578311  
     214A      9.615627   215A      9.622358   216A      9.633681  
     217A      9.672629   218A      9.754200   219A      9.771950  
     220A      9.796570   221A      9.874259   222A      9.877404  
     223A      9.884676   224A     10.132699   225A     10.176295  
     226A     13.880229   227A     15.282259   228A     15.535331  
     229A     15.706887   230A     17.987708  

    Final Occupation by Irrep:
              A 
    DOCC [    21 ]

  @DF-RHF Final Energy:  -435.81486706818674

   => Energetics <=

    Nuclear Repulsion Energy =            204.4101995780643222
    One-Electron Energy =               -1013.7595985306453485
    Two-Electron Energy =                 373.5345318843943119
    Total Energy =                       -435.8148670681867429

Computation Completed

*** tstop() called on node74.bme.utexas.edu at Tue Nov  3 23:25:42 2020
Module time:
	user time   =      15.07 seconds =       0.25 minutes
	system time =       0.78 seconds =       0.01 minutes
	total time  =          2 seconds =       0.03 minutes
Total time:
	user time   =      15.07 seconds =       0.25 minutes
	system time =       0.78 seconds =       0.01 minutes
	total time  =          2 seconds =       0.03 minutes
   => Loading Basis Set <=

    Name: (AUG-CC-PVTZ AUX)
    Role: RIFIT
    Keyword: DF_BASIS_MP2
    atoms 1-4 entry F          line   322 file /home/xy3866/psi4conda/share/psi4/basis/aug-cc-pvtz-ri.gbs 
    atoms 5   entry C          line   148 file /home/xy3866/psi4conda/share/psi4/basis/aug-cc-pvtz-ri.gbs 


*** tstart() called on node74.bme.utexas.edu
*** at Tue Nov  3 23:25:43 2020


  //>>>>>>>>>>>>>>>>>>>>>>>>>>>>>>>>>>>//
  //               DFMP2               //
  //<<<<<<<<<<<<<<<<<<<<<<<<<<<<<<<<<<<//

	 --------------------------------------------------------
	                          DF-MP2                         
	      2nd-Order Density-Fitted Moller-Plesset Theory     
	              RMP2 Wavefunction,   8 Threads             
	                                                         
	        Rob Parrish, Justin Turney, Andy Simmonett,      
	           Ed Hohenstein, and C. David Sherrill          
	 --------------------------------------------------------

   => Auxiliary Basis Set <=

  Basis Set: (AUG-CC-PVTZ AUX)
    Blend: AUG-CC-PVTZ-RI
    Number of shells: 140
    Number of basis function: 530
    Number of Cartesian functions: 680
    Spherical Harmonics?: true
    Max angular momentum: 4

	 --------------------------------------------------------
	                 NBF =   230, NAUX =   530
	 --------------------------------------------------------
	   CLASS    FOCC     OCC    AOCC    AVIR     VIR    FVIR
	   PAIRS       0      21      21     209     209       0
	 --------------------------------------------------------

  DFHelper Memory: AOs need 0.221 GiB; user supplied 22.352 GiB. Using in-core AOs.


         ------------------------------------------------------------
                                     CPHF                           
                                  Rob Parrish                       
         ------------------------------------------------------------

  ==> Geometry <==

    Molecular point group: c1
    Full point group: C1

    Geometry (in Angstrom), charge = 0, multiplicity = 1:

       Center              X                  Y                   Z               Mass       
    ------------   -----------------  -----------------  -----------------  -----------------
         F            0.082146058906    -0.412831603742     1.260622851575    18.998403162730
         F           -0.999270341094     0.893666196258    -0.217563748425    18.998403162730
         F           -0.215367341094    -1.062084803742    -0.746395748425    18.998403162730
         F            1.147260658906     0.570022196258    -0.300709748425    18.998403162730
         C           -0.023382341094     0.017776196258     0.006406251575    12.000000000000

  Nuclear repulsion =  204.410199578064322
  Reference energy  = -435.814867068186743

  ==> Basis Set <==

  Basis Set: AUG-CC-PVTZ
    Blend: AUG-CC-PVTZ
    Number of shells: 70
    Number of basis function: 230
    Number of Cartesian functions: 275
    Spherical Harmonics?: true
    Max angular momentum: 3

  ==> CGRSolver (by Rob Parrish) <==

   Number of roots    =         1
   Preconditioning    =    JACOBI
   Convergence cutoff =     1E-06
   Maximum iterations =       100

  ==> CPHFRHamiltonian (by Rob Parrish) <== 

  ==> MemDFJK: Density-Fitted J/K Matrices <==

    J tasked:                   Yes
    K tasked:                   Yes
    wK tasked:                   No
    OpenMP threads:               8
    Memory [MiB]:             22888
    Algorithm:                 Core
    Schwarz Cutoff:           1E-12
    Mask sparsity (%):       0.0000
    Fitting Condition:        1E-10

   => Auxiliary Basis Set <=

  Basis Set: (AUG-CC-PVTZ AUX)
    Blend: AUG-CC-PVTZ-JKFIT
    Number of shells: 150
    Number of basis function: 520
    Number of Cartesian functions: 655
    Spherical Harmonics?: true
    Max angular momentum: 4

  ==> CPHF Iterations <==

  => Iterations <=

             Iter  Converged  Remaining    Residual
  CGR           1          0          1   8.125E-02
  CGR           2          0          1   1.817E-02
  CGR           3          0          1   5.795E-03
  CGR           4          0          1   1.101E-03
  CGR           5          0          1   1.339E-04
  CGR           6          0          1   4.255E-05
  CGR           7          0          1   1.081E-05
  CGR           8          0          1   2.813E-06
  CGR           9          1          0   4.384E-07

    CGRSolver converged.

	-----------------------------------------------------------
	 ==================> DF-MP2 Energies <==================== 
	-----------------------------------------------------------
	 Reference Energy          =    -435.8148670681867429 [Eh]
	 Singles Energy            =      -0.0000000000000000 [Eh]
	 Same-Spin Energy          =      -0.3304236656172891 [Eh]
	 Opposite-Spin Energy      =      -0.9262771568538025 [Eh]
	 Correlation Energy        =      -1.2567008224710916 [Eh]
	 Total Energy              =    -437.0715678906578319 [Eh]
	-----------------------------------------------------------
	 ================> DF-SCS-MP2 Energies <================== 
	-----------------------------------------------------------
	 SCS Same-Spin Scale       =       0.3333333333333333 [-]
	 SCS Opposite-Spin Scale   =       1.2000000000000000 [-]
	 SCS Same-Spin Energy      =      -0.1101412218724297 [Eh]
	 SCS Opposite-Spin Energy  =      -1.1115325882245630 [Eh]
	 SCS Correlation Energy    =      -1.2216738100969926 [Eh]
	 SCS Total Energy          =    -437.0365408782837449 [Eh]
	-----------------------------------------------------------



Properties will be evaluated at  -0.000000,   0.000000,   0.000000 [a0]

Properties computed using the MP2 density matrix

  Nuclear Dipole Moment: [e a0]
     X:    -0.0139      Y:     0.0106      Z:     0.0038

  Electronic Dipole Moment: [e a0]
     X:    -0.0480      Y:     0.0368      Z:     0.0117

  Dipole Moment: [e a0]
     X:    -0.0619      Y:     0.0474      Z:     0.0155     Total:     0.0795

  Dipole Moment: [D]
     X:    -0.1573      Y:     0.1206      Z:     0.0394     Total:     0.2021


*** tstop() called on node74.bme.utexas.edu at Tue Nov  3 23:25:49 2020
Module time:
	user time   =      38.93 seconds =       0.65 minutes
	system time =       1.45 seconds =       0.02 minutes
	total time  =          6 seconds =       0.10 minutes
Total time:
	user time   =      54.44 seconds =       0.91 minutes
	system time =       2.25 seconds =       0.04 minutes
	total time  =          9 seconds =       0.15 minutes

    Psi4 stopped on: Tuesday, 03 November 2020 11:25PM
    Psi4 wall time for execution: 0:00:08.91

*** Psi4 exiting successfully. Buy a developer a beer!
