
    -----------------------------------------------------------------------
          Psi4: An Open-Source Ab Initio Electronic Structure Package
                               Psi4 1.4a2.dev612 

                         Git: Rev {master} 58d3bc0 


    D. G. A. Smith, L. A. Burns, A. C. Simmonett, R. M. Parrish,
    M. C. Schieber, R. Galvelis, P. Kraus, H. Kruse, R. Di Remigio,
    A. Alenaizan, A. M. James, S. Lehtola, J. P. Misiewicz, M. Scheurer,
    R. A. Shaw, J. B. Schriber, Y. Xie, Z. L. Glick, D. A. Sirianni,
    J. S. O'Brien, J. M. Waldrop, A. Kumar, E. G. Hohenstein,
    B. P. Pritchard, B. R. Brooks, H. F. Schaefer III, A. Yu. Sokolov,
    K. Patkowski, A. E. DePrince III, U. Bozkaya, R. A. King,
    F. A. Evangelista, J. M. Turney, T. D. Crawford, C. D. Sherrill,
    J. Chem. Phys. 152(18) 184108 (2020). https://doi.org/10.1063/5.0006002

                            Additional Code Authors
    E. T. Seidl, C. L. Janssen, E. F. Valeev, M. L. Leininger,
    J. F. Gonthier, R. M. Richard, H. R. McAlexander, M. Saitow, X. Wang,
    P. Verma, and M. H. Lechner

             Previous Authors, Complete List of Code Contributors,
                       and Citations for Specific Modules
    https://github.com/psi4/psi4/blob/master/codemeta.json
    https://github.com/psi4/psi4/graphs/contributors
    http://psicode.org/psi4manual/master/introduction.html#citing-psifour

    -----------------------------------------------------------------------


    Psi4 started on: Wednesday, 03 February 2021 11:45AM

    Process ID: 84136
    Host:       node59.bme.utexas.edu
    PSIDATADIR: /home/xy3866/.conda/envs/test-rdkit/share/psi4
    Memory:     500.0 MiB
    Threads:    8
    
  ==> Input File <==

--------------------------------------------------------------------------
#psi4
#
memory 32 gb

molecule  {
0 1
  N        0.9996340     1.7721850     0.3204360
  N       -1.4856460     0.8456190    -0.6184330
  C        0.4210120    -0.5622280    -0.0768460
  C        1.3959190     0.4607190     0.0923330
  C       -1.0315900    -0.2881510    -0.0320430
  C        0.8423560    -1.8835050    -0.2823050
  C        2.7530010     0.0889630     0.1086070
  C        2.1912380    -2.2332610    -0.2798300
  C        3.1442100    -1.2359490    -0.0781950
  C       -1.9191752    -1.2392883     0.5093897
  C       -3.2772020    -0.9437210     0.5761060
  C        1.9752090     2.8430570     0.2492220
  C       -2.8095250     1.0776250    -0.6159580
  C       -3.7438200     0.2120800    -0.0497060
  H        0.0898220    -2.6479260    -0.4670950
  H        3.5165330     0.8472870     0.2502520
  H        0.1131400     1.9772450    -0.1334260
  H        2.4918570    -3.2637390    -0.4496120
  H        4.2036760    -1.4834020    -0.0698800
  H       -1.5082140    -2.0621420     1.1053590
  H       -3.9675240    -1.6332930     1.0562410
  H        2.5505250     2.8512150    -0.6889090
  H        2.6804910     2.7762290     1.0829750
  H        1.4421210     3.7916170     0.3400310
  H       -3.1269050     2.0013970    -1.0972120
  H       -4.8034740     0.4484120    -0.0854480
units angstrom
no_reorient  #important for SAPT in psi4, default
symmetry c1  #important for SAPT in psi4, default
}

set PROPERTIES_ORIGIN ["COM"]
properties('MP2/aug-cc-pvtz', properties = ['dipole'])
--------------------------------------------------------------------------

  Memory set to  29.802 GiB by Python driver.
    SCF Algorithm Type (re)set to DF.

*** tstart() called on node59.bme.utexas.edu
*** at Wed Feb  3 11:45:18 2021

   => Loading Basis Set <=

    Name: AUG-CC-PVTZ
    Role: ORBITAL
    Keyword: BASIS
    atoms 1-2   entry N          line   285 file /home/xy3866/.conda/envs/test-rdkit/share/psi4/basis/aug-cc-pvtz.gbs 
    atoms 3-14  entry C          line   239 file /home/xy3866/.conda/envs/test-rdkit/share/psi4/basis/aug-cc-pvtz.gbs 
    atoms 15-26 entry H          line    40 file /home/xy3866/.conda/envs/test-rdkit/share/psi4/basis/aug-cc-pvtz.gbs 


         ---------------------------------------------------------
                                   SCF
               by Justin Turney, Rob Parrish, Andy Simmonett
                          and Daniel G. A. Smith
                              RHF Reference
                        8 Threads,  30517 MiB Core
         ---------------------------------------------------------

  ==> Geometry <==

    Molecular point group: c1
    Full point group: C1

    Geometry (in Angstrom), charge = 0, multiplicity = 1:

       Center              X                  Y                   Z               Mass       
    ------------   -----------------  -----------------  -----------------  -----------------
         N            1.020248922657     1.794757050831     0.330613634382    14.003074004430
         N           -1.465031077343     0.868191050831    -0.608255365618    14.003074004430
         C            0.441626922657    -0.539655949169    -0.066668365618    12.000000000000
         C            1.416533922657     0.483291050831     0.102510634382    12.000000000000
         C           -1.010975077343    -0.265578949169    -0.021865365618    12.000000000000
         C            0.862970922657    -1.860932949169    -0.272127365618    12.000000000000
         C            2.773615922657     0.111535050831     0.118784634382    12.000000000000
         C            2.211852922657    -2.210688949169    -0.269652365618    12.000000000000
         C            3.164824922657    -1.213376949169    -0.068017365618    12.000000000000
         C           -1.898560277343    -1.216716249169     0.519567334382    12.000000000000
         C           -3.256587077343    -0.921148949169     0.586283634382    12.000000000000
         C            1.995823922657     2.865629050831     0.259399634382    12.000000000000
         C           -2.788910077343     1.100197050831    -0.605780365618    12.000000000000
         C           -3.723205077343     0.234652050831    -0.039528365618    12.000000000000
         H            0.110436922657    -2.625353949169    -0.456917365618     1.007825032230
         H            3.537147922657     0.869859050831     0.260429634382     1.007825032230
         H            0.133754922657     1.999817050831    -0.123248365618     1.007825032230
         H            2.512471922657    -3.241166949169    -0.439434365618     1.007825032230
         H            4.224290922657    -1.460829949169    -0.059702365618     1.007825032230
         H           -1.487599077343    -2.039569949169     1.115536634382     1.007825032230
         H           -3.946909077343    -1.610720949169     1.066418634382     1.007825032230
         H            2.571139922657     2.873787050831    -0.678731365618     1.007825032230
         H            2.701105922657     2.798801050831     1.093152634382     1.007825032230
         H            1.462735922657     3.814189050831     0.350208634382     1.007825032230
         H           -3.106290077343     2.023969050831    -1.087034365618     1.007825032230
         H           -4.782859077343     0.470984050831    -0.075270365618     1.007825032230

  Running in c1 symmetry.

  Rotational constants: A =      0.04050  B =      0.01733  C =      0.01263 [cm^-1]
  Rotational constants: A =   1214.18174  B =    519.50011  C =    378.73893 [MHz]
  Nuclear repulsion =  818.479043943251895

  Charge       = 0
  Multiplicity = 1
  Electrons    = 98
  Nalpha       = 49
  Nbeta        = 49

  ==> Algorithm <==

  SCF Algorithm Type is DF.
  DIIS enabled.
  MOM disabled.
  Fractional occupation disabled.
  Guess Type is SAD.
  Energy threshold   = 1.00e-10
  Density threshold  = 1.00e-10
  Integral threshold = 0.00e+00

  ==> Primary Basis <==

  Basis Set: AUG-CC-PVTZ
    Blend: AUG-CC-PVTZ
    Number of shells: 304
    Number of basis function: 920
    Number of Cartesian functions: 1070
    Spherical Harmonics?: true
    Max angular momentum: 3

   => Loading Basis Set <=

    Name: (AUG-CC-PVTZ AUX)
    Role: JKFIT
    Keyword: DF_BASIS_SCF
    atoms 1-2   entry N          line   224 file /home/xy3866/.conda/envs/test-rdkit/share/psi4/basis/aug-cc-pvtz-jkfit.gbs 
    atoms 3-14  entry C          line   162 file /home/xy3866/.conda/envs/test-rdkit/share/psi4/basis/aug-cc-pvtz-jkfit.gbs 
    atoms 15-26 entry H          line    70 file /home/xy3866/.conda/envs/test-rdkit/share/psi4/basis/aug-cc-pvtz-jkfit.gbs 

  ==> Integral Setup <==

  DFHelper Memory: AOs need 11.611 GiB; user supplied 22.352 GiB. Using in-core AOs.

  ==> MemDFJK: Density-Fitted J/K Matrices <==

    J tasked:                   Yes
    K tasked:                   Yes
    wK tasked:                   No
    OpenMP threads:               8
    Memory [MiB]:             22888
    Algorithm:                 Core
    Schwarz Cutoff:           1E-12
    Mask sparsity (%):      10.2833
    Fitting Condition:        1E-10

   => Auxiliary Basis Set <=

  Basis Set: (AUG-CC-PVTZ AUX)
    Blend: AUG-CC-PVTZ-JKFIT
    Number of shells: 588
    Number of basis function: 2008
    Number of Cartesian functions: 2494
    Spherical Harmonics?: true
    Max angular momentum: 4

  Minimum eigenvalue in the overlap matrix is 4.4259465468E-07.
  Reciprocal condition number of the overlap matrix is 2.0883439304E-08.
    Using symmetric orthogonalization.

  ==> Pre-Iterations <==

  SCF Guess: Superposition of Atomic Densities via on-the-fly atomic UHF (no occupation information).

   -------------------------
    Irrep   Nso     Nmo    
   -------------------------
     A        920     920 
   -------------------------
    Total     920     920
   -------------------------

  ==> Iterations <==

                           Total Energy        Delta E     RMS |[F,P]|

   @DF-RHF iter SAD:  -570.04817096181796   -5.70048e+02   0.00000e+00 
   @DF-RHF iter   1:  -570.12711303120875   -7.89421e-02   8.25257e-04 DIIS
   @DF-RHF iter   2:  -570.43076746673376   -3.03654e-01   3.48987e-04 DIIS
   @DF-RHF iter   3:  -570.48270726274802   -5.19398e-02   7.41308e-05 DIIS
   @DF-RHF iter   4:  -570.48659162810543   -3.88437e-03   1.81519e-05 DIIS
   @DF-RHF iter   5:  -570.48678615416020   -1.94526e-04   7.10650e-06 DIIS
   @DF-RHF iter   6:  -570.48681997234291   -3.38182e-05   2.54910e-06 DIIS
   @DF-RHF iter   7:  -570.48682645726751   -6.48492e-06   1.09474e-06 DIIS
   @DF-RHF iter   8:  -570.48682772503798   -1.26777e-06   3.90504e-07 DIIS
   @DF-RHF iter   9:  -570.48682798460482   -2.59567e-07   1.55778e-07 DIIS
   @DF-RHF iter  10:  -570.48682802786243   -4.32576e-08   9.11386e-08 DIIS
   @DF-RHF iter  11:  -570.48682804450209   -1.66397e-08   4.00318e-08 DIIS
   @DF-RHF iter  12:  -570.48682804852547   -4.02338e-09   1.84958e-08 DIIS
   @DF-RHF iter  13:  -570.48682804909947   -5.74005e-10   5.54236e-09 DIIS
   @DF-RHF iter  14:  -570.48682804914813   -4.86580e-11   2.14855e-09 DIIS
   @DF-RHF iter  15:  -570.48682804915939   -1.12550e-11   9.24761e-10 DIIS
   @DF-RHF iter  16:  -570.48682804915950   -1.13687e-13   4.01405e-10 DIIS
   @DF-RHF iter  17:  -570.48682804916132   -1.81899e-12   1.87510e-10 DIIS
   @DF-RHF iter  18:  -570.48682804916120    1.13687e-13   8.15296e-11 DIIS
  Energy and wave function converged.


  ==> Post-Iterations <==

    Orbital Energies [Eh]
    ---------------------

    Doubly Occupied:                                                      

       1A    -15.568373     2A    -15.550583     3A    -11.291027  
       4A    -11.281788     5A    -11.279127     6A    -11.263547  
       7A    -11.248791     8A    -11.242064     9A    -11.242009  
      10A    -11.237369    11A    -11.236118    12A    -11.233190  
      13A    -11.220002    14A    -11.218368    15A     -1.263232  
      16A     -1.228944    17A     -1.132494    18A     -1.088929  
      19A     -1.060477    20A     -0.998813    21A     -0.992674  
      22A     -0.915716    23A     -0.870956    24A     -0.859677  
      25A     -0.805403    26A     -0.795992    27A     -0.720531  
      28A     -0.697478    29A     -0.670497    30A     -0.657218  
      31A     -0.649359    32A     -0.620700    33A     -0.608809  
      34A     -0.602096    35A     -0.589581    36A     -0.576288  
      37A     -0.567860    38A     -0.549451    39A     -0.532680  
      40A     -0.528222    41A     -0.503286    42A     -0.497881  
      43A     -0.489429    44A     -0.422954    45A     -0.416111  
      46A     -0.388644    47A     -0.368258    48A     -0.316901  
      49A     -0.279181  

    Virtual:                                                              

      50A      0.025605    51A      0.030499    52A      0.030933  
      53A      0.039203    54A      0.040153    55A      0.047374  
      56A      0.050042    57A      0.054065    58A      0.057606  
      59A      0.066318    60A      0.069215    61A      0.076455  
      62A      0.078217    63A      0.086771    64A      0.091448  
      65A      0.095835    66A      0.097712    67A      0.105609  
      68A      0.107380    69A      0.112025    70A      0.114702  
      71A      0.116945    72A      0.118412    73A      0.121739  
      74A      0.123527    75A      0.126142    76A      0.128097  
      77A      0.129977    78A      0.132207    79A      0.136294  
      80A      0.141473    81A      0.144244    82A      0.149276  
      83A      0.151660    84A      0.153918    85A      0.156010  
      86A      0.157370    87A      0.159035    88A      0.162523  
      89A      0.165401    90A      0.169909    91A      0.171794  
      92A      0.181907    93A      0.182435    94A      0.185876  
      95A      0.189948    96A      0.195699    97A      0.197836  
      98A      0.203452    99A      0.212854   100A      0.217864  
     101A      0.220783   102A      0.224707   103A      0.231640  
     104A      0.235437   105A      0.242505   106A      0.247433  
     107A      0.249748   108A      0.253904   109A      0.256229  
     110A      0.260388   111A      0.263081   112A      0.272507  
     113A      0.273997   114A      0.279105   115A      0.279845  
     116A      0.282176   117A      0.288517   118A      0.291965  
     119A      0.294925   120A      0.298390   121A      0.302906  
     122A      0.308670   123A      0.312815   124A      0.314245  
     125A      0.316505   126A      0.317998   127A      0.323205  
     128A      0.326514   129A      0.331139   130A      0.332702  
     131A      0.336713   132A      0.340164   133A      0.343462  
     134A      0.346742   135A      0.348047   136A      0.354181  
     137A      0.356939   138A      0.362193   139A      0.365582  
     140A      0.367892   141A      0.371295   142A      0.371729  
     143A      0.379875   144A      0.385463   145A      0.389423  
     146A      0.394869   147A      0.400501   148A      0.406293  
     149A      0.411037   150A      0.415030   151A      0.418000  
     152A      0.421070   153A      0.426447   154A      0.427479  
     155A      0.431317   156A      0.434821   157A      0.438356  
     158A      0.445995   159A      0.449456   160A      0.450804  
     161A      0.453306   162A      0.458022   163A      0.460741  
     164A      0.463566   165A      0.470764   166A      0.473188  
     167A      0.475751   168A      0.480298   169A      0.480918  
     170A      0.484305   171A      0.487248   172A      0.489760  
     173A      0.490981   174A      0.493704   175A      0.496104  
     176A      0.502067   177A      0.503972   178A      0.506908  
     179A      0.509587   180A      0.513943   181A      0.514252  
     182A      0.517711   183A      0.520291   184A      0.523246  
     185A      0.526592   186A      0.528213   187A      0.535612  
     188A      0.537352   189A      0.540063   190A      0.543162  
     191A      0.544612   192A      0.548357   193A      0.551951  
     194A      0.554334   195A      0.558655   196A      0.559621  
     197A      0.563872   198A      0.566610   199A      0.571844  
     200A      0.574632   201A      0.580321   202A      0.584429  
     203A      0.586576   204A      0.592282   205A      0.598964  
     206A      0.600512   207A      0.606907   208A      0.608866  
     209A      0.615588   210A      0.617907   211A      0.620813  
     212A      0.628369   213A      0.638741   214A      0.638991  
     215A      0.649658   216A      0.654382   217A      0.659088  
     218A      0.669579   219A      0.681775   220A      0.686652  
     221A      0.688780   222A      0.689299   223A      0.699087  
     224A      0.702358   225A      0.708596   226A      0.716129  
     227A      0.718585   228A      0.721265   229A      0.729429  
     230A      0.731007   231A      0.733011   232A      0.743478  
     233A      0.745299   234A      0.749160   235A      0.751537  
     236A      0.756133   237A      0.769434   238A      0.772670  
     239A      0.775943   240A      0.785909   241A      0.791210  
     242A      0.794295   243A      0.802433   244A      0.805694  
     245A      0.807577   246A      0.810187   247A      0.814570  
     248A      0.818879   249A      0.826516   250A      0.831581  
     251A      0.836366   252A      0.840234   253A      0.841504  
     254A      0.850197   255A      0.857866   256A      0.861814  
     257A      0.867599   258A      0.870881   259A      0.876286  
     260A      0.882370   261A      0.885124   262A      0.887184  
     263A      0.890465   264A      0.896438   265A      0.899090  
     266A      0.900779   267A      0.905597   268A      0.908006  
     269A      0.910924   270A      0.913159   271A      0.920505  
     272A      0.922303   273A      0.927536   274A      0.934623  
     275A      0.936495   276A      0.941497   277A      0.946737  
     278A      0.951673   279A      0.958227   280A      0.959592  
     281A      0.972002   282A      0.974638   283A      0.976425  
     284A      0.980564   285A      0.989250   286A      0.989540  
     287A      0.992457   288A      0.996540   289A      0.999991  
     290A      1.001931   291A      1.011217   292A      1.016995  
     293A      1.020824   294A      1.022196   295A      1.031160  
     296A      1.036613   297A      1.038414   298A      1.043442  
     299A      1.051894   300A      1.055260   301A      1.056498  
     302A      1.058568   303A      1.066526   304A      1.069313  
     305A      1.071443   306A      1.075190   307A      1.082153  
     308A      1.085545   309A      1.088898   310A      1.091141  
     311A      1.094563   312A      1.104554   313A      1.109350  
     314A      1.111456   315A      1.113672   316A      1.119787  
     317A      1.122988   318A      1.125497   319A      1.126109  
     320A      1.128137   321A      1.132553   322A      1.135767  
     323A      1.142275   324A      1.144932   325A      1.148933  
     326A      1.153669   327A      1.158691   328A      1.162405  
     329A      1.166402   330A      1.167781   331A      1.173393  
     332A      1.179435   333A      1.181988   334A      1.187466  
     335A      1.192058   336A      1.197450   337A      1.199870  
     338A      1.207962   339A      1.209967   340A      1.213876  
     341A      1.219642   342A      1.225005   343A      1.227513  
     344A      1.231574   345A      1.233602   346A      1.241146  
     347A      1.243144   348A      1.249136   349A      1.250809  
     350A      1.258228   351A      1.261869   352A      1.266868  
     353A      1.270450   354A      1.277276   355A      1.280159  
     356A      1.286990   357A      1.293799   358A      1.297536  
     359A      1.304246   360A      1.308062   361A      1.314540  
     362A      1.318673   363A      1.322721   364A      1.327735  
     365A      1.332032   366A      1.340984   367A      1.349153  
     368A      1.357414   369A      1.366180   370A      1.373714  
     371A      1.380311   372A      1.389271   373A      1.392033  
     374A      1.400393   375A      1.404587   376A      1.410442  
     377A      1.415072   378A      1.423779   379A      1.428670  
     380A      1.434838   381A      1.437550   382A      1.441347  
     383A      1.451447   384A      1.457927   385A      1.464520  
     386A      1.468251   387A      1.474341   388A      1.482415  
     389A      1.493892   390A      1.505412   391A      1.506737  
     392A      1.509505   393A      1.516245   394A      1.520687  
     395A      1.521292   396A      1.528650   397A      1.533003  
     398A      1.549645   399A      1.554091   400A      1.557323  
     401A      1.568964   402A      1.569702   403A      1.574717  
     404A      1.578892   405A      1.584656   406A      1.587555  
     407A      1.591408   408A      1.598111   409A      1.604435  
     410A      1.614028   411A      1.621249   412A      1.629211  
     413A      1.635620   414A      1.646203   415A      1.647293  
     416A      1.655052   417A      1.657825   418A      1.665558  
     419A      1.670897   420A      1.676157   421A      1.681942  
     422A      1.695128   423A      1.705166   424A      1.708540  
     425A      1.715906   426A      1.720750   427A      1.725118  
     428A      1.729829   429A      1.742064   430A      1.753662  
     431A      1.758454   432A      1.762281   433A      1.764197  
     434A      1.766350   435A      1.778644   436A      1.789295  
     437A      1.796987   438A      1.804852   439A      1.809913  
     440A      1.812010   441A      1.816124   442A      1.824385  
     443A      1.827307   444A      1.830308   445A      1.837453  
     446A      1.847116   447A      1.859224   448A      1.862565  
     449A      1.864522   450A      1.875093   451A      1.879455  
     452A      1.881158   453A      1.888623   454A      1.900811  
     455A      1.909581   456A      1.914355   457A      1.920031  
     458A      1.921947   459A      1.930757   460A      1.933674  
     461A      1.941584   462A      1.946671   463A      1.954080  
     464A      1.967615   465A      1.978739   466A      1.979913  
     467A      1.990324   468A      1.993960   469A      2.001300  
     470A      2.006767   471A      2.016219   472A      2.021744  
     473A      2.025681   474A      2.035447   475A      2.039356  
     476A      2.050378   477A      2.054752   478A      2.063684  
     479A      2.068528   480A      2.076751   481A      2.077665  
     482A      2.086367   483A      2.088330   484A      2.099241  
     485A      2.112838   486A      2.118794   487A      2.124728  
     488A      2.130596   489A      2.133691   490A      2.142428  
     491A      2.145506   492A      2.146605   493A      2.156468  
     494A      2.165520   495A      2.176777   496A      2.184459  
     497A      2.184753   498A      2.191604   499A      2.198319  
     500A      2.214305   501A      2.216821   502A      2.230099  
     503A      2.234838   504A      2.241285   505A      2.249806  
     506A      2.252610   507A      2.258800   508A      2.269219  
     509A      2.277656   510A      2.283983   511A      2.286149  
     512A      2.292975   513A      2.303954   514A      2.313980  
     515A      2.317048   516A      2.320661   517A      2.336838  
     518A      2.343809   519A      2.354640   520A      2.370974  
     521A      2.377531   522A      2.381905   523A      2.391738  
     524A      2.401476   525A      2.407651   526A      2.417938  
     527A      2.432222   528A      2.440508   529A      2.444686  
     530A      2.451464   531A      2.457204   532A      2.473439  
     533A      2.482493   534A      2.494294   535A      2.501177  
     536A      2.520556   537A      2.528032   538A      2.536835  
     539A      2.545797   540A      2.550178   541A      2.554615  
     542A      2.563592   543A      2.581331   544A      2.588352  
     545A      2.594777   546A      2.613004   547A      2.622425  
     548A      2.635424   549A      2.645902   550A      2.650871  
     551A      2.669355   552A      2.674299   553A      2.687477  
     554A      2.701464   555A      2.711493   556A      2.740840  
     557A      2.749706   558A      2.761905   559A      2.763444  
     560A      2.771645   561A      2.777119   562A      2.802035  
     563A      2.813925   564A      2.821842   565A      2.839345  
     566A      2.859937   567A      2.873333   568A      2.894506  
     569A      2.906580   570A      2.910988   571A      2.927568  
     572A      2.938054   573A      2.981770   574A      2.997227  
     575A      3.024876   576A      3.038320   577A      3.060854  
     578A      3.074097   579A      3.118076   580A      3.123054  
     581A      3.129933   582A      3.155597   583A      3.167511  
     584A      3.179488   585A      3.214859   586A      3.231102  
     587A      3.244636   588A      3.271749   589A      3.273074  
     590A      3.285737   591A      3.296212   592A      3.311424  
     593A      3.317075   594A      3.336643   595A      3.354825  
     596A      3.360070   597A      3.369602   598A      3.388748  
     599A      3.398795   600A      3.405384   601A      3.418300  
     602A      3.430263   603A      3.435014   604A      3.442156  
     605A      3.454386   606A      3.460982   607A      3.467298  
     608A      3.474644   609A      3.482516   610A      3.499381  
     611A      3.508511   612A      3.512140   613A      3.526836  
     614A      3.531085   615A      3.539199   616A      3.544644  
     617A      3.550204   618A      3.559118   619A      3.565721  
     620A      3.569160   621A      3.579201   622A      3.586798  
     623A      3.590022   624A      3.598117   625A      3.601497  
     626A      3.613536   627A      3.620873   628A      3.624812  
     629A      3.638660   630A      3.645564   631A      3.656767  
     632A      3.669282   633A      3.672159   634A      3.677640  
     635A      3.685896   636A      3.693305   637A      3.710702  
     638A      3.715689   639A      3.721254   640A      3.727742  
     641A      3.737666   642A      3.741217   643A      3.744915  
     644A      3.749690   645A      3.767388   646A      3.771308  
     647A      3.782176   648A      3.786950   649A      3.795973  
     650A      3.804169   651A      3.814010   652A      3.823920  
     653A      3.840557   654A      3.843984   655A      3.847001  
     656A      3.850872   657A      3.867674   658A      3.875474  
     659A      3.885428   660A      3.886841   661A      3.899854  
     662A      3.906169   663A      3.910651   664A      3.925381  
     665A      3.931421   666A      3.935940   667A      3.947121  
     668A      3.953358   669A      3.954092   670A      3.961978  
     671A      3.963819   672A      3.967954   673A      3.981659  
     674A      3.988420   675A      3.999247   676A      4.005400  
     677A      4.014230   678A      4.023738   679A      4.028187  
     680A      4.032617   681A      4.037752   682A      4.047134  
     683A      4.055808   684A      4.064611   685A      4.071149  
     686A      4.073760   687A      4.085076   688A      4.092193  
     689A      4.107611   690A      4.110593   691A      4.111519  
     692A      4.123620   693A      4.136549   694A      4.147031  
     695A      4.150500   696A      4.161518   697A      4.174052  
     698A      4.179613   699A      4.182766   700A      4.189539  
     701A      4.197576   702A      4.201462   703A      4.212576  
     704A      4.225241   705A      4.235539   706A      4.247817  
     707A      4.251607   708A      4.255285   709A      4.262346  
     710A      4.266843   711A      4.277640   712A      4.289678  
     713A      4.296105   714A      4.304843   715A      4.316142  
     716A      4.322207   717A      4.327667   718A      4.336067  
     719A      4.342949   720A      4.353355   721A      4.360361  
     722A      4.367644   723A      4.375271   724A      4.380291  
     725A      4.388202   726A      4.395742   727A      4.397476  
     728A      4.411248   729A      4.427788   730A      4.439331  
     731A      4.443973   732A      4.446017   733A      4.451817  
     734A      4.466237   735A      4.471174   736A      4.477921  
     737A      4.482958   738A      4.502318   739A      4.504038  
     740A      4.509892   741A      4.522783   742A      4.527616  
     743A      4.541781   744A      4.546904   745A      4.553072  
     746A      4.574754   747A      4.580823   748A      4.589079  
     749A      4.594178   750A      4.606011   751A      4.615710  
     752A      4.639212   753A      4.653420   754A      4.661803  
     755A      4.668983   756A      4.680828   757A      4.699577  
     758A      4.710185   759A      4.720539   760A      4.727083  
     761A      4.734720   762A      4.747716   763A      4.756840  
     764A      4.767505   765A      4.779702   766A      4.783938  
     767A      4.789960   768A      4.807414   769A      4.811747  
     770A      4.814099   771A      4.843225   772A      4.845351  
     773A      4.846464   774A      4.865356   775A      4.883750  
     776A      4.890121   777A      4.913429   778A      4.919403  
     779A      4.924593   780A      4.942694   781A      4.948243  
     782A      4.960813   783A      4.971360   784A      4.972711  
     785A      4.995197   786A      5.006261   787A      5.013211  
     788A      5.018529   789A      5.023443   790A      5.042629  
     791A      5.045026   792A      5.056299   793A      5.074191  
     794A      5.084860   795A      5.090035   796A      5.102315  
     797A      5.104762   798A      5.107479   799A      5.113295  
     800A      5.132792   801A      5.146217   802A      5.161744  
     803A      5.164777   804A      5.175755   805A      5.179875  
     806A      5.188222   807A      5.199237   808A      5.211682  
     809A      5.222493   810A      5.229064   811A      5.240189  
     812A      5.244178   813A      5.254969   814A      5.257585  
     815A      5.279643   816A      5.282905   817A      5.313641  
     818A      5.316969   819A      5.322929   820A      5.335508  
     821A      5.343376   822A      5.371571   823A      5.387705  
     824A      5.406781   825A      5.413263   826A      5.435723  
     827A      5.451176   828A      5.469753   829A      5.493008  
     830A      5.508302   831A      5.522275   832A      5.529365  
     833A      5.544130   834A      5.554897   835A      5.556783  
     836A      5.564382   837A      5.579157   838A      5.599135  
     839A      5.626131   840A      5.633923   841A      5.648606  
     842A      5.660112   843A      5.687732   844A      5.691299  
     845A      5.694266   846A      5.710069   847A      5.739266  
     848A      5.743262   849A      5.761959   850A      5.786930  
     851A      5.803864   852A      5.850736   853A      5.863079  
     854A      5.876645   855A      5.898519   856A      5.909161  
     857A      5.922119   858A      5.956461   859A      5.960826  
     860A      5.967922   861A      6.000683   862A      6.040682  
     863A      6.074778   864A      6.122150   865A      6.134085  
     866A      6.161474   867A      6.180326   868A      6.190847  
     869A      6.197216   870A      6.209315   871A      6.232344  
     872A      6.244324   873A      6.257570   874A      6.279791  
     875A      6.310973   876A      6.334688   877A      6.360496  
     878A      6.382142   879A      6.400923   880A      6.444407  
     881A      6.490222   882A      6.502893   883A      6.544055  
     884A      6.565295   885A      6.614021   886A      6.645604  
     887A      6.670112   888A      6.723839   889A      6.748097  
     890A      6.772366   891A      6.800452   892A      6.812875  
     893A      6.857631   894A      6.901012   895A      6.907561  
     896A      6.941835   897A      6.989459   898A      7.027237  
     899A      7.069153   900A      7.095041   901A      7.123934  
     902A      7.163524   903A      7.280929   904A      7.371585  
     905A      7.421934   906A      7.736998   907A     15.898045  
     908A     16.248408   909A     16.402783   910A     16.799085  
     911A     17.789594   912A     18.438262   913A     18.967678  
     914A     19.322738   915A     19.487477   916A     19.530993  
     917A     20.004040   918A     20.175830   919A     20.970534  
     920A     21.887530  

    Final Occupation by Irrep:
              A 
    DOCC [    49 ]

  @DF-RHF Final Energy:  -570.48682804916120

   => Energetics <=

    Nuclear Repulsion Energy =            818.4790439432518951
    One-Electron Energy =               -2397.1735850995601140
    Two-Electron Energy =                1008.2077131071471285
    Total Energy =                       -570.4868280491612040

Computation Completed

*** tstop() called on node59.bme.utexas.edu at Wed Feb  3 11:46:45 2021
Module time:
	user time   =     654.68 seconds =      10.91 minutes
	system time =      12.16 seconds =       0.20 minutes
	total time  =         87 seconds =       1.45 minutes
Total time:
	user time   =     654.68 seconds =      10.91 minutes
	system time =      12.16 seconds =       0.20 minutes
	total time  =         87 seconds =       1.45 minutes
   => Loading Basis Set <=

    Name: (AUG-CC-PVTZ AUX)
    Role: RIFIT
    Keyword: DF_BASIS_MP2
    atoms 1-2   entry N          line   206 file /home/xy3866/.conda/envs/test-rdkit/share/psi4/basis/aug-cc-pvtz-ri.gbs 
    atoms 3-14  entry C          line   148 file /home/xy3866/.conda/envs/test-rdkit/share/psi4/basis/aug-cc-pvtz-ri.gbs 
    atoms 15-26 entry H          line    30 file /home/xy3866/.conda/envs/test-rdkit/share/psi4/basis/aug-cc-pvtz-ri.gbs 


*** tstart() called on node59.bme.utexas.edu
*** at Wed Feb  3 11:46:45 2021


  //>>>>>>>>>>>>>>>>>>>>>>>>>>>>>>>>>>>//
  //               DFMP2               //
  //<<<<<<<<<<<<<<<<<<<<<<<<<<<<<<<<<<<//

	 --------------------------------------------------------
	                          DF-MP2                         
	      2nd-Order Density-Fitted Moller-Plesset Theory     
	              RMP2 Wavefunction,   8 Threads             
	                                                         
	        Rob Parrish, Justin Turney, Andy Simmonett,      
	           Ed Hohenstein, and C. David Sherrill          
	 --------------------------------------------------------

   => Auxiliary Basis Set <=

  Basis Set: (AUG-CC-PVTZ AUX)
    Blend: AUG-CC-PVTZ-RI
    Number of shells: 560
    Number of basis function: 2036
    Number of Cartesian functions: 2564
    Spherical Harmonics?: true
    Max angular momentum: 4

	 --------------------------------------------------------
	                 NBF =   920, NAUX =  2036
	 --------------------------------------------------------
	   CLASS    FOCC     OCC    AOCC    AVIR     VIR    FVIR
	   PAIRS       0      49      49     871     871       0
	 --------------------------------------------------------

  DFHelper Memory: AOs need 11.611 GiB; user supplied 22.352 GiB. Using in-core AOs.


         ------------------------------------------------------------
                                     CPHF                           
                                  Rob Parrish                       
         ------------------------------------------------------------

  ==> Geometry <==

    Molecular point group: c1
    Full point group: C1

    Geometry (in Angstrom), charge = 0, multiplicity = 1:

       Center              X                  Y                   Z               Mass       
    ------------   -----------------  -----------------  -----------------  -----------------
         N            1.020248922657     1.794757050831     0.330613634382    14.003074004430
         N           -1.465031077343     0.868191050831    -0.608255365618    14.003074004430
         C            0.441626922657    -0.539655949169    -0.066668365618    12.000000000000
         C            1.416533922657     0.483291050831     0.102510634382    12.000000000000
         C           -1.010975077343    -0.265578949169    -0.021865365618    12.000000000000
         C            0.862970922657    -1.860932949169    -0.272127365618    12.000000000000
         C            2.773615922657     0.111535050831     0.118784634382    12.000000000000
         C            2.211852922657    -2.210688949169    -0.269652365618    12.000000000000
         C            3.164824922657    -1.213376949169    -0.068017365618    12.000000000000
         C           -1.898560277343    -1.216716249169     0.519567334382    12.000000000000
         C           -3.256587077343    -0.921148949169     0.586283634382    12.000000000000
         C            1.995823922657     2.865629050831     0.259399634382    12.000000000000
         C           -2.788910077343     1.100197050831    -0.605780365618    12.000000000000
         C           -3.723205077343     0.234652050831    -0.039528365618    12.000000000000
         H            0.110436922657    -2.625353949169    -0.456917365618     1.007825032230
         H            3.537147922657     0.869859050831     0.260429634382     1.007825032230
         H            0.133754922657     1.999817050831    -0.123248365618     1.007825032230
         H            2.512471922657    -3.241166949169    -0.439434365618     1.007825032230
         H            4.224290922657    -1.460829949169    -0.059702365618     1.007825032230
         H           -1.487599077343    -2.039569949169     1.115536634382     1.007825032230
         H           -3.946909077343    -1.610720949169     1.066418634382     1.007825032230
         H            2.571139922657     2.873787050831    -0.678731365618     1.007825032230
         H            2.701105922657     2.798801050831     1.093152634382     1.007825032230
         H            1.462735922657     3.814189050831     0.350208634382     1.007825032230
         H           -3.106290077343     2.023969050831    -1.087034365618     1.007825032230
         H           -4.782859077343     0.470984050831    -0.075270365618     1.007825032230

  Nuclear repulsion =  818.479043943251895
  Reference energy  = -570.486828049161204

  ==> Basis Set <==

  Basis Set: AUG-CC-PVTZ
    Blend: AUG-CC-PVTZ
    Number of shells: 304
    Number of basis function: 920
    Number of Cartesian functions: 1070
    Spherical Harmonics?: true
    Max angular momentum: 3

  ==> CGRSolver (by Rob Parrish) <==

   Number of roots    =         1
   Preconditioning    =    JACOBI
   Convergence cutoff =     1E-06
   Maximum iterations =       100

  ==> CPHFRHamiltonian (by Rob Parrish) <== 

  ==> MemDFJK: Density-Fitted J/K Matrices <==

    J tasked:                   Yes
    K tasked:                   Yes
    wK tasked:                   No
    OpenMP threads:               8
    Memory [MiB]:             22888
    Algorithm:                 Core
    Schwarz Cutoff:           1E-12
    Mask sparsity (%):      10.2833
    Fitting Condition:        1E-10

   => Auxiliary Basis Set <=

  Basis Set: (AUG-CC-PVTZ AUX)
    Blend: AUG-CC-PVTZ-JKFIT
    Number of shells: 588
    Number of basis function: 2008
    Number of Cartesian functions: 2494
    Spherical Harmonics?: true
    Max angular momentum: 4

  ==> CPHF Iterations <==

  => Iterations <=

             Iter  Converged  Remaining    Residual
  CGR           1          0          1   9.444E-02
  CGR           2          0          1   4.029E-02
  CGR           3          0          1   2.581E-02
  CGR           4          0          1   9.874E-03
  CGR           5          0          1   4.120E-03
  CGR           6          0          1   1.764E-03
  CGR           7          0          1   5.654E-04
  CGR           8          0          1   2.024E-04
  CGR           9          0          1   8.986E-05
  CGR          10          0          1   4.232E-05
  CGR          11          0          1   2.004E-05
  CGR          12          0          1   6.812E-06
  CGR          13          0          1   2.949E-06
  CGR          14          1          0   8.536E-07

    CGRSolver converged.

	-----------------------------------------------------------
	 ==================> DF-MP2 Energies <==================== 
	-----------------------------------------------------------
	 Reference Energy          =    -570.4868280491612040 [Eh]
	 Singles Energy            =      -0.0000000000000000 [Eh]
	 Same-Spin Energy          =      -0.6396146498336789 [Eh]
	 Opposite-Spin Energy      =      -1.9767932864893814 [Eh]
	 Correlation Energy        =      -2.6164079363230601 [Eh]
	 Total Energy              =    -573.1032359854842753 [Eh]
	-----------------------------------------------------------
	 ================> DF-SCS-MP2 Energies <================== 
	-----------------------------------------------------------
	 SCS Same-Spin Scale       =       0.3333333333333333 [-]
	 SCS Opposite-Spin Scale   =       1.2000000000000000 [-]
	 SCS Same-Spin Energy      =      -0.2132048832778929 [Eh]
	 SCS Opposite-Spin Energy  =      -2.3721519437872574 [Eh]
	 SCS Correlation Energy    =      -2.5853568270651501 [Eh]
	 SCS Total Energy          =    -573.0721848762264017 [Eh]
	-----------------------------------------------------------



Properties will be evaluated at   0.000000,  -0.000000,   0.000000 [a0]

Properties computed using the MP2 density matrix

  Nuclear Dipole Moment: [e a0]
     X:     3.6850      Y:     3.6238      Z:     0.9058

  Electronic Dipole Moment: [e a0]
     X:    -4.3758      Y:    -3.5481      Z:    -0.7590

  Dipole Moment: [e a0]
     X:    -0.6907      Y:     0.0757      Z:     0.1469     Total:     0.7102

  Dipole Moment: [D]
     X:    -1.7557      Y:     0.1924      Z:     0.3733     Total:     1.8052


*** tstop() called on node59.bme.utexas.edu at Wed Feb  3 11:54:04 2021
Module time:
	user time   =    3055.89 seconds =      50.93 minutes
	system time =      54.63 seconds =       0.91 minutes
	total time  =        439 seconds =       7.32 minutes
Total time:
	user time   =    3710.82 seconds =      61.85 minutes
	system time =      66.79 seconds =       1.11 minutes
	total time  =        526 seconds =       8.77 minutes

    Psi4 stopped on: Wednesday, 03 February 2021 11:54AM
    Psi4 wall time for execution: 0:08:46.41

*** Psi4 exiting successfully. Buy a developer a beer!
