
    -----------------------------------------------------------------------
          Psi4: An Open-Source Ab Initio Electronic Structure Package
                               Psi4 1.4a3.dev225 

                         Git: Rev {master} 7105e37 


    D. G. A. Smith, L. A. Burns, A. C. Simmonett, R. M. Parrish,
    M. C. Schieber, R. Galvelis, P. Kraus, H. Kruse, R. Di Remigio,
    A. Alenaizan, A. M. James, S. Lehtola, J. P. Misiewicz, M. Scheurer,
    R. A. Shaw, J. B. Schriber, Y. Xie, Z. L. Glick, D. A. Sirianni,
    J. S. O'Brien, J. M. Waldrop, A. Kumar, E. G. Hohenstein,
    B. P. Pritchard, B. R. Brooks, H. F. Schaefer III, A. Yu. Sokolov,
    K. Patkowski, A. E. DePrince III, U. Bozkaya, R. A. King,
    F. A. Evangelista, J. M. Turney, T. D. Crawford, C. D. Sherrill,
    J. Chem. Phys. 152(18) 184108 (2020). https://doi.org/10.1063/5.0006002

                            Additional Code Authors
    E. T. Seidl, C. L. Janssen, E. F. Valeev, M. L. Leininger,
    J. F. Gonthier, R. M. Richard, H. R. McAlexander, M. Saitow, X. Wang,
    P. Verma, and M. H. Lechner

             Previous Authors, Complete List of Code Contributors,
                       and Citations for Specific Modules
    https://github.com/psi4/psi4/blob/master/codemeta.json
    https://github.com/psi4/psi4/graphs/contributors
    http://psicode.org/psi4manual/master/introduction.html#citing-psifour

    -----------------------------------------------------------------------


    Psi4 started on: Monday, 01 March 2021 08:56AM

    Process ID: 53800
    Host:       c403-114.stampede2.tacc.utexas.edu
    PSIDATADIR: /home1/07844/xy3866/miniconda3/envs/p4env/share/psi4
    Memory:     500.0 MiB
    Threads:    32
    
  ==> Input File <==

--------------------------------------------------------------------------
#psi4
#
memory 32 gb

molecule  {
0 1
  N        0.6335420    -0.4278790    -0.2728430
  C       -1.7313700    -0.5561300    -0.6201830
  C       -0.4830900     0.2151130    -0.2797610
  C        1.8471620     0.3055680     0.0922530
  C       -2.6435280    -0.7283840     0.5986220
  C       -0.6406980     1.6798450     0.0649420
  C        3.0183950    -0.6607510     0.1713530
  H       -1.4212120    -1.5322710    -1.0024030
  H       -2.2765240    -0.0356590    -1.4187580
  H        2.0539910     1.0846830    -0.6562090
  H        1.7201950     0.8226000     1.0546610
  H       -3.6186461    -1.3550810     0.3134243
  H       -2.9717700     0.2361610     0.9972690
  H       -2.1143980    -1.2633090     1.3922570
  H       -0.4113830     1.8596200     1.1216760
  H       -1.6576830     2.0281380    -0.1274070
  H        0.0520880     2.2919400    -0.5220660
  H        3.9433710    -0.1376200     0.4335950
  H        2.8252920    -1.4268740     0.9259980
  H        3.1589730    -1.1612340    -0.7893850
units angstrom
no_reorient  #important for SAPT in psi4, default
symmetry c1  #important for SAPT in psi4, default
}

set PROPERTIES_ORIGIN ["COM"]
properties('MP2/aug-cc-pvtz', properties = ['dipole'])
--------------------------------------------------------------------------

  Memory set to  29.802 GiB by Python driver.
    SCF Algorithm Type (re)set to DF.

*** tstart() called on c403-114.stampede2.tacc.utexas.edu
*** at Mon Mar  1 08:56:20 2021

   => Loading Basis Set <=

    Name: AUG-CC-PVTZ
    Role: ORBITAL
    Keyword: BASIS
    atoms 1    entry N          line   285 file /home1/07844/xy3866/miniconda3/envs/p4env/share/psi4/basis/aug-cc-pvtz.gbs 
    atoms 2-7  entry C          line   239 file /home1/07844/xy3866/miniconda3/envs/p4env/share/psi4/basis/aug-cc-pvtz.gbs 
    atoms 8-20 entry H          line    40 file /home1/07844/xy3866/miniconda3/envs/p4env/share/psi4/basis/aug-cc-pvtz.gbs 


         ---------------------------------------------------------
                                   SCF
               by Justin Turney, Rob Parrish, Andy Simmonett
                          and Daniel G. A. Smith
                              RHF Reference
                       32 Threads,  30517 MiB Core
         ---------------------------------------------------------

  ==> Geometry <==

    Molecular point group: c1
    Full point group: C1

    Geometry (in Angstrom), charge = 0, multiplicity = 1:

       Center              X                  Y                   Z               Mass       
    ------------   -----------------  -----------------  -----------------  -----------------
         N            0.627985605751    -0.412679398622    -0.255106254443    14.003074004430
         C           -1.736926394249    -0.540930398622    -0.602446254443    12.000000000000
         C           -0.488646394249     0.230312601378    -0.262024254443    12.000000000000
         C            1.841605605751     0.320767601378     0.109989745557    12.000000000000
         C           -2.649084394249    -0.713184398622     0.616358745557    12.000000000000
         C           -0.646254394249     1.695044601378     0.082678745557    12.000000000000
         C            3.012838605751    -0.645551398622     0.189089745557    12.000000000000
         H           -1.426768394249    -1.517071398622    -0.984666254443     1.007825032230
         H           -2.282080394249    -0.020459398622    -1.401021254443     1.007825032230
         H            2.048434605751     1.099882601378    -0.638472254443     1.007825032230
         H            1.714638605751     0.837799601378     1.072397745557     1.007825032230
         H           -3.624202494249    -1.339881398622     0.331161045557     1.007825032230
         H           -2.977326394249     0.251360601378     1.015005745557     1.007825032230
         H           -2.119954394249    -1.248109398622     1.409993745557     1.007825032230
         H           -0.416939394249     1.874819601378     1.139412745557     1.007825032230
         H           -1.663239394249     2.043337601378    -0.109670254443     1.007825032230
         H            0.046531605751     2.307139601378    -0.504329254443     1.007825032230
         H            3.937814605751    -0.122420398622     0.451331745557     1.007825032230
         H            2.819735605751    -1.411674398622     0.943734745557     1.007825032230
         H            3.153416605751    -1.146034398622    -0.771648254443     1.007825032230

  Running in c1 symmetry.

  Rotational constants: A =      0.16898  B =      0.04395  C =      0.03842 [cm^-1]
  Rotational constants: A =   5065.75462  B =   1317.72877  C =   1151.82988 [MHz]
  Nuclear repulsion =  307.189547475923291

  Charge       = 0
  Multiplicity = 1
  Electrons    = 56
  Nalpha       = 28
  Nbeta        = 28

  ==> Algorithm <==

  SCF Algorithm Type is DF.
  DIIS enabled.
  MOM disabled.
  Fractional occupation disabled.
  Guess Type is SAD.
  Energy threshold   = 1.00e-10
  Density threshold  = 1.00e-10
  Integral threshold = 1.00e-12

  ==> Primary Basis <==

  Basis Set: AUG-CC-PVTZ
    Blend: AUG-CC-PVTZ
    Number of shells: 215
    Number of basis functions: 621
    Number of Cartesian functions: 710
    Spherical Harmonics?: true
    Max angular momentum: 3

   => Loading Basis Set <=

    Name: (AUG-CC-PVTZ AUX)
    Role: JKFIT
    Keyword: DF_BASIS_SCF
    atoms 1    entry N          line   224 file /home1/07844/xy3866/miniconda3/envs/p4env/share/psi4/basis/aug-cc-pvtz-jkfit.gbs 
    atoms 2-7  entry C          line   162 file /home1/07844/xy3866/miniconda3/envs/p4env/share/psi4/basis/aug-cc-pvtz-jkfit.gbs 
    atoms 8-20 entry H          line    70 file /home1/07844/xy3866/miniconda3/envs/p4env/share/psi4/basis/aug-cc-pvtz-jkfit.gbs 

  ==> Integral Setup <==

  DFHelper Memory: AOs need 3.643 GiB; user supplied 22.352 GiB. Using in-core AOs.

  ==> MemDFJK: Density-Fitted J/K Matrices <==

    J tasked:                   Yes
    K tasked:                   Yes
    wK tasked:                   No
    OpenMP threads:              32
    Memory [MiB]:             22888
    Algorithm:                 Core
    Schwarz Cutoff:           1E-12
    Mask sparsity (%):       9.1800
    Fitting Condition:        1E-10

   => Auxiliary Basis Set <=

  Basis Set: (AUG-CC-PVTZ AUX)
    Blend: AUG-CC-PVTZ-JKFIT
    Number of shells: 392
    Number of basis functions: 1326
    Number of Cartesian functions: 1632
    Spherical Harmonics?: true
    Max angular momentum: 4

  Minimum eigenvalue in the overlap matrix is 3.2004641039E-06.
  Reciprocal condition number of the overlap matrix is 1.5855264042E-07.
    Using symmetric orthogonalization.

  ==> Pre-Iterations <==

  SCF Guess: Superposition of Atomic Densities via on-the-fly atomic UHF (no occupation information).

   -------------------------
    Irrep   Nso     Nmo    
   -------------------------
     A        621     621 
   -------------------------
    Total     621     621
   -------------------------

  ==> Iterations <==

                           Total Energy        Delta E     RMS |[F,P]|

   @DF-RHF iter SAD:  -288.45900158272599   -2.88459e+02   0.00000e+00 
   @DF-RHF iter   1:  -288.99575182246167   -5.36750e-01   1.12317e-03 DIIS
   @DF-RHF iter   2:  -289.25090780196604   -2.55156e-01   5.22885e-04 DIIS
   @DF-RHF iter   3:  -289.30285884168984   -5.19510e-02   1.12324e-04 DIIS
   @DF-RHF iter   4:  -289.30686341480140   -4.00457e-03   5.76287e-05 DIIS
   @DF-RHF iter   5:  -289.30753141369769   -6.67999e-04   9.21606e-06 DIIS
   @DF-RHF iter   6:  -289.30756751779529   -3.61041e-05   3.38579e-06 DIIS
   @DF-RHF iter   7:  -289.30757142479342   -3.90700e-06   1.21548e-06 DIIS
   @DF-RHF iter   8:  -289.30757219901682   -7.74223e-07   5.20980e-07 DIIS
   @DF-RHF iter   9:  -289.30757236086924   -1.61852e-07   1.64713e-07 DIIS
   @DF-RHF iter  10:  -289.30757237852640   -1.76572e-08   4.62733e-08 DIIS
   @DF-RHF iter  11:  -289.30757237956578   -1.03938e-09   1.10889e-08 DIIS
   @DF-RHF iter  12:  -289.30757237962786   -6.20730e-11   3.10882e-09 DIIS
   @DF-RHF iter  13:  -289.30757237963212   -4.26326e-12   9.20404e-10 DIIS
   @DF-RHF iter  14:  -289.30757237963303   -9.09495e-13   2.89572e-10 DIIS
   @DF-RHF iter  15:  -289.30757237963331   -2.84217e-13   9.40088e-11 DIIS
  Energy and wave function converged.


  ==> Post-Iterations <==

    Orbital Energies [Eh]
    ---------------------

    Doubly Occupied:                                                      

       1A    -15.539679     2A    -11.276528     3A    -11.242655  
       4A    -11.232282     5A    -11.231880     6A    -11.224552  
       7A    -11.202796     8A     -1.218181     9A     -1.058890  
      10A     -0.996522    11A     -0.972206    12A     -0.872809  
      13A     -0.816182    14A     -0.709320    15A     -0.651969  
      16A     -0.626649    17A     -0.615457    18A     -0.591059  
      19A     -0.575717    20A     -0.544454    21A     -0.532116  
      22A     -0.514726    23A     -0.511809    24A     -0.493579  
      25A     -0.486978    26A     -0.473320    27A     -0.385930  
      28A     -0.381315  

    Virtual:                                                              

      29A      0.027845    30A      0.033306    31A      0.036470  
      32A      0.037914    33A      0.050662    34A      0.051934  
      35A      0.053533    36A      0.057536    37A      0.061375  
      38A      0.071832    39A      0.075655    40A      0.081273  
      41A      0.083174    42A      0.096804    43A      0.111452  
      44A      0.116470    45A      0.121864    46A      0.123924  
      47A      0.127039    48A      0.128829    49A      0.136297  
      50A      0.137151    51A      0.142106    52A      0.146610  
      53A      0.149512    54A      0.151997    55A      0.155050  
      56A      0.157336    57A      0.161129    58A      0.171088  
      59A      0.174229    60A      0.184957    61A      0.186939  
      62A      0.199749    63A      0.207073    64A      0.211411  
      65A      0.227297    66A      0.230491    67A      0.239945  
      68A      0.243357    69A      0.253211    70A      0.256262  
      71A      0.259521    72A      0.268205    73A      0.271000  
      74A      0.278450    75A      0.291261    76A      0.295075  
      77A      0.300687    78A      0.303384    79A      0.311636  
      80A      0.317523    81A      0.320773    82A      0.324749  
      83A      0.333265    84A      0.333443    85A      0.344375  
      86A      0.346813    87A      0.351299    88A      0.361560  
      89A      0.366336    90A      0.369282    91A      0.373753  
      92A      0.375042    93A      0.380391    94A      0.383761  
      95A      0.386423    96A      0.387627    97A      0.395135  
      98A      0.397819    99A      0.406341   100A      0.413990  
     101A      0.416949   102A      0.421800   103A      0.422660  
     104A      0.429313   105A      0.432668   106A      0.438473  
     107A      0.441151   108A      0.445958   109A      0.448463  
     110A      0.453572   111A      0.456737   112A      0.466791  
     113A      0.467720   114A      0.474130   115A      0.481334  
     116A      0.482763   117A      0.489299   118A      0.490650  
     119A      0.502168   120A      0.504531   121A      0.507258  
     122A      0.509361   123A      0.515555   124A      0.518551  
     125A      0.520818   126A      0.529092   127A      0.533644  
     128A      0.536928   129A      0.538861   130A      0.545547  
     131A      0.550617   132A      0.558649   133A      0.567500  
     134A      0.574692   135A      0.577407   136A      0.581769  
     137A      0.586032   138A      0.591853   139A      0.596367  
     140A      0.596734   141A      0.603466   142A      0.605744  
     143A      0.618724   144A      0.630447   145A      0.644647  
     146A      0.647798   147A      0.657317   148A      0.663471  
     149A      0.667485   150A      0.671371   151A      0.680627  
     152A      0.689110   153A      0.697959   154A      0.705170  
     155A      0.710699   156A      0.715735   157A      0.757330  
     158A      0.759950   159A      0.764012   160A      0.786431  
     161A      0.792488   162A      0.799352   163A      0.802669  
     164A      0.811634   165A      0.821992   166A      0.831735  
     167A      0.834995   168A      0.838435   169A      0.845970  
     170A      0.847174   171A      0.853746   172A      0.855923  
     173A      0.864210   174A      0.872798   175A      0.877345  
     176A      0.883730   177A      0.892062   178A      0.897109  
     179A      0.900276   180A      0.907847   181A      0.910269  
     182A      0.916741   183A      0.925437   184A      0.926649  
     185A      0.934270   186A      0.939927   187A      0.948186  
     188A      0.956527   189A      0.958685   190A      0.963678  
     191A      0.968406   192A      0.971754   193A      0.976382  
     194A      0.983239   195A      0.987282   196A      0.988921  
     197A      0.996576   198A      1.001195   199A      1.001739  
     200A      1.023839   201A      1.029749   202A      1.037907  
     203A      1.041005   204A      1.055810   205A      1.059858  
     206A      1.068967   207A      1.070322   208A      1.077955  
     209A      1.081627   210A      1.089707   211A      1.095541  
     212A      1.098056   213A      1.111889   214A      1.123017  
     215A      1.125834   216A      1.126603   217A      1.130014  
     218A      1.144856   219A      1.149461   220A      1.157057  
     221A      1.162475   222A      1.168547   223A      1.179681  
     224A      1.186296   225A      1.191064   226A      1.200071  
     227A      1.201616   228A      1.207017   229A      1.215909  
     230A      1.220355   231A      1.227516   232A      1.232327  
     233A      1.237915   234A      1.252728   235A      1.257259  
     236A      1.265776   237A      1.269393   238A      1.271450  
     239A      1.280187   240A      1.288493   241A      1.294231  
     242A      1.310591   243A      1.311908   244A      1.321688  
     245A      1.332557   246A      1.342813   247A      1.347896  
     248A      1.361399   249A      1.367587   250A      1.374423  
     251A      1.383958   252A      1.392259   253A      1.403960  
     254A      1.408978   255A      1.416596   256A      1.418999  
     257A      1.428193   258A      1.443761   259A      1.461199  
     260A      1.468692   261A      1.477061   262A      1.486927  
     263A      1.501257   264A      1.508862   265A      1.516226  
     266A      1.522009   267A      1.539017   268A      1.544040  
     269A      1.548193   270A      1.560867   271A      1.563341  
     272A      1.581454   273A      1.586064   274A      1.595142  
     275A      1.605594   276A      1.615536   277A      1.617552  
     278A      1.624620   279A      1.633180   280A      1.654314  
     281A      1.655808   282A      1.660810   283A      1.667950  
     284A      1.672811   285A      1.680206   286A      1.685018  
     287A      1.689702   288A      1.694361   289A      1.706800  
     290A      1.709913   291A      1.715130   292A      1.723466  
     293A      1.734971   294A      1.743713   295A      1.751143  
     296A      1.758924   297A      1.760624   298A      1.768036  
     299A      1.773834   300A      1.782128   301A      1.783695  
     302A      1.789756   303A      1.800438   304A      1.810817  
     305A      1.822044   306A      1.831578   307A      1.850853  
     308A      1.854739   309A      1.859081   310A      1.868365  
     311A      1.874271   312A      1.877259   313A      1.892251  
     314A      1.898726   315A      1.907834   316A      1.922501  
     317A      1.930463   318A      1.941804   319A      1.945275  
     320A      1.958637   321A      1.969573   322A      1.977289  
     323A      1.984537   324A      2.001030   325A      2.011094  
     326A      2.020462   327A      2.030246   328A      2.037074  
     329A      2.039018   330A      2.044698   331A      2.053583  
     332A      2.071685   333A      2.076839   334A      2.087488  
     335A      2.102510   336A      2.115973   337A      2.122896  
     338A      2.137887   339A      2.160373   340A      2.166965  
     341A      2.184814   342A      2.193150   343A      2.205791  
     344A      2.215854   345A      2.228266   346A      2.237770  
     347A      2.249334   348A      2.254892   349A      2.263701  
     350A      2.270467   351A      2.276375   352A      2.284503  
     353A      2.292775   354A      2.298174   355A      2.312602  
     356A      2.323376   357A      2.340408   358A      2.347468  
     359A      2.350290   360A      2.354453   361A      2.362281  
     362A      2.395610   363A      2.403911   364A      2.428787  
     365A      2.438336   366A      2.443584   367A      2.467500  
     368A      2.492717   369A      2.496034   370A      2.507526  
     371A      2.510487   372A      2.519970   373A      2.546512  
     374A      2.564612   375A      2.579134   376A      2.613138  
     377A      2.630759   378A      2.646698   379A      2.677714  
     380A      2.704380   381A      2.726778   382A      2.797532  
     383A      2.834672   384A      2.876137   385A      2.894720  
     386A      2.938442   387A      2.954764   388A      3.003521  
     389A      3.014175   390A      3.101062   391A      3.159761  
     392A      3.241168   393A      3.302286   394A      3.324878  
     395A      3.339616   396A      3.379842   397A      3.415911  
     398A      3.418447   399A      3.447239   400A      3.459847  
     401A      3.461365   402A      3.472366   403A      3.480943  
     404A      3.482401   405A      3.518866   406A      3.526066  
     407A      3.546570   408A      3.564475   409A      3.568628  
     410A      3.596204   411A      3.612317   412A      3.622021  
     413A      3.642887   414A      3.646637   415A      3.656444  
     416A      3.670084   417A      3.675207   418A      3.678038  
     419A      3.685252   420A      3.704564   421A      3.710627  
     422A      3.719403   423A      3.726219   424A      3.730060  
     425A      3.738601   426A      3.771137   427A      3.773180  
     428A      3.790938   429A      3.793128   430A      3.806763  
     431A      3.811325   432A      3.826089   433A      3.834467  
     434A      3.841664   435A      3.849642   436A      3.867079  
     437A      3.875762   438A      3.888447   439A      3.907327  
     440A      3.913187   441A      3.920670   442A      3.943400  
     443A      3.952533   444A      3.962231   445A      3.970411  
     446A      3.979069   447A      3.985266   448A      3.994167  
     449A      4.003860   450A      4.013548   451A      4.018374  
     452A      4.027116   453A      4.040534   454A      4.053854  
     455A      4.064572   456A      4.078269   457A      4.086744  
     458A      4.096330   459A      4.107566   460A      4.127227  
     461A      4.138350   462A      4.150939   463A      4.155666  
     464A      4.166998   465A      4.174797   466A      4.191157  
     467A      4.199249   468A      4.210044   469A      4.223198  
     470A      4.231606   471A      4.246651   472A      4.261228  
     473A      4.270587   474A      4.279728   475A      4.286729  
     476A      4.295946   477A      4.321979   478A      4.333386  
     479A      4.353357   480A      4.360659   481A      4.371903  
     482A      4.381383   483A      4.393559   484A      4.416747  
     485A      4.426241   486A      4.436329   487A      4.465622  
     488A      4.466962   489A      4.486970   490A      4.495685  
     491A      4.518164   492A      4.521955   493A      4.542559  
     494A      4.556321   495A      4.578786   496A      4.583017  
     497A      4.588719   498A      4.610651   499A      4.619609  
     500A      4.652437   501A      4.678972   502A      4.681420  
     503A      4.700188   504A      4.712430   505A      4.719276  
     506A      4.745505   507A      4.773013   508A      4.780431  
     509A      4.797263   510A      4.814214   511A      4.839732  
     512A      4.841029   513A      4.852926   514A      4.859667  
     515A      4.867405   516A      4.875132   517A      4.890585  
     518A      4.898398   519A      4.907317   520A      4.917347  
     521A      4.945253   522A      4.966763   523A      4.984069  
     524A      4.991280   525A      5.001209   526A      5.022653  
     527A      5.026811   528A      5.049347   529A      5.067405  
     530A      5.085434   531A      5.102890   532A      5.121861  
     533A      5.138686   534A      5.155424   535A      5.166276  
     536A      5.169900   537A      5.183509   538A      5.197117  
     539A      5.203083   540A      5.230408   541A      5.259100  
     542A      5.281189   543A      5.290590   544A      5.309460  
     545A      5.320380   546A      5.331817   547A      5.348326  
     548A      5.361676   549A      5.364963   550A      5.386382  
     551A      5.398094   552A      5.414720   553A      5.431829  
     554A      5.433493   555A      5.455799   556A      5.468460  
     557A      5.477780   558A      5.504483   559A      5.518495  
     560A      5.556542   561A      5.558340   562A      5.574449  
     563A      5.586451   564A      5.600148   565A      5.628851  
     566A      5.656052   567A      5.662292   568A      5.668076  
     569A      5.699736   570A      5.704039   571A      5.723373  
     572A      5.752712   573A      5.759506   574A      5.781448  
     575A      5.796385   576A      5.830038   577A      5.847830  
     578A      5.905378   579A      5.909824   580A      5.947073  
     581A      5.965816   582A      6.034004   583A      6.063572  
     584A      6.068056   585A      6.094478   586A      6.111556  
     587A      6.127526   588A      6.139737   589A      6.152946  
     590A      6.169610   591A      6.193269   592A      6.198914  
     593A      6.234353   594A      6.245762   595A      6.254303  
     596A      6.273103   597A      6.290011   598A      6.325999  
     599A      6.412288   600A      6.421555   601A      6.519208  
     602A      6.621426   603A      6.710358   604A      6.728309  
     605A      6.763001   606A      6.765603   607A      6.781663  
     608A      6.844302   609A      6.857822   610A      6.909535  
     611A      6.936400   612A      6.981658   613A      7.068079  
     614A      7.180126   615A     17.049882   616A     17.264864  
     617A     17.604280   618A     18.145481   619A     18.224315  
     620A     19.108057   621A     21.384964  

    Final Occupation by Irrep:
              A 
    DOCC [    28 ]

  @DF-RHF Final Energy:  -289.30757237963331

   => Energetics <=

    Nuclear Repulsion Energy =            307.1895474759232911
    One-Electron Energy =                -999.0351213880783234
    Two-Electron Energy =                 402.5380015325217187
    Total Energy =                       -289.3075723796333136

Computation Completed

*** tstop() called on c403-114.stampede2.tacc.utexas.edu at Mon Mar  1 08:56:48 2021
Module time:
	user time   =     467.53 seconds =       7.79 minutes
	system time =      35.10 seconds =       0.59 minutes
	total time  =         28 seconds =       0.47 minutes
Total time:
	user time   =     467.53 seconds =       7.79 minutes
	system time =      35.10 seconds =       0.59 minutes
	total time  =         28 seconds =       0.47 minutes
   => Loading Basis Set <=

    Name: (AUG-CC-PVTZ AUX)
    Role: RIFIT
    Keyword: DF_BASIS_MP2
    atoms 1    entry N          line   206 file /home1/07844/xy3866/miniconda3/envs/p4env/share/psi4/basis/aug-cc-pvtz-ri.gbs 
    atoms 2-7  entry C          line   148 file /home1/07844/xy3866/miniconda3/envs/p4env/share/psi4/basis/aug-cc-pvtz-ri.gbs 
    atoms 8-20 entry H          line    30 file /home1/07844/xy3866/miniconda3/envs/p4env/share/psi4/basis/aug-cc-pvtz-ri.gbs 


*** tstart() called on c403-114.stampede2.tacc.utexas.edu
*** at Mon Mar  1 08:56:49 2021


  //>>>>>>>>>>>>>>>>>>>>>>>>>>>>>>>>>>>//
  //               DFMP2               //
  //<<<<<<<<<<<<<<<<<<<<<<<<<<<<<<<<<<<//

	 --------------------------------------------------------
	                          DF-MP2                         
	      2nd-Order Density-Fitted Moller-Plesset Theory     
	              RMP2 Wavefunction,  32 Threads             
	                                                         
	        Rob Parrish, Justin Turney, Andy Simmonett,      
	           Ed Hohenstein, and C. David Sherrill          
	 --------------------------------------------------------

   => Auxiliary Basis Set <=

  Basis Set: (AUG-CC-PVTZ AUX)
    Blend: AUG-CC-PVTZ-RI
    Number of shells: 378
    Number of basis functions: 1340
    Number of Cartesian functions: 1667
    Spherical Harmonics?: true
    Max angular momentum: 4

	 --------------------------------------------------------
	                 NBF =   621, NAUX =  1340
	 --------------------------------------------------------
	   CLASS    FOCC     OCC    AOCC    AVIR     VIR    FVIR
	   PAIRS       0      28      28     593     593       0
	 --------------------------------------------------------

  DFHelper Memory: AOs need 3.779 GiB; user supplied 22.352 GiB. Using in-core AOs.


         ------------------------------------------------------------
                                     CPHF                           
                                  Rob Parrish                       
         ------------------------------------------------------------

  ==> Geometry <==

    Molecular point group: c1
    Full point group: C1

    Geometry (in Angstrom), charge = 0, multiplicity = 1:

       Center              X                  Y                   Z               Mass       
    ------------   -----------------  -----------------  -----------------  -----------------
         N            0.627985605751    -0.412679398622    -0.255106254443    14.003074004430
         C           -1.736926394249    -0.540930398622    -0.602446254443    12.000000000000
         C           -0.488646394249     0.230312601378    -0.262024254443    12.000000000000
         C            1.841605605751     0.320767601378     0.109989745557    12.000000000000
         C           -2.649084394249    -0.713184398622     0.616358745557    12.000000000000
         C           -0.646254394249     1.695044601378     0.082678745557    12.000000000000
         C            3.012838605751    -0.645551398622     0.189089745557    12.000000000000
         H           -1.426768394249    -1.517071398622    -0.984666254443     1.007825032230
         H           -2.282080394249    -0.020459398622    -1.401021254443     1.007825032230
         H            2.048434605751     1.099882601378    -0.638472254443     1.007825032230
         H            1.714638605751     0.837799601378     1.072397745557     1.007825032230
         H           -3.624202494249    -1.339881398622     0.331161045557     1.007825032230
         H           -2.977326394249     0.251360601378     1.015005745557     1.007825032230
         H           -2.119954394249    -1.248109398622     1.409993745557     1.007825032230
         H           -0.416939394249     1.874819601378     1.139412745557     1.007825032230
         H           -1.663239394249     2.043337601378    -0.109670254443     1.007825032230
         H            0.046531605751     2.307139601378    -0.504329254443     1.007825032230
         H            3.937814605751    -0.122420398622     0.451331745557     1.007825032230
         H            2.819735605751    -1.411674398622     0.943734745557     1.007825032230
         H            3.153416605751    -1.146034398622    -0.771648254443     1.007825032230

  Nuclear repulsion =  307.189547475923291
  Reference energy  = -289.307572379633314

  ==> Basis Set <==

  Basis Set: AUG-CC-PVTZ
    Blend: AUG-CC-PVTZ
    Number of shells: 215
    Number of basis functions: 621
    Number of Cartesian functions: 710
    Spherical Harmonics?: true
    Max angular momentum: 3

  ==> CGRSolver (by Rob Parrish) <==

   Number of roots    =         1
   Preconditioning    =    JACOBI
   Convergence cutoff =     1E-06
   Maximum iterations =       100

  ==> CPHFRHamiltonian (by Rob Parrish) <== 

  ==> MemDFJK: Density-Fitted J/K Matrices <==

    J tasked:                   Yes
    K tasked:                   Yes
    wK tasked:                   No
    OpenMP threads:              32
    Memory [MiB]:             22888
    Algorithm:                 Core
    Schwarz Cutoff:           1E-12
    Mask sparsity (%):       5.6182
    Fitting Condition:        1E-10

   => Auxiliary Basis Set <=

  Basis Set: (AUG-CC-PVTZ AUX)
    Blend: AUG-CC-PVTZ-JKFIT
    Number of shells: 392
    Number of basis functions: 1326
    Number of Cartesian functions: 1632
    Spherical Harmonics?: true
    Max angular momentum: 4

  ==> CPHF Iterations <==

  => Iterations <=

             Iter  Converged  Remaining    Residual
  CGR           1          0          1   9.244E-02
  CGR           2          0          1   2.515E-02
  CGR           3          0          1   8.141E-03
  CGR           4          0          1   2.333E-03
  CGR           5          0          1   8.794E-04
  CGR           6          0          1   3.788E-04
  CGR           7          0          1   9.859E-05
  CGR           8          0          1   3.028E-05
  CGR           9          0          1   8.130E-06
  CGR          10          0          1   2.439E-06
  CGR          11          1          0   8.564E-07

    CGRSolver converged.

	-----------------------------------------------------------
	 ==================> DF-MP2 Energies <==================== 
	-----------------------------------------------------------
	 Reference Energy          =    -289.3075723796333136 [Eh]
	 Singles Energy            =      -0.0000000000000000 [Eh]
	 Same-Spin Energy          =      -0.3063068048895543 [Eh]
	 Opposite-Spin Energy      =      -1.0929688154330059 [Eh]
	 Correlation Energy        =      -1.3992756203225603 [Eh]
	 Total Energy              =    -290.7068479999558690 [Eh]
	-----------------------------------------------------------
	 ================> DF-SCS-MP2 Energies <================== 
	-----------------------------------------------------------
	 SCS Same-Spin Scale       =       0.3333333333333333 [-]
	 SCS Opposite-Spin Scale   =       1.2000000000000000 [-]
	 SCS Same-Spin Energy      =      -0.1021022682965181 [Eh]
	 SCS Opposite-Spin Energy  =      -1.3115625785196070 [Eh]
	 SCS Correlation Energy    =      -1.4136648468161250 [Eh]
	 SCS Total Energy          =    -290.7212372264494320 [Eh]
	-----------------------------------------------------------



Properties will be evaluated at  -0.000000,  -0.000000,   0.000000 [a0]

Properties computed using the MP2 density matrix

  Nuclear Dipole Moment: [e a0]
     X:    -0.7424      Y:     1.5093      Z:     1.8318

  Electronic Dipole Moment: [e a0]
     X:     0.4520      Y:    -0.8011      Z:    -1.6825

  Dipole Moment: [e a0]
     X:    -0.2904      Y:     0.7082      Z:     0.1494     Total:     0.7799

  Dipole Moment: [D]
     X:    -0.7382      Y:     1.8001      Z:     0.3797     Total:     1.9823


*** tstop() called on c403-114.stampede2.tacc.utexas.edu at Mon Mar  1 08:59:19 2021
Module time:
	user time   =    1346.83 seconds =      22.45 minutes
	system time =      50.07 seconds =       0.83 minutes
	total time  =        150 seconds =       2.50 minutes
Total time:
	user time   =    1815.33 seconds =      30.26 minutes
	system time =      85.19 seconds =       1.42 minutes
	total time  =        179 seconds =       2.98 minutes

    Psi4 stopped on: Monday, 01 March 2021 08:59AM
    Psi4 wall time for execution: 0:03:00.10

*** Psi4 exiting successfully. Buy a developer a beer!
