opt=Tight                                                               
Freq      RMP2-FC                                                     6-31G(d)            
Number of atoms                            I                6
Info1-9                                    I   N=           9
          15          15        1002           0           0         100
           6           2           1
Charge                                     I                0
Multiplicity                               I                1
Number of electrons                        I               18
Number of alpha electrons                  I                9
Number of beta electrons                   I                9
Number of basis functions                  I               38
Number of independent functions            I               38
Number of point charges in /Mol/           I                0
Number of translation vectors              I                0
Atomic numbers                             I   N=           6
           8           1           6           1           1           1
Nuclear charges                            R   N=           6
  8.00000000E+00  1.00000000E+00  6.00000000E+00  1.00000000E+00  1.00000000E+00
  1.00000000E+00
Current cartesian coordinates              R   N=          18
  1.41892921E+00  2.31875066E-01 -1.04984785E-07  2.13825913E+00 -1.45439559E+00
 -1.04984785E-07 -1.25948735E+00 -3.67967473E-02 -1.04984785E-07 -2.03138756E+00
  1.87276773E+00 -3.77945227E-06 -1.95069626E+00 -1.02630270E+00 -1.68561114E+00
 -1.95069815E+00 -1.02629514E+00  1.68561303E+00
Force Field                                I                0
Int Atom Types                             I   N=           6
           0           0           0           0           0           0
MM charges                                 R   N=           6
  0.00000000E+00  0.00000000E+00  0.00000000E+00  0.00000000E+00  0.00000000E+00
  0.00000000E+00
Integer atomic weights                     I   N=           6
          16           1          12           1           1           1
Real atomic weights                        R   N=           6
  1.59949146E+01  1.00782504E+00  1.20000000E+01  1.00782504E+00  1.00782504E+00
  1.00782504E+00
Atom fragment info                         I   N=           6
           0           0           0           0           0           0
Atom residue num                           I   N=           6
           0           0           0           0           0           0
Nuclear spins                              I   N=           6
           0           1           0           1           1           1
Nuclear ZEff                               R   N=           6
 -5.60000000E+00 -1.00000000E+00 -3.60000000E+00 -1.00000000E+00 -1.00000000E+00
 -1.00000000E+00
Nuclear QMom                               R   N=           6
  0.00000000E+00  0.00000000E+00  0.00000000E+00  0.00000000E+00  0.00000000E+00
  0.00000000E+00
Nuclear GFac                               R   N=           6
  0.00000000E+00  2.79284600E+00  0.00000000E+00  2.79284600E+00  2.79284600E+00
  2.79284600E+00
MicOpt                                     I   N=           6
          -1          -1          -1          -1          -1          -1
Number of contracted shells                I               16
Number of primitive shells                 I               38
Pure/Cartesian d shells                    I                1
Pure/Cartesian f shells                    I                0
Highest angular momentum                   I                2
Largest degree of contraction              I                6
Shell types                                I   N=          16
           0          -1          -1           2           0           0
           0          -1          -1           2           0           0
           0           0           0           0
Number of primitives per shell             I   N=          16
           6           3           1           1           3           1
           6           3           1           1           3           1
           3           1           3           1
Shell to atom map                          I   N=          16
           1           1           1           1           2           2
           3           3           3           3           4           4
           5           5           6           6
Primitive exponents                        R   N=          38
  5.48467166E+03  8.25234946E+02  1.88046958E+02  5.29645000E+01  1.68975704E+01
  5.79963534E+00  1.55396162E+01  3.59993359E+00  1.01376175E+00  2.70005823E-01
  8.00000000E-01  1.87311370E+01  2.82539436E+00  6.40121692E-01  1.61277759E-01
  3.04752488E+03  4.57369518E+02  1.03948685E+02  2.92101553E+01  9.28666296E+00
  3.16392696E+00  7.86827235E+00  1.88128854E+00  5.44249258E-01  1.68714478E-01
  8.00000000E-01  1.87311370E+01  2.82539436E+00  6.40121692E-01  1.61277759E-01
  1.87311370E+01  2.82539436E+00  6.40121692E-01  1.61277759E-01  1.87311370E+01
  2.82539436E+00  6.40121692E-01  1.61277759E-01
Contraction coefficients                   R   N=          38
  1.83107443E-03  1.39501722E-02  6.84450781E-02  2.32714336E-01  4.70192898E-01
  3.58520853E-01 -1.10777550E-01 -1.48026263E-01  1.13076702E+00  1.00000000E+00
  1.00000000E+00  3.34946043E-02  2.34726953E-01  8.13757326E-01  1.00000000E+00
  1.83473713E-03  1.40373228E-02  6.88426223E-02  2.32184443E-01  4.67941348E-01
  3.62311985E-01 -1.19332420E-01 -1.60854152E-01  1.14345644E+00  1.00000000E+00
  1.00000000E+00  3.34946043E-02  2.34726953E-01  8.13757326E-01  1.00000000E+00
  3.34946043E-02  2.34726953E-01  8.13757326E-01  1.00000000E+00  3.34946043E-02
  2.34726953E-01  8.13757326E-01  1.00000000E+00
P(S=P) Contraction coefficients            R   N=          38
  0.00000000E+00  0.00000000E+00  0.00000000E+00  0.00000000E+00  0.00000000E+00
  0.00000000E+00  7.08742682E-02  3.39752839E-01  7.27158577E-01  1.00000000E+00
  0.00000000E+00  0.00000000E+00  0.00000000E+00  0.00000000E+00  0.00000000E+00
  0.00000000E+00  0.00000000E+00  0.00000000E+00  0.00000000E+00  0.00000000E+00
  0.00000000E+00  6.89990666E-02  3.16423961E-01  7.44308291E-01  1.00000000E+00
  0.00000000E+00  0.00000000E+00  0.00000000E+00  0.00000000E+00  0.00000000E+00
  0.00000000E+00  0.00000000E+00  0.00000000E+00  0.00000000E+00  0.00000000E+00
  0.00000000E+00  0.00000000E+00  0.00000000E+00
Coordinates of each shell                  R   N=          48
  1.41892988E+00  2.31875809E-01  8.74873210E-08  1.41892988E+00  2.31875809E-01
  8.74873210E-08  1.41892988E+00  2.31875809E-01  8.74873210E-08  1.41892988E+00
  2.31875809E-01  8.74873210E-08  2.13826031E+00 -1.45439463E+00  8.74873210E-08
  2.13826031E+00 -1.45439463E+00  8.74873210E-08 -1.25948660E+00 -3.67968126E-02
  8.74873210E-08 -1.25948660E+00 -3.67968126E-02  8.74873210E-08 -1.25948660E+00
 -3.67968126E-02  8.74873210E-08 -1.25948660E+00 -3.67968126E-02  8.74873210E-08
 -2.03138739E+00  1.87276743E+00 -3.58698016E-06 -2.03138739E+00  1.87276743E+00
 -3.58698016E-06 -1.95069521E+00 -1.02630298E+00 -1.68561095E+00 -1.95069521E+00
 -1.02630298E+00 -1.68561095E+00 -1.95069710E+00 -1.02629542E+00  1.68561323E+00
 -1.95069710E+00 -1.02629542E+00  1.68561323E+00
Constraint Structure                       R   N=          18
  1.41892988E+00  2.31875809E-01  8.74873210E-08  2.13826031E+00 -1.45439463E+00
  8.74873210E-08 -1.25948660E+00 -3.67968126E-02  8.74873210E-08 -2.03138739E+00
  1.87276743E+00 -3.58698016E-06 -1.95069521E+00 -1.02630298E+00 -1.68561095E+00
 -1.95069710E+00 -1.02629542E+00  1.68561323E+00
Num ILSW                                   I              100
ILSW                                       I   N=         100
           0           1           0           0           2           0
           0           0           0           0           0          -1
           0           0           0           0           0           0
           0           0           0           0           1           0
           1           0           0           0           0           0
           0           0      100000           0          -1           0
           0           0           0           0           0           0
           0           0           0           1           1           0
           0           0           1           0           0           0
           0           0           4          40           0           0
           0           0           0           0           0           0
           0           0           0           0           0           0
           0           0           0           0           0           0
           0           0           0           0           0           0
           0           0           0           0           0           0
           0           0           0           0           0           0
           0           0           0           0
Num RLSW                                   I               40
RLSW                                       R   N=          40
  1.00000000E+00  1.00000000E+00  1.00000000E+00  1.00000000E+00  1.00000000E+00
  0.00000000E+00  0.00000000E+00  1.00000000E+00  0.00000000E+00  0.00000000E+00
  0.00000000E+00  0.00000000E+00  1.00000000E+00  0.00000000E+00  0.00000000E+00
  0.00000000E+00  0.00000000E+00  1.00000000E+00  0.00000000E+00  0.00000000E+00
  0.00000000E+00  0.00000000E+00  1.00000000E+00  0.00000000E+00  0.00000000E+00
  0.00000000E+00  0.00000000E+00  1.00000000E+00  0.00000000E+00  0.00000000E+00
  0.00000000E+00  0.00000000E+00  0.00000000E+00  0.00000000E+00  0.00000000E+00
  0.00000000E+00  0.00000000E+00  0.00000000E+00  1.00000000E+00  1.00000000E+00
MxBond                                     I                4
NBond                                      I   N=           6
           2           1           4           1           1           1
IBond                                      I   N=          24
           2           3           0           0           1           0
           0           0           1           4           5           6
           3           0           0           0           3           0
           0           0           3           0           0           0
RBond                                      R   N=          24
  1.00000000E+00  1.00000000E+00  0.00000000E+00  0.00000000E+00  1.00000000E+00
  0.00000000E+00  0.00000000E+00  0.00000000E+00  1.00000000E+00  1.00000000E+00
  1.00000000E+00  1.00000000E+00  1.00000000E+00  0.00000000E+00  0.00000000E+00
  0.00000000E+00  1.00000000E+00  0.00000000E+00  0.00000000E+00  0.00000000E+00
  1.00000000E+00  0.00000000E+00  0.00000000E+00  0.00000000E+00
Virial Ratio                               R      2.002681820661001E+00
SCF Energy                                 R     -1.150341164204556E+02
MP2 Energy                                 R     -1.153461355843294E+02
Total Energy                               R     -1.153461355843294E+02
Post-SCF wavefunction norm                 R      1.477052992270219E+00
RMS Force                                  R      1.036676256815058E-06
RMS Density                                R      2.500420015796961E-10
External E-field                           R   N=          35
  0.00000000E+00  0.00000000E+00  0.00000000E+00  0.00000000E+00  0.00000000E+00
  0.00000000E+00  0.00000000E+00  0.00000000E+00  0.00000000E+00  0.00000000E+00
  0.00000000E+00  0.00000000E+00  0.00000000E+00  0.00000000E+00  0.00000000E+00
  0.00000000E+00  0.00000000E+00  0.00000000E+00  0.00000000E+00  0.00000000E+00
  0.00000000E+00  0.00000000E+00  0.00000000E+00  0.00000000E+00  0.00000000E+00
  0.00000000E+00  0.00000000E+00  0.00000000E+00  0.00000000E+00  0.00000000E+00
  0.00000000E+00  0.00000000E+00  0.00000000E+00  0.00000000E+00  0.00000000E+00
IOpCl                                      I                0
IROHF                                      I                0
Alpha Orbital Energies                     R   N=          38
 -2.05598496E+01 -1.12723075E+01 -1.34778604E+00 -9.21863780E-01 -6.83551134E-01
 -6.15423898E-01 -5.86267622E-01 -4.99579753E-01 -4.45284411E-01  2.22684059E-01
  2.76411374E-01  3.19257462E-01  3.26938418E-01  3.79426960E-01  7.62186077E-01
  7.76974559E-01  7.86959565E-01  1.04792574E+00  1.12209793E+00  1.14513948E+00
  1.17252166E+00  1.20532036E+00  1.25515666E+00  1.26668136E+00  1.40528136E+00
  1.72348128E+00  1.77633071E+00  1.85857099E+00  2.03804198E+00  2.36682244E+00
  2.44360220E+00  2.45535873E+00  2.67832172E+00  2.73292943E+00  2.78310434E+00
  3.15176900E+00  4.11464269E+00  4.63693052E+00
Alpha MO coefficients                      R   N=        1444
  9.94662961E-01  2.11423172E-02 -6.40964548E-04 -1.15286558E-03  2.39209732E-10
  3.91806503E-03  3.03426507E-04  5.29328953E-04 -1.25286108E-10 -4.19185554E-03
 -4.05981328E-03 -3.83279977E-03  3.78898841E-05  5.43862320E-11  3.32489354E-11
  3.87439659E-04 -2.19314689E-04 -1.99344921E-05  2.52818752E-04  3.61647417E-04
  5.50504973E-05  2.55250532E-11  7.18484236E-05 -1.24875805E-04 -2.64387083E-04
  1.27797673E-10  5.42791830E-05 -7.40356142E-05 -4.10368876E-05 -4.74158375E-06
 -4.32479524E-12  1.13857165E-10  1.37375509E-05  1.41404979E-05 -4.35539821E-05
 -1.14151564E-04 -4.35538102E-05 -1.14151557E-04 -1.46001956E-04  1.39674503E-04
 -1.09973779E-04 -5.33944889E-05 -6.93486055E-11  1.25484861E-03  1.13814111E-04
  1.56770855E-04  5.57016493E-10 -8.00898845E-04 -6.29681930E-06  5.39737733E-05
 -5.37347086E-05 -2.27577423E-10 -1.57697860E-11  2.32917493E-05  3.24306017E-04
  9.95769111E-01  2.73760015E-02  7.21342317E-04  1.00773299E-05  4.40773792E-10
 -1.19646243E-02  4.69019984E-04 -2.42982373E-05 -1.02308084E-09 -1.61135848E-03
 -1.76677703E-03 -1.79961715E-03  1.87246025E-05 -6.55704449E-10 -5.94209010E-10
  7.67937876E-05  2.46313361E-03  5.99860784E-05  2.43122949E-03  5.99856916E-05
  2.43123262E-03 -2.03156662E-01  4.58696255E-01 -4.58409426E-02 -7.09709268E-02
 -3.04948401E-09  4.31442118E-01 -2.59139964E-02 -4.21024963E-02 -1.19618702E-09
  1.67932260E-02  2.12013088E-02 -1.13721102E-03 -4.71979442E-03 -8.86240385E-10
  6.95037352E-11  1.20605508E-01 -2.27707312E-03 -6.89925935E-02  1.26193854E-01
  9.37609438E-02  5.58614010E-03  6.41598305E-09  5.06370798E-02  1.64125016E-03
 -4.66728904E-03  1.20892671E-08  2.43568671E-02 -4.82892338E-03 -5.56891479E-03
  1.73727871E-03 -9.72759033E-10  1.51291582E-09  2.48297761E-02  6.39487277E-03
  2.37202469E-02  2.08082039E-03  2.37202567E-02  2.08079895E-03  5.97042233E-02
 -1.34193435E-01 -1.79536109E-01  6.21575450E-02  1.44958249E-08 -1.86669973E-01
 -9.22564503E-02  3.58549636E-02  5.05004670E-09  1.61286107E-02 -1.52376276E-02
 -4.69311705E-04  1.27794556E-02 -3.57409452E-09 -8.78256013E-10 -1.00162169E-01
 -2.51109360E-02 -1.77532215E-01  3.44272609E-01 -7.22778206E-02  8.98441824E-03
  1.47469574E-07  3.33245916E-01 -3.83594921E-02 -8.82973629E-03  2.86357336E-08
 -4.26382438E-03  1.36724544E-02  1.15480545E-02  7.28960970E-04 -3.09161859E-08
 -1.04048989E-08  1.42597291E-01  4.38306790E-02  1.35790699E-01  3.71421887E-02
  1.35790935E-01  3.71422329E-02 -3.99445132E-02  9.14648117E-02 -2.18024423E-01
  3.66762772E-01 -1.57990857E-07  1.59017315E-01 -1.30080938E-01  2.25821329E-01
 -9.16515038E-08  1.71465042E-02 -3.71892746E-02  5.17493495E-03  5.88868842E-03
  6.79877790E-09  7.48946814E-09 -2.13113572E-01 -1.04130397E-01  2.00295938E-02
 -3.36597204E-02  1.68853638E-01  2.23944616E-01 -3.56777226E-07 -7.91453078E-02
  4.99498727E-02  1.04154872E-01 -1.48984804E-07  1.90829675E-02  1.83485629E-04
 -2.11489999E-02  4.72608162E-03  3.40561545E-08 -4.86920843E-08  5.74500932E-02
  3.31925586E-02 -1.08423110E-01 -6.42649801E-02 -1.08423140E-01 -6.42649273E-02
 -1.23909958E-07  2.84963565E-07  7.02234119E-07  6.44799645E-07  3.37478316E-01
  5.10124457E-07  4.78128592E-07  4.29249195E-07  2.26893408E-01 -2.04498831E-08
 -3.15567484E-08  2.33422568E-08 -5.56789875E-08 -1.30495555E-02 -1.53021540E-02
 -8.14327029E-08 -2.69321090E-08  4.70276045E-08 -6.47360825E-08 -5.79254991E-07
  4.99231073E-07  3.79589379E-01 -1.24014714E-07 -1.95280030E-07  3.03383761E-07
  1.74988714E-01 -3.22878001E-08 -8.35632813E-08  1.00230230E-07  3.54296778E-09
 -6.40664711E-03 -2.38420023E-02 -6.77137925E-08 -7.64083247E-08 -1.84651692E-01
 -1.42950753E-01  1.84651901E-01  1.42950840E-01 -2.55787821E-02  6.15976881E-02
  3.92426487E-01  1.34924806E-01 -8.54754481E-07  9.66626975E-02  2.72036977E-01
  9.25026615E-02 -5.94771588E-07 -1.43819095E-02  2.82195633E-03  7.15401212E-03
 -2.83135723E-02  3.33578707E-08  3.58788040E-08  4.78897214E-02  4.49742626E-02
  1.16194068E-03 -3.97560685E-03 -2.99501334E-01  2.32223075E-01 -7.40857159E-07
  4.30223447E-02 -1.16665869E-01  1.40346093E-01 -3.88641741E-07 -2.86486479E-02
  2.84182505E-02  1.94182795E-03 -1.33462250E-02 -4.70556614E-09 -5.26374540E-08
  2.06764580E-01  1.43190885E-01 -7.25181506E-03 -2.88288301E-03 -7.25192765E-03
 -2.88300483E-03 -4.96064165E-02  1.09448838E-01  1.64908274E-01  3.78098671E-01
 -3.42251729E-07  2.33224271E-01  1.33297190E-01  2.92851545E-01 -2.63827696E-07
 -5.54186027E-03 -2.90213708E-02  8.92006850E-03 -4.36927380E-03  6.62170822E-09
  2.25612241E-08 -1.38936358E-01 -1.00318992E-01  8.45484624E-03 -2.13682690E-02
 -8.89245387E-02 -3.18034987E-01  3.33640336E-08  2.05120223E-03 -1.98506768E-02
 -1.47179143E-01 -6.01424943E-08 -1.16025717E-02 -1.28541793E-02  2.40593643E-02
  2.99123294E-02 -3.49930983E-08  1.25629342E-07 -1.98739615E-01 -1.80268375E-01
  1.23082523E-01  1.24285523E-01  1.23081874E-01  1.24284909E-01  9.73505474E-10
 -2.05481697E-09  2.66663578E-07  1.77911005E-07  5.47992650E-01 -3.35754003E-08
  2.09411424E-07  1.62134016E-07  4.55287335E-01 -6.51608916E-09 -2.73630817E-09
  4.35046328E-09 -1.35842401E-08 -6.98499971E-03 -2.16802085E-02 -1.08353911E-08
  3.60276376E-08 -1.53936847E-08 -1.86383627E-08 -8.51514123E-08 -6.05593953E-08
 -2.38226640E-01  2.48613238E-07 -7.10556621E-08 -8.04659457E-08 -1.00712481E-01
 -3.80207076E-08  1.14964910E-07 -7.07378872E-08 -6.51045615E-09  3.54144167E-02
  2.20553741E-02  3.75314134E-07  4.25199098E-07  1.65845228E-01  1.79973002E-01
 -1.65845403E-01 -1.79973203E-01  7.98584555E-02 -5.86461558E-02 -3.11474038E-02
  1.92119661E-01 -1.36843890E-07 -1.09657954E+00 -6.66778849E-02  4.65842204E-01
 -3.06227071E-07  3.98575728E-02  2.69353733E-02  5.09184523E-02 -1.09319560E-03
 -7.85096826E-09  1.54722405E-08  6.30042066E-02  1.24656866E+00  5.29611890E-02
 -2.95671678E-02  1.55357442E-01  4.70146594E-02  4.67545613E-07 -1.02055717E+00
  5.91856376E-01  9.03329144E-02  1.49783101E-06 -2.06151506E-03  1.55396481E-02
  9.20033947E-03  2.58385183E-03  5.72678280E-10  8.67345071E-09  5.24796250E-03
  4.46748205E-01 -1.20819450E-03  6.23112474E-01 -1.20837036E-03  6.23109886E-01
  5.77902151E-02 -1.83796392E-02  4.56641517E-02  1.31743850E-01 -1.29150306E-08
 -8.85746314E-01  1.65183655E-01  3.08595369E-01 -5.50490758E-08  4.10304922E-02
  2.54291225E-02  3.94247557E-02 -4.23298960E-03  8.52510518E-09 -4.05721703E-09
  4.80967571E-02  7.61192069E-01 -1.39859411E-01  1.19322993E-01 -5.83051420E-02
  4.57354711E-03 -1.28028501E-07  2.43379827E+00 -1.83498160E-01  2.39315258E-02
  3.26539248E-08 -1.17118741E-02 -7.68237712E-04 -7.01284591E-03  2.53362132E-03
 -1.47044397E-08 -1.30308056E-08  9.39224770E-04 -1.12244490E+00 -5.63518043E-04
 -1.07666606E+00 -5.63434888E-04 -1.07666683E+00  7.82424624E-03 -8.49686512E-03
  7.94191251E-02  4.39721584E-02  3.82460877E-07 -1.21921656E-01  1.55374736E-01
  1.79004690E-01  1.30326638E-06 -3.56281021E-03  3.05763808E-03  2.46715383E-04
  8.96357035E-03  4.34696677E-08 -1.11537654E-07 -2.23514111E-02 -1.60411023E-01
 -1.00339691E-02  1.11260610E-03  6.22819394E-02 -3.34366086E-01 -1.99118523E-06
  1.01290027E-01  3.66093482E-01 -1.44893852E+00 -7.64151957E-06 -6.54698349E-03
  1.50121174E-02 -8.53080018E-03 -4.99165347E-03  2.78721142E-08 -1.37212771E-07
  6.36025799E-02  1.91624931E+00 -2.44959962E-02 -8.72226992E-01 -2.44955535E-02
 -8.72204100E-01  3.01097752E-08 -2.53700851E-09 -7.32743266E-07  6.03074340E-08
  8.16343641E-02 -5.54124109E-07 -1.45141919E-06 -1.63725664E-07  2.51520630E-01
  6.65123034E-08 -3.85302781E-08  7.71950078E-08 -4.36528126E-08  7.43700939E-03
 -1.18383790E-02  1.37783623E-07  3.30805217E-06  1.55521501E-07 -5.15648893E-08
 -2.40090332E-07  1.71098164E-06 -3.69908281E-01 -3.73322724E-06 -1.16350208E-06
  7.51918806E-06 -1.48938620E+00  7.32863869E-08 -1.27627104E-07  9.05328436E-08
  4.98753414E-08  2.17437882E-03 -1.10599038E-02 -5.00441590E-07 -1.29019778E-05
 -3.00855734E-02 -1.65218332E+00  3.00856539E-02  1.65219879E+00  5.08516419E-02
 -3.99039778E-02  3.10100186E-01 -1.04784682E-01  3.98035947E-08 -8.40461230E-01
  9.70945365E-01 -2.66942102E-01  1.78797775E-07 -7.61862262E-03  2.99551468E-02
  2.79384131E-02 -1.22748201E-02  9.26063258E-10  4.40961564E-09 -2.71276280E-02
 -9.16432948E-01 -6.13739749E-02  4.52825908E-02  1.99194863E-01  5.29550080E-02
 -1.88905301E-07  9.11475834E-01  1.53850213E+00  4.88210685E-01 -1.38573083E-06
 -1.25832561E-02  1.12808790E-02  2.25056716E-02 -7.26770129E-03  1.23528291E-08
  2.74085692E-08  4.42545293E-02 -3.34912988E-01  6.04208515E-02  3.24507674E-01
  6.04207071E-02  3.24509954E-01  5.15431072E-03 -5.15192254E-02 -1.74443588E-01
 -5.86381943E-02  1.83744100E-06 -1.88213490E-01  6.74219681E-02 -1.48646146E-01
  1.93207459E-06 -8.16393057E-02  3.56641975E-03 -1.47893612E-04 -9.96163209E-03
 -4.38913282E-08 -7.97945456E-08  1.31361269E-01  8.97166183E-02  1.09721496E-02
 -1.26932770E-01 -2.34995169E-01 -6.99915186E-01  6.62282891E-06  1.72629383E-01
  2.47339497E-01  1.54401616E+00 -1.59236404E-05  3.35263729E-02 -9.57642936E-02
  7.40162708E-02  5.32299943E-02 -3.48066098E-07 -3.92000154E-07 -4.67364153E-01
 -2.73285861E-01  2.61637913E-01  1.21590141E-01  2.61644753E-01  1.21595176E-01
  4.24373672E-08 -6.35687327E-07 -1.40312224E-06 -6.09384149E-07 -1.93217662E-01
 -7.21240457E-07  3.46045648E-07 -1.49174601E-06 -1.95254633E-01 -6.72713402E-07
  2.27553484E-08 -1.52859716E-07 -1.03714097E-07  4.53793139E-03  1.83694158E-02
  1.30684250E-06  8.86168776E-07  4.68533335E-08 -1.21023461E-06 -1.44011179E-06
 -7.02415589E-06 -7.18419803E-01  2.96721302E-06 -1.79756771E-08  1.53984328E-05
  1.67273829E+00  2.26819820E-07 -3.85576691E-07  3.22015875E-07  4.67257756E-07
  2.99084223E-02  1.08548550E-01 -3.76726175E-06 -2.88519187E-06  4.33741986E-01
  3.15510411E-01 -4.33737972E-01 -3.15509962E-01 -1.91115347E-02  2.60698796E-01
 -2.25170378E-01 -2.97569314E-02 -1.00119226E-07 -7.35566482E-01  1.08675927E-02
  1.14858260E-01 -1.55433846E-07 -9.74778889E-02  1.19581564E-01  1.10815283E-01
 -1.13635045E-02  4.10614889E-08 -1.95165549E-08  8.15734383E-02 -2.47808474E-01
  3.75331281E-02 -4.05535136E-01 -9.67069384E-01  1.97701034E-01 -9.32412333E-07
  3.97608454E-01  1.23725742E+00 -4.96394472E-01  1.34045871E-06  4.54933959E-02
 -4.50350635E-03 -5.61846263E-02  5.41774645E-03 -2.96028154E-09 -1.08918203E-07
  2.26341289E-01  1.85585381E-01  3.70901291E-02 -2.89284191E-02  3.70901203E-02
 -2.89281263E-02 -2.65493203E-02  2.32562291E-02 -1.48405005E-01 -2.38377217E-01
  2.43773692E-08 -1.72218396E-02  4.11964145E-01 -2.55887171E-01 -1.53334775E-07
 -5.19701600E-02 -1.10984874E-01  7.24897039E-02  1.43711898E-01  5.99099332E-08
  7.95631560E-08 -8.82976976E-01  4.98275770E-01 -2.03615751E-03 -7.65466871E-02
 -1.16339164E-01 -5.31685284E-01 -8.66935491E-07  3.19400937E-01  7.68340231E-02
  1.00129246E+00  1.62162126E-06  1.10642483E-01 -7.63289536E-03 -7.22070876E-02
 -1.38122577E-01 -2.62496012E-08 -5.13100881E-07  3.16045360E-01 -9.76156703E-01
 -3.27233998E-01  4.87518716E-01 -3.27231366E-01  4.87512541E-01  9.15235330E-08
  2.34618817E-07  1.34299492E-06  1.38306151E-06  1.89348893E-01  2.53952685E-07
 -2.40796599E-06 -3.78635968E-07 -2.75427882E-01  3.84663140E-07  5.36676753E-07
 -1.69948208E-07 -1.61677788E-07  1.05348076E-01  2.05274679E-02  2.40150593E-06
 -1.41635958E-06 -1.43750532E-07  4.59847908E-06 -6.85996827E-07 -1.04343784E-06
 -8.90635940E-01 -1.02672728E-05  5.30989816E-07  1.10418163E-06  1.37796303E+00
  2.39007658E-08 -2.31739386E-07  6.11280812E-07  8.72726569E-08 -1.41849793E-01
 -1.49905645E-01 -1.81236538E-06  4.76683964E-06 -6.58903630E-01  1.35101461E+00
  6.58901358E-01 -1.35100958E+00 -1.56731095E-02 -6.56590637E-01 -2.09188404E-01
 -5.11709382E-01 -4.68622131E-07  1.15083630E+00  4.49812807E-01  4.97592763E-01
  3.66688080E-07 -2.59421987E-01 -2.41552446E-01 -2.00628674E-01 -9.19621965E-03
  1.35937906E-07 -5.67937520E-08 -8.14224037E-02 -3.09883556E-01 -5.35707291E-02
 -3.55335519E-01 -6.83047448E-02  5.08270057E-01 -1.31187231E-06  1.23481104E+00
 -8.17396486E-02 -9.55181989E-01  2.22580947E-06  7.37886177E-02 -1.11788717E-01
 -2.43307244E-02  5.88620497E-02 -1.11046674E-07 -7.77279710E-08 -6.46143927E-01
  6.85649468E-01 -1.72956462E-01 -5.44386830E-01 -1.72955254E-01 -5.44389568E-01
 -7.33868777E-04 -6.22462956E-01  1.28911124E-01  2.32583672E-01 -1.04549064E-06
  1.11051571E+00 -2.47955361E-01 -4.04268279E-02  1.31993126E-06 -2.59213734E-01
 -5.32910376E-02 -2.19032464E-01 -7.95740659E-03 -2.77922920E-07 -6.11292667E-08
  6.22183266E-01 -7.23022048E-01 -7.63393426E-02 -4.29070752E-01 -5.22022987E-02
 -4.43466920E-01  2.05502146E-06  1.15005127E+00 -2.83980939E-01  4.56585301E-01
 -3.12966413E-06 -7.17082747E-02  7.35325355E-02 -1.61281353E-01 -5.71893764E-02
  5.75603772E-07 -5.92615793E-07  1.36830449E-01 -9.58887123E-01 -5.92893050E-01
  2.63422447E-01 -5.92893677E-01  2.63424680E-01 -6.40684976E-03 -2.14762694E-01
 -2.58164488E-01 -9.62421156E-02  9.00647929E-07  2.20080185E-01  3.97807119E-01
  1.47239094E-01 -1.28410050E-06 -1.26645044E-01 -4.70162314E-02 -6.96974289E-02
  8.46806279E-03  3.68108615E-07  4.84287147E-08  8.24488830E-02 -1.77876044E-01
  3.15407364E-02 -1.42919502E+00  4.74605873E-01 -5.57133709E-02 -2.58909761E-06
  3.19352364E+00 -5.23251791E-01  1.51600917E-03  4.35557736E-06 -9.66179472E-02
 -1.37527851E-02 -8.44525662E-02 -1.28384780E-02 -5.86778936E-07 -7.02889693E-07
  5.86269567E-01 -1.19725992E+00  3.97554485E-01 -9.67470418E-01  3.97558815E-01
 -9.67479693E-01  2.88708432E-08  2.38425659E-06  3.21503761E-06  1.39172959E-06
 -9.26527153E-01 -6.21861471E-06 -2.74490291E-06 -2.82741602E-06  1.18961556E+00
  5.20602526E-07  4.37151029E-07  1.54762293E-06  1.73822469E-07  7.86300483E-02
 -2.89434311E-02 -2.64654744E-06  2.53143967E-06 -3.67772709E-07 -6.87519117E-06
  4.01352574E-07  1.06663246E-06 -1.36243122E-02  1.61833883E-05 -1.73127375E-06
  6.83010509E-07 -5.32666018E-01 -1.19511693E-06 -1.58779084E-06  9.81202418E-07
 -1.20070914E-07 -1.54024655E-02 -1.22154538E-01 -2.72496112E-06 -2.35157675E-06
 -1.88051747E-01 -1.91741335E-02  1.88052594E-01  1.91651914E-02 -8.03676376E-04
  2.48905252E-01  5.81941935E-01  1.44228935E-01  5.59236251E-06 -7.12728747E-01
 -5.52965726E-01 -3.64058741E-01 -7.35290732E-06  2.16885478E-02  4.70280349E-02
  2.01647140E-01  3.50591192E-02 -4.77548844E-07  2.29116400E-07 -4.17666351E-01
  3.86807798E-01 -8.09513715E-02 -1.18407778E+00  1.25792914E-02  1.60493435E-01
 -4.59584966E-07  2.88467424E+00 -4.25187519E-01  7.04417326E-02  4.39790569E-06
 -1.98306983E-01 -1.69108439E-01  5.42151639E-02 -3.77531101E-02  5.48535579E-08
  1.16097419E-06 -4.82621366E-01 -4.18192908E-01 -8.01449392E-02 -7.89524562E-01
 -8.01469320E-02 -7.89527113E-01  1.74347351E-02  4.52497577E-01  4.64833103E-01
 -7.81794843E-01 -3.96993028E-07 -9.67159216E-01 -9.69452826E-01  1.29569005E+00
  7.33121403E-07  1.34014179E-01  2.04279001E-01  6.41926538E-02 -2.32909445E-02
  1.03182239E-07 -1.15806926E-07  1.33405720E-01  1.03582029E+00  5.08134535E-03
  1.74855779E-01  6.11529348E-02 -2.37565539E-01  4.92904386E-07 -6.26827550E-01
 -3.58162898E-01 -2.50046124E-03 -1.64585506E-06 -1.14536475E-01  1.71785454E-01
 -8.79873427E-02  6.37694198E-02  2.96830608E-09 -6.69626610E-07  2.41262297E-01
 -2.75792739E-01 -7.02187239E-03  8.90424082E-02 -7.02147915E-03  8.90439932E-02
  9.13173409E-02  1.20996675E+00 -3.44962892E-01  7.41730556E-04  1.26310060E-07
 -3.66908368E+00  1.49674562E+00  9.93204641E-02 -7.85270282E-07  5.98690286E-01
  2.85335241E-01  1.75882351E-01 -2.68925421E-01 -1.93019498E-06 -8.04559575E-07
  1.18496010E-01 -5.83440256E-02 -7.34585695E-02 -9.06874596E-01  1.46572812E-01
 -9.37932680E-02 -4.89360454E-07  3.81435543E+00  9.56675977E-01  2.32231398E-01
  4.17590731E-07  1.46850911E-01  5.87789062E-02 -2.46670099E-01  2.73587971E-01
  2.76764429E-06 -2.39710984E-06 -2.65396471E-01 -5.42929977E-01 -3.74978562E-01
 -3.26178418E-01 -3.74977211E-01 -3.26180334E-01 -4.00875355E-07 -5.09816015E-06
  1.35921459E-06 -1.26700951E-07 -7.04725682E-03  1.59772065E-05 -6.78712729E-06
 -3.01410688E-07 -1.32380412E-01 -2.55905968E-06 -1.77048578E-06 -7.25428504E-08
  7.19430200E-07 -5.06335566E-01 -1.64183572E-01 -3.90166256E-07  5.69429966E-07
  4.11055616E-07  4.52606802E-06 -4.46887495E-07  2.44508480E-07 -1.88239098E-01
 -1.86605260E-05 -4.27862136E-06 -9.96259815E-07  1.34304354E-01 -9.86589765E-07
 -1.95569152E-06  3.20162997E-06 -3.57333335E-07  6.34967949E-01 -3.85329915E-01
  1.51025485E-06  2.88124675E-06 -1.30836020E-01  1.54303276E-01  1.30840465E-01
 -1.54300188E-01 -5.41780545E-02 -6.82104802E-01  1.19864960E-01  7.19226080E-02
  1.44406475E-07  2.01350972E+00 -5.20660389E-01 -5.26990982E-01 -2.25818344E-07
 -1.93958768E-01 -5.58032224E-01  1.81411813E-01 -4.37052160E-01  8.50345340E-07
 -5.91313924E-07 -3.61149962E-01 -1.50510438E-01  2.64668433E-02  2.56054667E-01
 -1.10442008E-01 -9.68204453E-02  9.29343060E-08 -1.40104416E+00 -4.08783129E-01
 -5.71828347E-02  1.07933083E-06 -1.60983865E-01  3.07895150E-01 -1.43576845E-01
  5.06083168E-01 -8.26199557E-07 -1.25361745E-06  2.27420875E-01  1.47990184E-01