056_Dimethylamine Gaussian SP Calculation on g2-node38.bme.utexas.edu   
Freq      RMP2-FC                                                     6-31G(d)            
Number of atoms                            I               10
Info1-9                                    I   N=           9
          21          20        1002           0           0         100
           6           2           1
Charge                                     I                0
Multiplicity                               I                1
Number of electrons                        I               26
Number of alpha electrons                  I               13
Number of beta electrons                   I               13
Number of basis functions                  I               59
Number of independent functions            I               59
Number of point charges in /Mol/           I                0
Number of translation vectors              I                0
Atomic numbers                             I   N=          10
           7           6           6           1           1           1
           1           1           1           1
Nuclear charges                            R   N=          10
  7.00000000E+00  6.00000000E+00  6.00000000E+00  1.00000000E+00  1.00000000E+00
  1.00000000E+00  1.00000000E+00  1.00000000E+00  1.00000000E+00  1.00000000E+00
Current cartesian coordinates              R   N=          30
 -3.41802799E-07  1.08524231E+00 -2.88869771E-01  2.27965188E+00 -4.26912986E-01
  3.93345664E-02 -2.27965030E+00 -4.26912114E-01  3.93357977E-02 -7.40291750E-08
  2.49665122E+00  1.01954351E+00  2.36341762E+00 -1.45724609E+00  1.85037354E+00
  3.94023756E+00  7.92698354E-01 -1.01104475E-01  2.38182215E+00 -1.82065020E+00
 -1.48400756E+00 -3.94023466E+00  7.92702446E-01 -1.01088194E-01 -2.36340976E+00
 -1.45726146E+00  1.85036604E+00 -2.38183994E+00 -1.82063984E+00 -1.48401664E+00
Force Field                                I                0
Int Atom Types                             I   N=          10
           0           0           0           0           0           0
           0           0           0           0
MM charges                                 R   N=          10
  0.00000000E+00  0.00000000E+00  0.00000000E+00  0.00000000E+00  0.00000000E+00
  0.00000000E+00  0.00000000E+00  0.00000000E+00  0.00000000E+00  0.00000000E+00
Integer atomic weights                     I   N=          10
          14          12          12           1           1           1
           1           1           1           1
Real atomic weights                        R   N=          10
  1.40030740E+01  1.20000000E+01  1.20000000E+01  1.00782504E+00  1.00782504E+00
  1.00782504E+00  1.00782504E+00  1.00782504E+00  1.00782504E+00  1.00782504E+00
Atom fragment info                         I   N=          10
           0           0           0           0           0           0
           0           0           0           0
Atom residue num                           I   N=          10
           0           0           0           0           0           0
           0           0           0           0
Nuclear spins                              I   N=          10
           2           0           0           1           1           1
           1           1           1           1
Nuclear ZEff                               R   N=          10
 -4.55000000E+00 -3.60000000E+00 -3.60000000E+00 -1.00000000E+00 -1.00000000E+00
 -1.00000000E+00 -1.00000000E+00 -1.00000000E+00 -1.00000000E+00 -1.00000000E+00
Nuclear QMom                               R   N=          10
  2.04400000E+00  0.00000000E+00  0.00000000E+00  0.00000000E+00  0.00000000E+00
  0.00000000E+00  0.00000000E+00  0.00000000E+00  0.00000000E+00  0.00000000E+00
Nuclear GFac                               R   N=          10
  4.03761000E-01  0.00000000E+00  0.00000000E+00  2.79284600E+00  2.79284600E+00
  2.79284600E+00  2.79284600E+00  2.79284600E+00  2.79284600E+00  2.79284600E+00
MicOpt                                     I   N=          10
          -1          -1          -1          -1          -1          -1
          -1          -1          -1          -1
Number of contracted shells                I               26
Number of primitive shells                 I               61
Pure/Cartesian d shells                    I                1
Pure/Cartesian f shells                    I                0
Highest angular momentum                   I                2
Largest degree of contraction              I                6
Shell types                                I   N=          26
           0          -1          -1           2           0          -1
          -1           2           0          -1          -1           2
           0           0           0           0           0           0
           0           0           0           0           0           0
           0           0
Number of primitives per shell             I   N=          26
           6           3           1           1           6           3
           1           1           6           3           1           1
           3           1           3           1           3           1
           3           1           3           1           3           1
           3           1
Shell to atom map                          I   N=          26
           1           1           1           1           2           2
           2           2           3           3           3           3
           4           4           5           5           6           6
           7           7           8           8           9           9
          10          10
Primitive exponents                        R   N=          61
  4.17351146E+03  6.27457911E+02  1.42902093E+02  4.02343293E+01  1.28202129E+01
  4.39043701E+00  1.16263619E+01  2.71627981E+00  7.72218397E-01  2.12031498E-01
  8.00000000E-01  3.04752488E+03  4.57369518E+02  1.03948685E+02  2.92101553E+01
  9.28666296E+00  3.16392696E+00  7.86827235E+00  1.88128854E+00  5.44249258E-01
  1.68714478E-01  8.00000000E-01  3.04752488E+03  4.57369518E+02  1.03948685E+02
  2.92101553E+01  9.28666296E+00  3.16392696E+00  7.86827235E+00  1.88128854E+00
  5.44249258E-01  1.68714478E-01  8.00000000E-01  1.87311370E+01  2.82539436E+00
  6.40121692E-01  1.61277759E-01  1.87311370E+01  2.82539436E+00  6.40121692E-01
  1.61277759E-01  1.87311370E+01  2.82539436E+00  6.40121692E-01  1.61277759E-01
  1.87311370E+01  2.82539436E+00  6.40121692E-01  1.61277759E-01  1.87311370E+01
  2.82539436E+00  6.40121692E-01  1.61277759E-01  1.87311370E+01  2.82539436E+00
  6.40121692E-01  1.61277759E-01  1.87311370E+01  2.82539436E+00  6.40121692E-01
  1.61277759E-01
Contraction coefficients                   R   N=          61
  1.83477216E-03  1.39946270E-02  6.85865518E-02  2.32240873E-01  4.69069948E-01
  3.60455199E-01 -1.14961182E-01 -1.69117479E-01  1.14585195E+00  1.00000000E+00
  1.00000000E+00  1.83473713E-03  1.40373228E-02  6.88426223E-02  2.32184443E-01
  4.67941348E-01  3.62311985E-01 -1.19332420E-01 -1.60854152E-01  1.14345644E+00
  1.00000000E+00  1.00000000E+00  1.83473713E-03  1.40373228E-02  6.88426223E-02
  2.32184443E-01  4.67941348E-01  3.62311985E-01 -1.19332420E-01 -1.60854152E-01
  1.14345644E+00  1.00000000E+00  1.00000000E+00  3.34946043E-02  2.34726953E-01
  8.13757326E-01  1.00000000E+00  3.34946043E-02  2.34726953E-01  8.13757326E-01
  1.00000000E+00  3.34946043E-02  2.34726953E-01  8.13757326E-01  1.00000000E+00
  3.34946043E-02  2.34726953E-01  8.13757326E-01  1.00000000E+00  3.34946043E-02
  2.34726953E-01  8.13757326E-01  1.00000000E+00  3.34946043E-02  2.34726953E-01
  8.13757326E-01  1.00000000E+00  3.34946043E-02  2.34726953E-01  8.13757326E-01
  1.00000000E+00
P(S=P) Contraction coefficients            R   N=          61
  0.00000000E+00  0.00000000E+00  0.00000000E+00  0.00000000E+00  0.00000000E+00
  0.00000000E+00  6.75797439E-02  3.23907296E-01  7.40895140E-01  1.00000000E+00
  0.00000000E+00  0.00000000E+00  0.00000000E+00  0.00000000E+00  0.00000000E+00
  0.00000000E+00  0.00000000E+00  6.89990666E-02  3.16423961E-01  7.44308291E-01
  1.00000000E+00  0.00000000E+00  0.00000000E+00  0.00000000E+00  0.00000000E+00
  0.00000000E+00  0.00000000E+00  0.00000000E+00  6.89990666E-02  3.16423961E-01
  7.44308291E-01  1.00000000E+00  0.00000000E+00  0.00000000E+00  0.00000000E+00
  0.00000000E+00  0.00000000E+00  0.00000000E+00  0.00000000E+00  0.00000000E+00
  0.00000000E+00  0.00000000E+00  0.00000000E+00  0.00000000E+00  0.00000000E+00
  0.00000000E+00  0.00000000E+00  0.00000000E+00  0.00000000E+00  0.00000000E+00
  0.00000000E+00  0.00000000E+00  0.00000000E+00  0.00000000E+00  0.00000000E+00
  0.00000000E+00  0.00000000E+00  0.00000000E+00  0.00000000E+00  0.00000000E+00
  0.00000000E+00
Coordinates of each shell                  R   N=          78
 -3.41802799E-07  1.08524231E+00 -2.88869771E-01 -3.41802799E-07  1.08524231E+00
 -2.88869771E-01 -3.41802799E-07  1.08524231E+00 -2.88869771E-01 -3.41802799E-07
  1.08524231E+00 -2.88869771E-01  2.27965188E+00 -4.26912986E-01  3.93345664E-02
  2.27965188E+00 -4.26912986E-01  3.93345664E-02  2.27965188E+00 -4.26912986E-01
  3.93345664E-02  2.27965188E+00 -4.26912986E-01  3.93345664E-02 -2.27965030E+00
 -4.26912114E-01  3.93357977E-02 -2.27965030E+00 -4.26912114E-01  3.93357977E-02
 -2.27965030E+00 -4.26912114E-01  3.93357977E-02 -2.27965030E+00 -4.26912114E-01
  3.93357977E-02 -7.40291756E-08  2.49665122E+00  1.01954351E+00 -7.40291756E-08
  2.49665122E+00  1.01954351E+00  2.36341762E+00 -1.45724609E+00  1.85037354E+00
  2.36341762E+00 -1.45724609E+00  1.85037354E+00  3.94023756E+00  7.92698354E-01
 -1.01104475E-01  3.94023756E+00  7.92698354E-01 -1.01104475E-01  2.38182215E+00
 -1.82065020E+00 -1.48400756E+00  2.38182215E+00 -1.82065020E+00 -1.48400756E+00
 -3.94023466E+00  7.92702446E-01 -1.01088194E-01 -3.94023466E+00  7.92702446E-01
 -1.01088194E-01 -2.36340976E+00 -1.45726146E+00  1.85036604E+00 -2.36340976E+00
 -1.45726146E+00  1.85036604E+00 -2.38183994E+00 -1.82063984E+00 -1.48401664E+00
 -2.38183994E+00 -1.82063984E+00 -1.48401664E+00
Constraint Structure                       R   N=          30
 -3.41802799E-07  1.08524231E+00 -2.88869771E-01  2.27965188E+00 -4.26912986E-01
  3.93345664E-02 -2.27965030E+00 -4.26912114E-01  3.93357977E-02 -7.40291756E-08
  2.49665122E+00  1.01954351E+00  2.36341762E+00 -1.45724609E+00  1.85037354E+00
  3.94023756E+00  7.92698354E-01 -1.01104475E-01  2.38182215E+00 -1.82065020E+00
 -1.48400756E+00 -3.94023466E+00  7.92702446E-01 -1.01088194E-01 -2.36340976E+00
 -1.45726146E+00  1.85036604E+00 -2.38183994E+00 -1.82063984E+00 -1.48401664E+00
Num ILSW                                   I              100
ILSW                                       I   N=         100
           0           1           0           0           2           0
           0           0           0           0           0          -1
           0           0           0           0           0           0
           0           0           0           0           1           0
           1           0           0           0           0           0
           0           0      100000           0          -1           0
           0           0           0           0           0           0
           0           0           0           1           1           0
           0           0           1           0           0           0
           0           0           4          40           0           0
           0           0           0           0           0           0
           0           0           0           0           0           0
           0           0           0           0           0           0
           0           0           0           0           0           0
           0           0           0           0           0           0
           0           0           0           0           0           0
           0           0           0           0
Num RLSW                                   I               40
RLSW                                       R   N=          40
  1.00000000E+00  1.00000000E+00  1.00000000E+00  1.00000000E+00  1.00000000E+00
  0.00000000E+00  0.00000000E+00  1.00000000E+00  0.00000000E+00  0.00000000E+00
  0.00000000E+00  0.00000000E+00  1.00000000E+00  0.00000000E+00  0.00000000E+00
  0.00000000E+00  0.00000000E+00  1.00000000E+00  0.00000000E+00  0.00000000E+00
  0.00000000E+00  0.00000000E+00  1.00000000E+00  0.00000000E+00  0.00000000E+00
  0.00000000E+00  0.00000000E+00  1.00000000E+00  0.00000000E+00  0.00000000E+00
  0.00000000E+00  0.00000000E+00  0.00000000E+00  0.00000000E+00  0.00000000E+00
  0.00000000E+00  0.00000000E+00  0.00000000E+00  1.00000000E+00  1.00000000E+00
MxBond                                     I                4
NBond                                      I   N=          10
           3           4           4           1           1           1
           1           1           1           1
IBond                                      I   N=          40
           2           3           4           0           1           5
           6           7           1           8           9          10
           1           0           0           0           2           0
           0           0           2           0           0           0
           2           0           0           0           3           0
           0           0           3           0           0           0
           3           0           0           0
RBond                                      R   N=          40
  1.00000000E+00  1.00000000E+00  1.00000000E+00  0.00000000E+00  1.00000000E+00
  1.00000000E+00  1.00000000E+00  1.00000000E+00  1.00000000E+00  1.00000000E+00
  1.00000000E+00  1.00000000E+00  1.00000000E+00  0.00000000E+00  0.00000000E+00
  0.00000000E+00  1.00000000E+00  0.00000000E+00  0.00000000E+00  0.00000000E+00
  1.00000000E+00  0.00000000E+00  0.00000000E+00  0.00000000E+00  1.00000000E+00
  0.00000000E+00  0.00000000E+00  0.00000000E+00  1.00000000E+00  0.00000000E+00
  0.00000000E+00  0.00000000E+00  1.00000000E+00  0.00000000E+00  0.00000000E+00
  0.00000000E+00  1.00000000E+00  0.00000000E+00  0.00000000E+00  0.00000000E+00
Virial Ratio                               R      2.001922385414479E+00
SCF Energy                                 R     -1.342379186213523E+02
MP2 Energy                                 R     -1.346652982573096E+02
Total Energy                               R     -1.346652982573096E+02
Post-SCF wavefunction norm                 R      1.507565583821574E+00
RMS Force                                  R      7.508838277271168E-07
RMS Density                                R      2.501460702618568E-09
External E-field                           R   N=          35
  0.00000000E+00  0.00000000E+00  0.00000000E+00  0.00000000E+00  0.00000000E+00
  0.00000000E+00  0.00000000E+00  0.00000000E+00  0.00000000E+00  0.00000000E+00
  0.00000000E+00  0.00000000E+00  0.00000000E+00  0.00000000E+00  0.00000000E+00
  0.00000000E+00  0.00000000E+00  0.00000000E+00  0.00000000E+00  0.00000000E+00
  0.00000000E+00  0.00000000E+00  0.00000000E+00  0.00000000E+00  0.00000000E+00
  0.00000000E+00  0.00000000E+00  0.00000000E+00  0.00000000E+00  0.00000000E+00
  0.00000000E+00  0.00000000E+00  0.00000000E+00  0.00000000E+00  0.00000000E+00
IOpCl                                      I                0
IROHF                                      I                0
Alpha Orbital Energies                     R   N=          59
 -1.55439228E+01 -1.12404189E+01 -1.12404008E+01 -1.19513896E+00 -9.42764893E-01
 -8.50724373E-01 -6.57660174E-01 -6.09810560E-01 -5.87433385E-01 -5.36973035E-01
 -5.07733969E-01 -5.02300958E-01 -3.66914213E-01  2.27225134E-01  2.79604145E-01
  2.98370414E-01  3.07168699E-01  3.18744152E-01  3.47091444E-01  3.50465344E-01
  3.78442403E-01  4.48859407E-01  7.30367454E-01  7.57612169E-01  7.89664410E-01
  7.96508782E-01  8.24010361E-01  9.80579734E-01  9.87127650E-01  1.08615002E+00
  1.11270559E+00  1.12190360E+00  1.16929942E+00  1.19057231E+00  1.20124862E+00
  1.22582470E+00  1.23937073E+00  1.24430785E+00  1.26810677E+00  1.63404651E+00
  1.65201682E+00  1.74490333E+00  1.79396957E+00  2.11799414E+00  2.17506789E+00
  2.32589832E+00  2.37192611E+00  2.38382234E+00  2.45127735E+00  2.55359301E+00
  2.57931287E+00  2.65481803E+00  2.78171114E+00  2.84230204E+00  2.98366381E+00
  3.11789496E+00  4.30476954E+00  4.66120294E+00  4.71855593E+00
Alpha MO coefficients                      R   N=        3481
  9.95083201E-01  2.49496798E-02 -1.09309109E-09 -6.49096706E-04  1.37160072E-03
 -3.33559705E-03 -8.88576188E-10  8.14302884E-04 -1.22856144E-03 -3.30425217E-03
 -3.27666063E-03 -3.05712189E-03  9.76189738E-10 -6.77960489E-11 -6.56053455E-05
 -1.01518238E-05  2.22198723E-04 -2.53333881E-04  1.29253857E-04 -3.31165102E-05
  1.58232235E-03 -4.35322096E-04  2.69510578E-04  2.61666141E-04 -1.41328723E-04
 -1.38997931E-04 -6.06300437E-05  6.27160108E-05 -4.91072409E-05  1.12207631E-05
 -1.01514945E-05  2.22200704E-04  2.53333387E-04  1.29252843E-04 -3.31170620E-05
  1.58232069E-03  4.35319864E-04  2.69511864E-04  2.61668877E-04 -1.41329913E-04
 -1.38997989E-04 -6.06304482E-05 -6.27175735E-05  4.91076018E-05  1.12203865E-05
  3.64036682E-04  5.88700539E-04 -1.36335167E-04 -2.33637780E-04 -7.35362724E-05
 -1.96714360E-04 -6.51924600E-05 -3.66084812E-05 -7.35366507E-05 -1.96716752E-04
 -1.36334549E-04 -2.33639522E-04 -6.51922462E-05 -3.66038295E-05 -3.08870029E-08
  3.80276365E-08 -2.80012927E-05 -3.74873900E-09  5.34833069E-09  2.52825992E-07
 -1.30746570E-03 -1.39517273E-08 -1.69532973E-08 -7.08027183E-08 -4.14125386E-08
  2.29892482E-09 -3.14825636E-04  6.33963406E-05  9.12572596E-09 -7.04075911E-01
 -2.00495119E-02  3.05399530E-04 -2.79765065E-05  1.42259253E-05  1.07272143E-02
 -9.60421588E-04 -4.91354878E-04 -5.94195238E-05  1.27785885E-03  1.18170298E-03
  1.20924706E-03 -1.64685988E-05 -3.22557579E-06 -1.26522473E-05  7.04242742E-01
  2.00541287E-02  3.05454130E-04  2.80131396E-05 -1.42356494E-05 -1.07292455E-02
 -9.60315018E-04  4.91331810E-04  5.94628857E-05 -1.27813138E-03 -1.18201065E-03
 -1.20956241E-03 -1.64622754E-05 -3.22696803E-06  1.26530045E-05 -6.23877776E-09
  3.80013890E-08 -1.91071029E-04 -2.03976918E-03 -4.02213547E-05 -1.36200311E-03
 -1.97125763E-04 -2.16130480E-03  4.02377102E-05  1.36244475E-03  1.91074734E-04
  2.04013385E-03  1.97132150E-04  2.16170590E-03 -2.59464955E-04  3.09809248E-04
  4.09626990E-09 -3.93508107E-05  4.07847553E-05  2.23828119E-03  1.59682629E-07
 -1.15783513E-04 -8.90265164E-05 -5.99914955E-04 -3.54712459E-04  1.51288385E-05
  3.71699037E-08 -6.92687712E-09  7.54193596E-05  7.04158529E-01  1.94933601E-02
 -2.33691030E-04  1.52517123E-04 -2.96502346E-05 -8.60843277E-03 -3.85606548E-04
 -1.15742201E-04  1.17523966E-04 -1.15713368E-03 -1.30080041E-03 -1.32564955E-03
 -1.60050656E-05  1.49580326E-06  1.26646393E-06  7.03991678E-01  1.94886073E-02
  2.33619001E-04  1.52511251E-04 -2.96478080E-05 -8.60587916E-03  3.85841044E-04
 -1.15855116E-04  1.17510689E-04 -1.15682933E-03 -1.30051985E-03 -1.32536470E-03
  1.60111820E-05 -1.49466656E-06  1.26134058E-06 -7.08715699E-05  3.00973739E-04
  1.26792962E-05  1.57662811E-03  6.50034901E-05  1.85349747E-03  3.30581569E-05
  1.66673166E-03  6.49939107E-05  1.85317367E-03  1.26331880E-05  1.57614441E-03
  3.30138270E-05  1.66621363E-03 -1.74415529E-01  3.59568053E-01 -2.22296194E-07
 -4.43436321E-02  5.96975171E-02  3.70460060E-01 -4.15232208E-08 -2.28154870E-02
  3.65048066E-02  8.30386854E-03  8.34773772E-03 -1.10559993E-04  1.33020078E-08
 -1.58621185E-08  6.24676732E-03 -8.28599394E-02  1.54488565E-01 -7.44075683E-02
  4.39996749E-02 -6.30530835E-03  8.23920956E-02  4.46827217E-05 -3.90892083E-05
  1.33156300E-03  1.33147480E-02  3.91536296E-03 -2.71521386E-03 -1.09610206E-02
  1.76598658E-03 -6.67563690E-04 -8.28601198E-02  1.54488923E-01  7.44077241E-02
  4.39999451E-02 -6.30534583E-03  8.23922258E-02 -4.46926231E-05 -3.91344390E-05
  1.33153237E-03  1.33147618E-02  3.91536829E-03 -2.71526302E-03  1.09610689E-02
 -1.76597921E-03 -6.67598294E-04  1.05833807E-01  1.00540302E-04  3.57195830E-02
  3.36378846E-03  3.46457619E-02  5.24533853E-03  3.63341618E-02  5.39760623E-03
  3.46458817E-02  5.24539410E-03  3.57196013E-02  3.36378571E-03  3.63340193E-02
  5.39753735E-03  5.56777822E-08 -1.52791741E-07  1.82044099E-01 -1.00236089E-07
 -1.00443586E-07 -6.32770766E-08  7.55797209E-02 -1.33616962E-07 -5.35488047E-08
  1.75674031E-08  1.00201213E-08 -1.70533963E-08 -1.71983056E-02  9.07090548E-03
 -7.48734766E-09 -1.38147073E-01  2.61911319E-01  1.58979464E-02  1.29064862E-02
 -5.44397930E-03  2.51111797E-01  1.14177584E-02 -6.85331199E-03  8.38095199E-03
  3.67011468E-03  7.89331271E-03  5.58052800E-03  1.21125350E-03  3.99879328E-04
 -1.11510877E-05  1.38146752E-01 -2.61910698E-01  1.58980887E-02 -1.29068800E-02
  5.44397210E-03 -2.51111270E-01  1.14177880E-02  6.85329767E-03 -8.38088956E-03
 -3.67012012E-03 -7.89334174E-03 -5.58044833E-03  1.21117345E-03  3.99833414E-04
  1.11828791E-05 -9.13838861E-08 -3.99265762E-09  8.91678147E-02  1.77826987E-02
  1.03976718E-01  2.98549775E-02  9.26178321E-02  2.51935953E-02 -1.03976603E-01
 -2.98549432E-02 -8.91674454E-02 -1.77825734E-02 -9.26174608E-02 -2.51934996E-02
 -9.32688374E-02  1.93794154E-01  1.77994918E-07  1.40913526E-01  6.78578295E-02
  2.89065743E-01  6.47723879E-08  6.11591871E-02  4.26399404E-02 -9.75696612E-03
 -1.19097179E-04  8.39312471E-03 -9.58516995E-09  1.07377444E-08  1.65050529E-02
  1.02255689E-01 -1.94780844E-01 -7.93209547E-02  8.92619468E-02  2.54193227E-03
 -2.29171080E-01 -1.98888950E-02  3.07908590E-02 -4.23977462E-03  3.48920026E-03
 -2.41441041E-03 -1.21271176E-02 -1.29879468E-02  6.11386285E-04 -1.71236273E-03
  1.02255964E-01 -1.94781313E-01  7.93214716E-02  8.92619594E-02  2.54181316E-03
 -2.29171844E-01  1.98890647E-02  3.07909110E-02 -4.23973825E-03  3.48919030E-03
 -2.41443569E-03 -1.21271316E-02  1.29878869E-02 -6.11482438E-04 -1.71229670E-03
  1.45824163E-01  4.13203796E-02 -9.78507405E-02 -3.51750584E-02 -8.35380694E-02
 -3.12733901E-02 -1.08672265E-01 -3.98496649E-02 -8.35383359E-02 -3.12734426E-02
 -9.78511853E-02 -3.51752245E-02 -1.08672321E-01 -3.98496932E-02  3.08512380E-02
 -6.88628874E-02  5.67328318E-07  2.70701654E-01  1.93230504E-01 -1.10415251E-01
  2.39478884E-07  1.50886046E-01  1.11872642E-01 -6.03285362E-03 -6.55104104E-03
  1.96902648E-02 -2.72315122E-08  2.55916512E-08  1.59815620E-02 -1.50955109E-02
  2.45378999E-02  1.90772446E-01  4.81746039E-02  1.46015494E-01  5.88461749E-02
  7.28764286E-02  3.47005996E-02  6.37231400E-02 -5.40803149E-03  4.96116304E-03
  2.54708402E-03  1.36034085E-02 -7.44385695E-03 -6.94799959E-03 -1.50954436E-02
  2.45377302E-02 -1.90772401E-01  4.81732197E-02  1.46014572E-01  5.88461207E-02
 -7.28762383E-02  3.46999967E-02  6.37227730E-02 -5.40807596E-03  4.96140195E-03
  2.54692733E-03 -1.36035551E-02  7.44375658E-03 -6.94773338E-03  1.71945658E-01
  9.31433282E-02  7.69023016E-02  5.41052953E-02  1.12817409E-01  6.96341817E-02
 -6.06431538E-02 -3.73904112E-02  1.12817554E-01  6.96343978E-02  7.69012620E-02
  5.41045593E-02 -6.06415511E-02 -3.73895335E-02  1.58115645E-02 -4.16969400E-02
  2.35436352E-07 -1.37436563E-01  1.92675981E-01 -4.04416997E-02  1.14622431E-07
 -9.12386994E-02  1.19706601E-01 -1.11300165E-02  1.90950769E-03  6.99156380E-03
  1.03712490E-08  4.23169331E-09 -1.43299490E-02  4.23972966E-03 -8.04352481E-03
 -1.58621725E-01 -1.02814190E-01  2.11005898E-01 -2.74523832E-02 -6.88192959E-02
 -4.94928463E-02  1.02630832E-01 -3.37741614E-03 -6.41835591E-03  8.90230041E-03
 -1.17515057E-02 -2.60395624E-03 -1.13721591E-02  4.23956071E-03 -8.04308356E-03
  1.58622066E-01 -1.02815104E-01  2.11005970E-01 -2.74522486E-02  6.88192594E-02
 -4.94930617E-02  1.02630950E-01 -3.37734564E-03 -6.41821570E-03  8.90210711E-03
  1.17513777E-02  2.60406988E-03 -1.13724680E-02 -3.32122086E-03 -8.22006480E-03
  1.36527320E-01  1.08977969E-01 -1.26717025E-01 -9.30630247E-02 -6.09863442E-02
 -4.37290617E-02 -1.26716383E-01 -9.30626648E-02  1.36528016E-01  1.08978516E-01
 -6.09874351E-02 -4.37296691E-02 -2.11202361E-07  4.47610353E-07  3.29300549E-01
  2.14124592E-07 -6.77013002E-07  9.54168627E-07  1.97434838E-01  1.25973608E-07
 -3.69570806E-07 -1.16465216E-08  2.87047251E-08 -2.47774572E-08 -1.20928938E-02
  1.34302793E-02  3.09155876E-08  8.04375825E-03 -7.25791592E-03 -9.10167501E-02
  2.86155054E-01 -5.22997169E-02 -5.90642462E-02 -2.24345265E-02  1.29813610E-01
 -1.12689224E-02  1.69536434E-02  2.06800443E-03 -2.13612288E-02 -8.62450786E-03
  2.35619877E-03 -2.84640157E-03 -8.04359605E-03  7.25751459E-03 -9.10166520E-02
 -2.86155919E-01  5.22985068E-02  5.90640708E-02 -2.24345197E-02 -1.29813944E-01
  1.12681825E-02 -1.69536242E-02 -2.06800813E-03  2.13612724E-02 -8.62434102E-03
  2.35640283E-03  2.84621776E-03  5.02045641E-08  3.03842115E-08 -1.21909123E-01
 -9.55803158E-02  5.42756610E-02  3.98320228E-02 -1.04869002E-01 -6.90727165E-02
 -5.42762445E-02 -3.98325227E-02  1.21909465E-01  9.55805913E-02  1.04869051E-01
  6.90728084E-02 -2.00224408E-07  4.77341891E-07 -2.50460402E-02 -2.95664433E-06
 -1.56591614E-06  8.42104137E-07 -9.82788511E-03 -1.93948483E-06 -1.04690265E-06
  1.73518808E-07 -6.63646942E-08 -1.69043938E-07  4.82579527E-03  9.91376848E-03
 -2.53702491E-07  9.45509871E-04 -3.57820576E-03  3.26845882E-02  6.75080501E-02
  3.11186285E-01 -2.77551155E-03  1.72602887E-02  4.29704472E-02  1.62500098E-01
  1.94385327E-03 -5.40934845E-03  3.31020969E-03  4.13762900E-03  2.56866606E-03
 -2.58179603E-02 -9.45602279E-04  3.57842568E-03  3.26851593E-02 -6.75040908E-02
 -3.11184919E-01  2.77555384E-03  1.72601949E-02 -4.29684623E-02 -1.62499416E-01
 -1.94356329E-03  5.40879568E-03 -3.30993443E-03  4.13797835E-03  2.56869475E-03
  2.58177068E-02 -2.01857981E-06 -1.53082293E-06  1.57237505E-01  1.36873160E-01
  2.97642826E-02  2.31932078E-02 -1.80878998E-01 -1.45444666E-01 -2.97647689E-02
 -2.31938255E-02 -1.57236651E-01 -1.36872415E-01  1.80876985E-01  1.45443128E-01
  3.46801264E-03 -1.00841270E-02  1.35995297E-05  2.85427240E-01  7.78171555E-02
 -1.29539883E-02  9.28851161E-06  1.95578356E-01  5.96214919E-02 -1.95311557E-02
  8.52683591E-03  1.43524553E-02 -1.09393066E-06  7.80357477E-07  2.61007669E-02
  1.17822892E-02 -2.48506951E-02  8.64718961E-03 -2.52574509E-01 -9.90346680E-02
 -2.75818208E-02 -9.72065064E-03 -1.31727231E-01 -6.28684703E-02 -2.29567621E-02
  9.81939246E-03  1.49701132E-02 -4.99356042E-03 -3.40321079E-03  1.56084034E-02
  1.17839438E-02 -2.48540743E-02 -8.68023185E-03 -2.52564153E-01 -9.90455905E-02
 -2.75850394E-02  9.70311482E-03 -1.31719522E-01 -6.28753088E-02 -2.29554008E-02
  9.81921704E-03  1.49693540E-02  4.99074757E-03  3.40406769E-03  1.56090312E-02
  1.84721740E-01  1.50865922E-01  1.51271037E-02  1.95774478E-02 -1.08775351E-01
 -9.48510234E-02  1.65825981E-01  1.57362976E-01 -1.08754125E-01 -9.48325737E-02
  1.51176598E-02  1.95695709E-02  1.65825641E-01  1.57363177E-01  1.65192806E-07
 -4.54679902E-07 -2.61264933E-01  1.58091796E-05  4.22553312E-06 -6.55903095E-07
 -1.78181901E-01  1.10277785E-05  3.23143184E-06 -1.10929357E-06  4.91766050E-07
  7.98404747E-07  2.06375539E-02 -1.27585109E-02  1.43715936E-06  1.46592264E-02
 -2.88669999E-02  3.00250355E-01  9.24014118E-02 -4.99890592E-02 -3.27131578E-02
  1.62496227E-01  7.29636561E-02 -3.44263090E-02  1.22406675E-02 -7.46511313E-04
 -7.86722985E-03  2.85925676E-02 -4.79480956E-03  4.00757647E-03 -1.46580064E-02
  2.88644719E-02  3.00249189E-01 -9.24298162E-02  4.99773315E-02  3.27101837E-02
  1.62497153E-01 -7.29787125E-02  3.44189139E-02 -1.22431753E-02  7.47561638E-04
  7.86885822E-03  2.85931480E-02 -4.79420371E-03 -4.00623740E-03  1.02446242E-05
  8.36478279E-06 -6.99271574E-02 -5.61765333E-02  2.00162906E-01  1.75435554E-01
 -2.05826246E-02 -1.29046967E-02 -2.00174701E-01 -1.75445952E-01  6.99296468E-02
  5.61794960E-02  2.05997539E-02  1.29214060E-02  5.00087990E-02 -1.18848450E-01
  2.33523436E-07 -1.95729948E-01  4.75933465E-01 -2.13207024E-01  2.09086920E-07
 -1.96320127E-01  4.33005112E-01 -4.00297118E-03 -2.66542479E-03  1.67538596E-02
  1.94858469E-08 -1.18910668E-08 -6.24026210E-03 -1.28065896E-02  2.83460919E-02
 -3.36921616E-02  6.71288932E-02 -1.25028015E-01  1.21111948E-02  1.71787554E-03
  2.70845567E-02 -5.28506113E-02  1.30558066E-02 -1.55199807E-03 -1.30297763E-02
  1.62774976E-03 -1.48416541E-02  2.46077820E-02 -1.28066076E-02  2.83460510E-02
  3.36921921E-02  6.71285404E-02 -1.25028429E-01  1.21114607E-02 -1.71764093E-03
  2.70838708E-02 -5.28509032E-02  1.30557260E-02 -1.55217958E-03 -1.30295619E-02
 -1.62759049E-03  1.48416540E-02  2.46080351E-02  6.85299231E-02  6.17720583E-02
 -1.33081552E-01 -1.89943034E-01  4.14653513E-02  4.10821897E-02  6.72560063E-02
  8.49513456E-02  4.14642879E-02  4.10809751E-02 -1.33081776E-01 -1.89943534E-01
  6.72573378E-02  8.49529343E-02 -6.52675809E-02  6.60403983E-02  9.08095674E-08
  9.20156563E-02  8.30865617E-02  1.02104693E+00 -9.26687692E-08  2.63541447E-01
  3.41345707E-01 -1.20162931E-02 -1.86372013E-02 -1.65205813E-02  2.71355686E-09
 -1.79141579E-08  5.06504711E-03 -6.66367299E-02  4.65938942E-02  1.02589104E-01
 -6.75235278E-02  3.32144218E-02  1.14949576E+00  4.38062450E-01 -2.92308202E-01
  1.48888334E-02 -7.50218427E-03 -4.60910492E-03 -8.70996382E-03 -8.86291739E-03
 -9.55866879E-04 -1.39940838E-03 -6.66365277E-02  4.65937800E-02 -1.02589345E-01
 -6.75228358E-02  3.32144079E-02  1.14949206E+00 -4.38065833E-01 -2.92305934E-01
  1.48877367E-02 -7.50213237E-03 -4.60909875E-03 -8.70993537E-03  8.86294134E-03
  9.55955189E-04 -1.39945523E-03 -1.84329118E-02 -9.80015313E-01  1.19350452E-02
 -6.16673166E-01 -1.81322668E-02 -6.51162365E-01  5.29520660E-03 -5.58917886E-01