
    -----------------------------------------------------------------------
          Psi4: An Open-Source Ab Initio Electronic Structure Package
                               Psi4 1.3.2 release

                         Git: Rev {HEAD} ecbda83 


    R. M. Parrish, L. A. Burns, D. G. A. Smith, A. C. Simmonett,
    A. E. DePrince III, E. G. Hohenstein, U. Bozkaya, A. Yu. Sokolov,
    R. Di Remigio, R. M. Richard, J. F. Gonthier, A. M. James,
    H. R. McAlexander, A. Kumar, M. Saitow, X. Wang, B. P. Pritchard,
    P. Verma, H. F. Schaefer III, K. Patkowski, R. A. King, E. F. Valeev,
    F. A. Evangelista, J. M. Turney, T. D. Crawford, and C. D. Sherrill,
    J. Chem. Theory Comput. 13(7) pp 3185--3197 (2017).
    (doi: 10.1021/acs.jctc.7b00174)


                         Additional Contributions by
    P. Kraus, H. Kruse, M. H. Lechner, M. C. Schieber, R. A. Shaw,
    A. Alenaizan, R. Galvelis, Z. L. Glick, S. Lehtola, and J. P. Misiewicz

    -----------------------------------------------------------------------


    Psi4 started on: Tuesday, 03 November 2020 03:26PM

    Process ID: 121481
    Host:       node55.bme.utexas.edu
    PSIDATADIR: /home/xy3866/psi4conda/share/psi4
    Memory:     500.0 MiB
    Threads:    8
    
  ==> Input File <==

--------------------------------------------------------------------------
#psi4
#
memory 32 gb

molecule  {
0 1
  O        2.6932640    -1.3344870    -0.0264310
  C        2.7508540     0.0254460     0.4069810
  C        1.3672740     0.5670058     0.3933090
  C       -3.5492030     0.3621160    -0.4101590
  C        3.6709050     0.8409920    -0.4958550
  C        0.2704120    -0.1024690    -0.0006590
  C       -2.1631840    -0.2004740    -0.4090490
  C       -1.0635270     0.4697970    -0.0176060
  C       -4.4702810    -0.3835230     0.5583970
  H        3.1361180     0.0688010     1.4404840
  H        1.2655190     1.6118880     0.7253080
  H       -3.5113520     1.4248880    -0.1442750
  H       -3.9713450     0.3050270    -1.4220020
  H        3.3060070     0.7827570    -1.5237190
  H        3.6990520     1.8899320    -0.1870900
  H        4.6948240     0.4527130    -0.4608140
  H        0.3934341    -1.1344653    -0.3212600
  H       -2.0573220    -1.2386810    -0.7303930
  H       -1.1648060     1.5075440     0.3065060
  H       -4.5255200    -1.4457790     0.3033390
  H       -5.4853170     0.0231860     0.5310900
  H       -4.0942820    -0.3029910     1.5815520
  H        3.6028580    -1.6773980    -0.0043180
units angstrom
no_reorient  #important for SAPT in psi4, default
symmetry c1  #important for SAPT in psi4, default
}

set PROPERTIES_ORIGIN ["COM"]
properties('MP2/aug-cc-pvtz', properties = ['dipole'])
--------------------------------------------------------------------------

  Memory set to  29.802 GiB by Python driver.
    SCF Algorithm Type (re)set to DF.

*** tstart() called on node55.bme.utexas.edu
*** at Tue Nov  3 15:26:00 2020

   => Loading Basis Set <=

    Name: AUG-CC-PVTZ
    Role: ORBITAL
    Keyword: BASIS
    atoms 1     entry O          line   327 file /home/xy3866/psi4conda/share/psi4/basis/aug-cc-pvtz.gbs 
    atoms 2-9   entry C          line   235 file /home/xy3866/psi4conda/share/psi4/basis/aug-cc-pvtz.gbs 
    atoms 10-23 entry H          line    36 file /home/xy3866/psi4conda/share/psi4/basis/aug-cc-pvtz.gbs 


         ---------------------------------------------------------
                                   SCF
               by Justin Turney, Rob Parrish, Andy Simmonett
                          and Daniel G. A. Smith
                              RHF Reference
                        8 Threads,  30517 MiB Core
         ---------------------------------------------------------

  ==> Geometry <==

    Molecular point group: c1
    Full point group: C1

    Geometry (in Angstrom), charge = 0, multiplicity = 1:

       Center              X                  Y                   Z               Mass       
    ------------   -----------------  -----------------  -----------------  -----------------
         O            2.692562016578    -1.333589714737    -0.026246178292    15.994914619570
         C            2.750152016578     0.026343285263     0.407165821708    12.000000000000
         C            1.366572016578     0.567903085263     0.393493821708    12.000000000000
         C           -3.549904983422     0.363013285263    -0.409974178292    12.000000000000
         C            3.670203016578     0.841889285263    -0.495670178292    12.000000000000
         C            0.269710016578    -0.101571714737    -0.000474178292    12.000000000000
         C           -2.163885983422    -0.199576714737    -0.408864178292    12.000000000000
         C           -1.064228983422     0.470694285263    -0.017421178292    12.000000000000
         C           -4.470982983422    -0.382625714737     0.558581821708    12.000000000000
         H            3.135416016578     0.069698285263     1.440668821708     1.007825032230
         H            1.264817016578     1.612785285263     0.725492821708     1.007825032230
         H           -3.512053983422     1.425785285263    -0.144090178292     1.007825032230
         H           -3.972046983422     0.305924285263    -1.421817178292     1.007825032230
         H            3.305305016578     0.783654285263    -1.523534178292     1.007825032230
         H            3.698350016578     1.890829285263    -0.186905178292     1.007825032230
         H            4.694122016578     0.453610285263    -0.460629178292     1.007825032230
         H            0.392732116578    -1.133568014737    -0.321075178292     1.007825032230
         H           -2.058023983422    -1.237783714737    -0.730208178292     1.007825032230
         H           -1.165507983422     1.508441285263     0.306690821708     1.007825032230
         H           -4.526221983422    -1.444881714737     0.303523821708     1.007825032230
         H           -5.486018983422     0.024083285263     0.531274821708     1.007825032230
         H           -4.094983983422    -0.302093714737     1.581736821708     1.007825032230
         H            3.602156016578    -1.676500714737    -0.004133178292     1.007825032230

  Running in c1 symmetry.

  Rotational constants: A =      0.18296  B =      0.01604  C =      0.01541 [cm^-1]
  Rotational constants: A =   5484.92164  B =    480.88195  C =    462.07318 [MHz]
  Nuclear repulsion =  418.111826480793241

  Charge       = 0
  Multiplicity = 1
  Electrons    = 70
  Nalpha       = 35
  Nbeta        = 35

  ==> Algorithm <==

  SCF Algorithm Type is DF.
  DIIS enabled.
  MOM disabled.
  Fractional occupation disabled.
  Guess Type is SAD.
  Energy threshold   = 1.00e-10
  Density threshold  = 1.00e-10
  Integral threshold = 0.00e+00

  ==> Primary Basis <==

  Basis Set: AUG-CC-PVTZ
    Blend: AUG-CC-PVTZ
    Number of shells: 252
    Number of basis function: 736
    Number of Cartesian functions: 845
    Spherical Harmonics?: true
    Max angular momentum: 3

   => Loading Basis Set <=

    Name: (AUG-CC-PVTZ AUX)
    Role: JKFIT
    Keyword: DF_BASIS_SCF
    atoms 1     entry O          line   286 file /home/xy3866/psi4conda/share/psi4/basis/aug-cc-pvtz-jkfit.gbs 
    atoms 2-9   entry C          line   162 file /home/xy3866/psi4conda/share/psi4/basis/aug-cc-pvtz-jkfit.gbs 
    atoms 10-23 entry H          line    70 file /home/xy3866/psi4conda/share/psi4/basis/aug-cc-pvtz-jkfit.gbs 

  ==> Pre-Iterations <==

   -------------------------------------------------------
    Irrep   Nso     Nmo     Nalpha   Nbeta   Ndocc  Nsocc
   -------------------------------------------------------
     A        736     736       0       0       0       0
   -------------------------------------------------------
    Total     736     736      35      35      35       0
   -------------------------------------------------------

  ==> Integral Setup <==

  DFHelper Memory: AOs need 5.620 GiB; user supplied 22.352 GiB. Using in-core AOs.

  ==> MemDFJK: Density-Fitted J/K Matrices <==

    J tasked:                   Yes
    K tasked:                   Yes
    wK tasked:                   No
    OpenMP threads:               8
    Memory [MiB]:             22888
    Algorithm:                 Disk
    Schwarz Cutoff:           1E-12
    Mask sparsity (%):      14.3741
    Fitting Condition:        1E-10

   => Auxiliary Basis Set <=

  Basis Set: (AUG-CC-PVTZ AUX)
    Blend: AUG-CC-PVTZ-JKFIT
    Number of shells: 466
    Number of basis function: 1580
    Number of Cartesian functions: 1949
    Spherical Harmonics?: true
    Max angular momentum: 4

  Minimum eigenvalue in the overlap matrix is 1.5737776666E-06.
  Using Symmetric Orthogonalization.

  SCF Guess: Superposition of Atomic Densities via on-the-fly atomic UHF.

  ==> Iterations <==

                           Total Energy        Delta E     RMS |[F,P]|

   @DF-RHF iter SAD:  -384.99754224550867   -3.84998e+02   0.00000e+00 
   @DF-RHF iter   1:  -385.70011486543797   -7.02573e-01   1.04826e-03 DIIS
   @DF-RHF iter   2:  -385.99893348144883   -2.98819e-01   4.90931e-04 DIIS
   @DF-RHF iter   3:  -386.05746782384676   -5.85343e-02   1.00978e-04 DIIS
   @DF-RHF iter   4:  -386.06167735952926   -4.20954e-03   4.18376e-05 DIIS
   @DF-RHF iter   5:  -386.06217919241385   -5.01833e-04   6.65273e-06 DIIS
   @DF-RHF iter   6:  -386.06220583293987   -2.66405e-05   1.96642e-06 DIIS
   @DF-RHF iter   7:  -386.06220801155621   -2.17862e-06   6.45694e-07 DIIS
   @DF-RHF iter   8:  -386.06220831366960   -3.02113e-07   3.14149e-07 DIIS
   @DF-RHF iter   9:  -386.06220837111300   -5.74434e-08   8.87878e-08 DIIS
   @DF-RHF iter  10:  -386.06220837983551   -8.72251e-09   4.55922e-08 DIIS
   @DF-RHF iter  11:  -386.06220838150773   -1.67222e-09   1.32190e-08 DIIS
   @DF-RHF iter  12:  -386.06220838168014   -1.72406e-10   3.78067e-09 DIIS
   @DF-RHF iter  13:  -386.06220838169202   -1.18803e-11   2.20848e-09 DIIS
   @DF-RHF iter  14:  -386.06220838169634   -4.32010e-12   4.93646e-10 DIIS
   @DF-RHF iter  15:  -386.06220838169583    5.11591e-13   1.80588e-10 DIIS
   @DF-RHF iter  16:  -386.06220838169617   -3.41061e-13   5.81474e-11 DIIS
  Energy and wave function converged.


  ==> Post-Iterations <==

    Orbital Energies [Eh]
    ---------------------

    Doubly Occupied:                                                      

       1A    -20.558684     2A    -11.286169     3A    -11.226148  
       4A    -11.223741     5A    -11.223330     6A    -11.223180  
       7A    -11.221663     8A    -11.220763     9A    -11.212863  
      10A     -1.360925    11A     -1.097890    12A     -1.061997  
      13A     -1.016465    14A     -0.962663    15A     -0.877386  
      16A     -0.829148    17A     -0.752606    18A     -0.746243  
      19A     -0.695816    20A     -0.637380    21A     -0.628394  
      22A     -0.617030    23A     -0.589966    24A     -0.582498  
      25A     -0.546329    26A     -0.543089    27A     -0.527707  
      28A     -0.518523    29A     -0.499426    30A     -0.492827  
      31A     -0.479342    32A     -0.469092    33A     -0.453319  
      34A     -0.418115    35A     -0.297415  

    Virtual:                                                              

      36A      0.026887    37A      0.031710    38A      0.034917  
      39A      0.039511    40A      0.044275    41A      0.046338  
      42A      0.048066    43A      0.058021    44A      0.060161  
      45A      0.065553    46A      0.068386    47A      0.074090  
      48A      0.085109    49A      0.086643    50A      0.099800  
      51A      0.104804    52A      0.106512    53A      0.115163  
      54A      0.116598    55A      0.119744    56A      0.125056  
      57A      0.126380    58A      0.131338    59A      0.134673  
      60A      0.136936    61A      0.138660    62A      0.143261  
      63A      0.147952    64A      0.151663    65A      0.155858  
      66A      0.161419    67A      0.163606    68A      0.170687  
      69A      0.174424    70A      0.180737    71A      0.182524  
      72A      0.185064    73A      0.192187    74A      0.200012  
      75A      0.213325    76A      0.221053    77A      0.223521  
      78A      0.224118    79A      0.232544    80A      0.238887  
      81A      0.242342    82A      0.249207    83A      0.249572  
      84A      0.252343    85A      0.257728    86A      0.263595  
      87A      0.273679    88A      0.278709    89A      0.280939  
      90A      0.283881    91A      0.290148    92A      0.301008  
      93A      0.302416    94A      0.304047    95A      0.311596  
      96A      0.314969    97A      0.321611    98A      0.322078  
      99A      0.326508   100A      0.331057   101A      0.339740  
     102A      0.342840   103A      0.348664   104A      0.356831  
     105A      0.357908   106A      0.361087   107A      0.364713  
     108A      0.369114   109A      0.371428   110A      0.373664  
     111A      0.380516   112A      0.387022   113A      0.388007  
     114A      0.389875   115A      0.394399   116A      0.397695  
     117A      0.402785   118A      0.404008   119A      0.406437  
     120A      0.413380   121A      0.415713   122A      0.420529  
     123A      0.428652   124A      0.430154   125A      0.432049  
     126A      0.434041   127A      0.443796   128A      0.450665  
     129A      0.455775   130A      0.456719   131A      0.462083  
     132A      0.464460   133A      0.465727   134A      0.471674  
     135A      0.474508   136A      0.480495   137A      0.484029  
     138A      0.488207   139A      0.490049   140A      0.491929  
     141A      0.493368   142A      0.499163   143A      0.502165  
     144A      0.507932   145A      0.512064   146A      0.515132  
     147A      0.517712   148A      0.519324   149A      0.527435  
     150A      0.528663   151A      0.534490   152A      0.540460  
     153A      0.546418   154A      0.547798   155A      0.557207  
     156A      0.561137   157A      0.563956   158A      0.567667  
     159A      0.571220   160A      0.571743   161A      0.578831  
     162A      0.585688   163A      0.593346   164A      0.596950  
     165A      0.598715   166A      0.607648   167A      0.608849  
     168A      0.615062   169A      0.620284   170A      0.629399  
     171A      0.630651   172A      0.636823   173A      0.641456  
     174A      0.651964   175A      0.660759   176A      0.670985  
     177A      0.678724   178A      0.684707   179A      0.690447  
     180A      0.702544   181A      0.704987   182A      0.714796  
     183A      0.718256   184A      0.733743   185A      0.739257  
     186A      0.742418   187A      0.754198   188A      0.763093  
     189A      0.771830   190A      0.776299   191A      0.781051  
     192A      0.795406   193A      0.802998   194A      0.808924  
     195A      0.812682   196A      0.816123   197A      0.818788  
     198A      0.830925   199A      0.832534   200A      0.837791  
     201A      0.842642   202A      0.846954   203A      0.849978  
     204A      0.858599   205A      0.870522   206A      0.877131  
     207A      0.878997   208A      0.886026   209A      0.892141  
     210A      0.895736   211A      0.896984   212A      0.904760  
     213A      0.913000   214A      0.916543   215A      0.919826  
     216A      0.924055   217A      0.934354   218A      0.934744  
     219A      0.940902   220A      0.944260   221A      0.946605  
     222A      0.948779   223A      0.961540   224A      0.964972  
     225A      0.973279   226A      0.975894   227A      0.982465  
     228A      0.986103   229A      0.990136   230A      0.992974  
     231A      0.994873   232A      1.004092   233A      1.007974  
     234A      1.014918   235A      1.016191   236A      1.023022  
     237A      1.026603   238A      1.033167   239A      1.041068  
     240A      1.043531   241A      1.046279   242A      1.049795  
     243A      1.055592   244A      1.057451   245A      1.060588  
     246A      1.072352   247A      1.079613   248A      1.080728  
     249A      1.085677   250A      1.092515   251A      1.099416  
     252A      1.102761   253A      1.110220   254A      1.112826  
     255A      1.118369   256A      1.123828   257A      1.128855  
     258A      1.138681   259A      1.142453   260A      1.148290  
     261A      1.154544   262A      1.164202   263A      1.168949  
     264A      1.171497   265A      1.178990   266A      1.180603  
     267A      1.187123   268A      1.189614   269A      1.197914  
     270A      1.199121   271A      1.211738   272A      1.214054  
     273A      1.215029   274A      1.222830   275A      1.227839  
     276A      1.233478   277A      1.239344   278A      1.240968  
     279A      1.248690   280A      1.257941   281A      1.261075  
     282A      1.266864   283A      1.268716   284A      1.273367  
     285A      1.281198   286A      1.288587   287A      1.295938  
     288A      1.302478   289A      1.305963   290A      1.311702  
     291A      1.321986   292A      1.328959   293A      1.332677  
     294A      1.341893   295A      1.353852   296A      1.360475  
     297A      1.368834   298A      1.371041   299A      1.385402  
     300A      1.391175   301A      1.398269   302A      1.409851  
     303A      1.418036   304A      1.421782   305A      1.433897  
     306A      1.437417   307A      1.444835   308A      1.449220  
     309A      1.464873   310A      1.472162   311A      1.482954  
     312A      1.485578   313A      1.490349   314A      1.492898  
     315A      1.508597   316A      1.511394   317A      1.521190  
     318A      1.531238   319A      1.543394   320A      1.554436  
     321A      1.559122   322A      1.565506   323A      1.567023  
     324A      1.581634   325A      1.591794   326A      1.597073  
     327A      1.606058   328A      1.610524   329A      1.623336  
     330A      1.626888   331A      1.640763   332A      1.644908  
     333A      1.652750   334A      1.659774   335A      1.665146  
     336A      1.682306   337A      1.685425   338A      1.688311  
     339A      1.691388   340A      1.700811   341A      1.707232  
     342A      1.711126   343A      1.719483   344A      1.722959  
     345A      1.729183   346A      1.739997   347A      1.749722  
     348A      1.759203   349A      1.762668   350A      1.767092  
     351A      1.772115   352A      1.778895   353A      1.787061  
     354A      1.789268   355A      1.799467   356A      1.811758  
     357A      1.813959   358A      1.828099   359A      1.834609  
     360A      1.838844   361A      1.854074   362A      1.858227  
     363A      1.862974   364A      1.866941   365A      1.876011  
     366A      1.881100   367A      1.889856   368A      1.894993  
     369A      1.903075   370A      1.913144   371A      1.918090  
     372A      1.930937   373A      1.932476   374A      1.944576  
     375A      1.948413   376A      1.951687   377A      1.960726  
     378A      1.968304   379A      1.974087   380A      1.979407  
     381A      1.986690   382A      1.993365   383A      2.000234  
     384A      2.019962   385A      2.023413   386A      2.030195  
     387A      2.041020   388A      2.042242   389A      2.065523  
     390A      2.071521   391A      2.073368   392A      2.094389  
     393A      2.101010   394A      2.111605   395A      2.115167  
     396A      2.126983   397A      2.140040   398A      2.146114  
     399A      2.155529   400A      2.164904   401A      2.168527  
     402A      2.182115   403A      2.187613   404A      2.192952  
     405A      2.203678   406A      2.216262   407A      2.227404  
     408A      2.239397   409A      2.249775   410A      2.257997  
     411A      2.260338   412A      2.266228   413A      2.267064  
     414A      2.283097   415A      2.288079   416A      2.296771  
     417A      2.304721   418A      2.317868   419A      2.323510  
     420A      2.332095   421A      2.346925   422A      2.362351  
     423A      2.374225   424A      2.379307   425A      2.382682  
     426A      2.402791   427A      2.407935   428A      2.421084  
     429A      2.431615   430A      2.448848   431A      2.451240  
     432A      2.471360   433A      2.482517   434A      2.504115  
     435A      2.528822   436A      2.539098   437A      2.568287  
     438A      2.580909   439A      2.589017   440A      2.609703  
     441A      2.623607   442A      2.642988   443A      2.648501  
     444A      2.684624   445A      2.696400   446A      2.712948  
     447A      2.717982   448A      2.735982   449A      2.782020  
     450A      2.818503   451A      2.832621   452A      2.877396  
     453A      2.918984   454A      2.941456   455A      2.956625  
     456A      2.987420   457A      3.005650   458A      3.016085  
     459A      3.070013   460A      3.080201   461A      3.116534  
     462A      3.139057   463A      3.186704   464A      3.196750  
     465A      3.219090   466A      3.239648   467A      3.256685  
     468A      3.263113   469A      3.274519   470A      3.286623  
     471A      3.306821   472A      3.334144   473A      3.357794  
     474A      3.373477   475A      3.387431   476A      3.400755  
     477A      3.420003   478A      3.425310   479A      3.444691  
     480A      3.456949   481A      3.469403   482A      3.476567  
     483A      3.488266   484A      3.493624   485A      3.513372  
     486A      3.519500   487A      3.540252   488A      3.548991  
     489A      3.558706   490A      3.575020   491A      3.581105  
     492A      3.599809   493A      3.601651   494A      3.616807  
     495A      3.625963   496A      3.630165   497A      3.645097  
     498A      3.646140   499A      3.652720   500A      3.670597  
     501A      3.682188   502A      3.687502   503A      3.694489  
     504A      3.700885   505A      3.704918   506A      3.720817  
     507A      3.728456   508A      3.743316   509A      3.756813  
     510A      3.765584   511A      3.771814   512A      3.786642  
     513A      3.791277   514A      3.804440   515A      3.811919  
     516A      3.819983   517A      3.825581   518A      3.829701  
     519A      3.834676   520A      3.839457   521A      3.860984  
     522A      3.865270   523A      3.872763   524A      3.882940  
     525A      3.893315   526A      3.919051   527A      3.942165  
     528A      3.945664   529A      3.959541   530A      3.962301  
     531A      3.964592   532A      3.981044   533A      3.990718  
     534A      3.995918   535A      4.008788   536A      4.014904  
     537A      4.018909   538A      4.029783   539A      4.035634  
     540A      4.045905   541A      4.056759   542A      4.068042  
     543A      4.075020   544A      4.086492   545A      4.098068  
     546A      4.107106   547A      4.115353   548A      4.126435  
     549A      4.128607   550A      4.134819   551A      4.153778  
     552A      4.170488   553A      4.172014   554A      4.186395  
     555A      4.194121   556A      4.198164   557A      4.202101  
     558A      4.214327   559A      4.220436   560A      4.227818  
     561A      4.246375   562A      4.254206   563A      4.264360  
     564A      4.269738   565A      4.279094   566A      4.294120  
     567A      4.306516   568A      4.314952   569A      4.324891  
     570A      4.345781   571A      4.356570   572A      4.365503  
     573A      4.375321   574A      4.384936   575A      4.386244  
     576A      4.414622   577A      4.420874   578A      4.441386  
     579A      4.452890   580A      4.474934   581A      4.480065  
     582A      4.487796   583A      4.508342   584A      4.528494  
     585A      4.532599   586A      4.543267   587A      4.544601  
     588A      4.567276   589A      4.599757   590A      4.606933  
     591A      4.613500   592A      4.627088   593A      4.636320  
     594A      4.644165   595A      4.671115   596A      4.686230  
     597A      4.692595   598A      4.711333   599A      4.725299  
     600A      4.735642   601A      4.750524   602A      4.761335  
     603A      4.764109   604A      4.789771   605A      4.806012  
     606A      4.816696   607A      4.819700   608A      4.835384  
     609A      4.855931   610A      4.859861   611A      4.872422  
     612A      4.881187   613A      4.899097   614A      4.902092  
     615A      4.920990   616A      4.928255   617A      4.945210  
     618A      4.956255   619A      4.959774   620A      4.968470  
     621A      4.977227   622A      4.988572   623A      5.004885  
     624A      5.014799   625A      5.031811   626A      5.043681  
     627A      5.047415   628A      5.058120   629A      5.064488  
     630A      5.076966   631A      5.084093   632A      5.115574  
     633A      5.122356   634A      5.130201   635A      5.141201  
     636A      5.160159   637A      5.167378   638A      5.179697  
     639A      5.197524   640A      5.202497   641A      5.214355  
     642A      5.231798   643A      5.241069   644A      5.249978  
     645A      5.279114   646A      5.307295   647A      5.309102  
     648A      5.329060   649A      5.333834   650A      5.344857  
     651A      5.366847   652A      5.386839   653A      5.390156  
     654A      5.404321   655A      5.413855   656A      5.432522  
     657A      5.436876   658A      5.447325   659A      5.464132  
     660A      5.483107   661A      5.491425   662A      5.501666  
     663A      5.511001   664A      5.524363   665A      5.551688  
     666A      5.557039   667A      5.565289   668A      5.593281  
     669A      5.604855   670A      5.620207   671A      5.638679  
     672A      5.664692   673A      5.676775   674A      5.679637  
     675A      5.719653   676A      5.726826   677A      5.744308  
     678A      5.779623   679A      5.794147   680A      5.819400  
     681A      5.844913   682A      5.864355   683A      5.894090  
     684A      5.944539   685A      5.965029   686A      6.019947  
     687A      6.031025   688A      6.054832   689A      6.111899  
     690A      6.120434   691A      6.151082   692A      6.190632  
     693A      6.202077   694A      6.215911   695A      6.229331  
     696A      6.241871   697A      6.289780   698A      6.334321  
     699A      6.343032   700A      6.361195   701A      6.405205  
     702A      6.551229   703A      6.644846   704A      6.660014  
     705A      6.689904   706A      6.721647   707A      6.765342  
     708A      6.788486   709A      6.800497   710A      6.819031  
     711A      6.837367   712A      6.865670   713A      6.900971  
     714A      6.959009   715A      6.975963   716A      6.995377  
     717A      7.041171   718A      7.124116   719A      7.348731  
     720A      7.375276   721A      7.531070   722A      7.555326  
     723A      7.746471   724A      7.859920   725A      7.979976  
     726A      8.320519   727A      8.681065   728A     16.243167  
     729A     17.032541   730A     17.323067   731A     17.932734  
     732A     18.173880   733A     18.518420   734A     18.900854  
     735A     20.304441   736A     20.946631  

    Final Occupation by Irrep:
              A 
    DOCC [    35 ]

  @DF-RHF Final Energy:  -386.06220838169617

   => Energetics <=

    Nuclear Repulsion Energy =            418.1118264807932405
    One-Electron Energy =               -1352.1518085595832872
    Two-Electron Energy =                 547.9777736970937667
    Total Energy =                       -386.0622083816962231

Computation Completed

*** tstop() called on node55.bme.utexas.edu at Tue Nov  3 15:27:30 2020
Module time:
	user time   =     368.88 seconds =       6.15 minutes
	system time =      48.17 seconds =       0.80 minutes
	total time  =         90 seconds =       1.50 minutes
Total time:
	user time   =     368.88 seconds =       6.15 minutes
	system time =      48.17 seconds =       0.80 minutes
	total time  =         90 seconds =       1.50 minutes
   => Loading Basis Set <=

    Name: (AUG-CC-PVTZ AUX)
    Role: RIFIT
    Keyword: DF_BASIS_MP2
    atoms 1     entry O          line   264 file /home/xy3866/psi4conda/share/psi4/basis/aug-cc-pvtz-ri.gbs 
    atoms 2-9   entry C          line   148 file /home/xy3866/psi4conda/share/psi4/basis/aug-cc-pvtz-ri.gbs 
    atoms 10-23 entry H          line    30 file /home/xy3866/psi4conda/share/psi4/basis/aug-cc-pvtz-ri.gbs 


*** tstart() called on node55.bme.utexas.edu
*** at Tue Nov  3 15:27:31 2020


  //>>>>>>>>>>>>>>>>>>>>>>>>>>>>>>>>>>>//
  //               DFMP2               //
  //<<<<<<<<<<<<<<<<<<<<<<<<<<<<<<<<<<<//

	 --------------------------------------------------------
	                          DF-MP2                         
	      2nd-Order Density-Fitted Moller-Plesset Theory     
	              RMP2 Wavefunction,   8 Threads             
	                                                         
	        Rob Parrish, Justin Turney, Andy Simmonett,      
	           Ed Hohenstein, and C. David Sherrill          
	 --------------------------------------------------------

   => Auxiliary Basis Set <=

  Basis Set: (AUG-CC-PVTZ AUX)
    Blend: AUG-CC-PVTZ-RI
    Number of shells: 448
    Number of basis function: 1598
    Number of Cartesian functions: 1994
    Spherical Harmonics?: true
    Max angular momentum: 4

	 --------------------------------------------------------
	                 NBF =   736, NAUX =  1598
	 --------------------------------------------------------
	   CLASS    FOCC     OCC    AOCC    AVIR     VIR    FVIR
	   PAIRS       0      35      35     701     701       0
	 --------------------------------------------------------

  DFHelper Memory: AOs need 5.620 GiB; user supplied 22.352 GiB. Using in-core AOs.


         ------------------------------------------------------------
                                     CPHF                           
                                  Rob Parrish                       
         ------------------------------------------------------------

  ==> Geometry <==

    Molecular point group: c1
    Full point group: C1

    Geometry (in Angstrom), charge = 0, multiplicity = 1:

       Center              X                  Y                   Z               Mass       
    ------------   -----------------  -----------------  -----------------  -----------------
         O            2.692562016578    -1.333589714737    -0.026246178292    15.994914619570
         C            2.750152016578     0.026343285263     0.407165821708    12.000000000000
         C            1.366572016578     0.567903085263     0.393493821708    12.000000000000
         C           -3.549904983422     0.363013285263    -0.409974178292    12.000000000000
         C            3.670203016578     0.841889285263    -0.495670178292    12.000000000000
         C            0.269710016578    -0.101571714737    -0.000474178292    12.000000000000
         C           -2.163885983422    -0.199576714737    -0.408864178292    12.000000000000
         C           -1.064228983422     0.470694285263    -0.017421178292    12.000000000000
         C           -4.470982983422    -0.382625714737     0.558581821708    12.000000000000
         H            3.135416016578     0.069698285263     1.440668821708     1.007825032230
         H            1.264817016578     1.612785285263     0.725492821708     1.007825032230
         H           -3.512053983422     1.425785285263    -0.144090178292     1.007825032230
         H           -3.972046983422     0.305924285263    -1.421817178292     1.007825032230
         H            3.305305016578     0.783654285263    -1.523534178292     1.007825032230
         H            3.698350016578     1.890829285263    -0.186905178292     1.007825032230
         H            4.694122016578     0.453610285263    -0.460629178292     1.007825032230
         H            0.392732116578    -1.133568014737    -0.321075178292     1.007825032230
         H           -2.058023983422    -1.237783714737    -0.730208178292     1.007825032230
         H           -1.165507983422     1.508441285263     0.306690821708     1.007825032230
         H           -4.526221983422    -1.444881714737     0.303523821708     1.007825032230
         H           -5.486018983422     0.024083285263     0.531274821708     1.007825032230
         H           -4.094983983422    -0.302093714737     1.581736821708     1.007825032230
         H            3.602156016578    -1.676500714737    -0.004133178292     1.007825032230

  Nuclear repulsion =  418.111826480793241
  Reference energy  = -386.062208381696166

  ==> Basis Set <==

  Basis Set: AUG-CC-PVTZ
    Blend: AUG-CC-PVTZ
    Number of shells: 252
    Number of basis function: 736
    Number of Cartesian functions: 845
    Spherical Harmonics?: true
    Max angular momentum: 3

  ==> CGRSolver (by Rob Parrish) <==

   Number of roots    =         1
   Preconditioning    =    JACOBI
   Convergence cutoff =     1E-06
   Maximum iterations =       100

  ==> CPHFRHamiltonian (by Rob Parrish) <== 

  ==> MemDFJK: Density-Fitted J/K Matrices <==

    J tasked:                   Yes
    K tasked:                   Yes
    wK tasked:                   No
    OpenMP threads:               8
    Memory [MiB]:             22888
    Algorithm:                 Disk
    Schwarz Cutoff:           1E-12
    Mask sparsity (%):      14.3741
    Fitting Condition:        1E-10

   => Auxiliary Basis Set <=

  Basis Set: (AUG-CC-PVTZ AUX)
    Blend: AUG-CC-PVTZ-JKFIT
    Number of shells: 466
    Number of basis function: 1580
    Number of Cartesian functions: 1949
    Spherical Harmonics?: true
    Max angular momentum: 4

  ==> CPHF Iterations <==

  => Iterations <=

             Iter  Converged  Remaining    Residual
  CGR           1          0          1   8.077E-02
  CGR           2          0          1   1.722E-02
  CGR           3          0          1   7.043E-03
  CGR           4          0          1   1.876E-03
  CGR           5          0          1   6.374E-04
  CGR           6          0          1   2.491E-04
  CGR           7          0          1   1.024E-04
  CGR           8          0          1   3.527E-05
  CGR           9          0          1   1.224E-05
  CGR          10          0          1   3.373E-06
  CGR          11          1          0   7.625E-07

    CGRSolver converged.

	-----------------------------------------------------------
	 ==================> DF-MP2 Energies <==================== 
	-----------------------------------------------------------
	 Reference Energy          =    -386.0622083816961663 [Eh]
	 Singles Energy            =      -0.0000000000000000 [Eh]
	 Same-Spin Energy          =      -0.4004665741077680 [Eh]
	 Opposite-Spin Energy      =      -1.3784474944551357 [Eh]
	 Correlation Energy        =      -1.7789140685629037 [Eh]
	 Total Energy              =    -387.8411224502590926 [Eh]
	-----------------------------------------------------------
	 ================> DF-SCS-MP2 Energies <================== 
	-----------------------------------------------------------
	 SCS Same-Spin Scale       =       0.3333333333333333 [-]
	 SCS Opposite-Spin Scale   =       1.2000000000000000 [-]
	 SCS Same-Spin Energy      =      -0.1334888580359226 [Eh]
	 SCS Opposite-Spin Energy  =      -1.6541369933461627 [Eh]
	 SCS Correlation Energy    =      -1.7876258513820853 [Eh]
	 SCS Total Energy          =    -387.8498342330782407 [Eh]
	-----------------------------------------------------------



Properties will be evaluated at  -0.000000,   0.000000,   0.000000 [a0]

Properties computed using the MP2 density matrix

  Nuclear Dipole Moment: [e a0]
     X:    -4.4138      Y:     2.1310      Z:     0.0908

  Electronic Dipole Moment: [e a0]
     X:     4.8902      Y:    -1.8460      Z:     0.0301

  Dipole Moment: [e a0]
     X:     0.4765      Y:     0.2850      Z:     0.1209     Total:     0.5682

  Dipole Moment: [D]
     X:     1.2111      Y:     0.7245      Z:     0.3073     Total:     1.4443


*** tstop() called on node55.bme.utexas.edu at Tue Nov  3 15:31:08 2020
Module time:
	user time   =    1212.85 seconds =      20.21 minutes
	system time =      56.36 seconds =       0.94 minutes
	total time  =        217 seconds =       3.62 minutes
Total time:
	user time   =    1582.94 seconds =      26.38 minutes
	system time =     104.57 seconds =       1.74 minutes
	total time  =        308 seconds =       5.13 minutes

    Psi4 stopped on: Tuesday, 03 November 2020 03:31PM
    Psi4 wall time for execution: 0:05:07.87

*** Psi4 exiting successfully. Buy a developer a beer!
