
    -----------------------------------------------------------------------
          Psi4: An Open-Source Ab Initio Electronic Structure Package
                               Psi4 1.3.2 release

                         Git: Rev {HEAD} ecbda83 


    R. M. Parrish, L. A. Burns, D. G. A. Smith, A. C. Simmonett,
    A. E. DePrince III, E. G. Hohenstein, U. Bozkaya, A. Yu. Sokolov,
    R. Di Remigio, R. M. Richard, J. F. Gonthier, A. M. James,
    H. R. McAlexander, A. Kumar, M. Saitow, X. Wang, B. P. Pritchard,
    P. Verma, H. F. Schaefer III, K. Patkowski, R. A. King, E. F. Valeev,
    F. A. Evangelista, J. M. Turney, T. D. Crawford, and C. D. Sherrill,
    J. Chem. Theory Comput. 13(7) pp 3185--3197 (2017).
    (doi: 10.1021/acs.jctc.7b00174)


                         Additional Contributions by
    P. Kraus, H. Kruse, M. H. Lechner, M. C. Schieber, R. A. Shaw,
    A. Alenaizan, R. Galvelis, Z. L. Glick, S. Lehtola, and J. P. Misiewicz

    -----------------------------------------------------------------------


    Psi4 started on: Tuesday, 03 November 2020 09:36AM

    Process ID: 89305
    Host:       node55.bme.utexas.edu
    PSIDATADIR: /home/xy3866/psi4conda/share/psi4
    Memory:     500.0 MiB
    Threads:    8
    
  ==> Input File <==

--------------------------------------------------------------------------
#psi4
#
memory 32 gb

molecule  {
0 1
  O        2.6932640    -1.3344870    -0.0264310
  C        2.7548855     0.1206468     0.4373216
  C        1.3606810     0.5764810     0.3953890
  C       -3.5492030     0.3621160    -0.4101590
  C        3.6709050     0.8409920    -0.4958550
  C        0.2704120    -0.1024690    -0.0006590
  C       -2.1631840    -0.2004740    -0.4090490
  C       -1.0635270     0.4697970    -0.0176060
  C       -4.4702810    -0.3835230     0.5583970
  H        3.1361180     0.0688010     1.4404840
  H        1.2655190     1.6118880     0.7253080
  H       -3.5113520     1.4248880    -0.1442750
  H       -3.9713450     0.3050270    -1.4220020
  H        3.3060070     0.7827570    -1.5237190
  H        3.6990520     1.8899320    -0.1870900
  H        4.6948240     0.4527130    -0.4608140
  H        0.3841050    -1.1350190    -0.3229170
  H       -2.0573220    -1.2386810    -0.7303930
  H       -1.1648060     1.5075440     0.3065060
  H       -4.5255200    -1.4457790     0.3033390
  H       -5.4853170     0.0231860     0.5310900
  H       -4.0942820    -0.3029910     1.5815520
  H        3.6028580    -1.6773980    -0.0043180
units angstrom
no_reorient  #important for SAPT in psi4, default
symmetry c1  #important for SAPT in psi4, default
}

set PROPERTIES_ORIGIN ["COM"]
properties('MP2/aug-cc-pvtz', properties = ['dipole'])
--------------------------------------------------------------------------

  Memory set to  29.802 GiB by Python driver.
    SCF Algorithm Type (re)set to DF.

*** tstart() called on node55.bme.utexas.edu
*** at Tue Nov  3 09:36:06 2020

   => Loading Basis Set <=

    Name: AUG-CC-PVTZ
    Role: ORBITAL
    Keyword: BASIS
    atoms 1     entry O          line   327 file /home/xy3866/psi4conda/share/psi4/basis/aug-cc-pvtz.gbs 
    atoms 2-9   entry C          line   235 file /home/xy3866/psi4conda/share/psi4/basis/aug-cc-pvtz.gbs 
    atoms 10-23 entry H          line    36 file /home/xy3866/psi4conda/share/psi4/basis/aug-cc-pvtz.gbs 


         ---------------------------------------------------------
                                   SCF
               by Justin Turney, Rob Parrish, Andy Simmonett
                          and Daniel G. A. Smith
                              RHF Reference
                        8 Threads,  30517 MiB Core
         ---------------------------------------------------------

  ==> Geometry <==

    Molecular point group: c1
    Full point group: C1

    Geometry (in Angstrom), charge = 0, multiplicity = 1:

       Center              X                  Y                   Z               Mass       
    ------------   -----------------  -----------------  -----------------  -----------------
         O            2.692880324898    -1.343546173984    -0.029318053928    15.994914619570
         C            2.754501824898     0.111587626016     0.434434546072    12.000000000000
         C            1.360297324898     0.567421826016     0.392501946072    12.000000000000
         C           -3.549586675102     0.353056826016    -0.413046053928    12.000000000000
         C            3.670521324898     0.831932826016    -0.498742053928    12.000000000000
         C            0.270028324898    -0.111528173984    -0.003546053928    12.000000000000
         C           -2.163567675102    -0.209533173984    -0.411936053928    12.000000000000
         C           -1.063910675102     0.460737826016    -0.020493053928    12.000000000000
         C           -4.470664675102    -0.392582173984     0.555509946072    12.000000000000
         H            3.135734324898     0.059741826016     1.437596946072     1.007825032230
         H            1.265135324898     1.602828826016     0.722420946072     1.007825032230
         H           -3.511735675102     1.415828826016    -0.147162053928     1.007825032230
         H           -3.971728675102     0.295967826016    -1.424889053928     1.007825032230
         H            3.305623324898     0.773697826016    -1.526606053928     1.007825032230
         H            3.698668324898     1.880872826016    -0.189977053928     1.007825032230
         H            4.694440324898     0.443653826016    -0.463701053928     1.007825032230
         H            0.383721324898    -1.144078173984    -0.325804053928     1.007825032230
         H           -2.057705675102    -1.247740173984    -0.733280053928     1.007825032230
         H           -1.165189675102     1.498484826016     0.303618946072     1.007825032230
         H           -4.525903675102    -1.454838173984     0.300451946072     1.007825032230
         H           -5.485700675102     0.014126826016     0.528202946072     1.007825032230
         H           -4.094665675102    -0.312050173984     1.578664946072     1.007825032230
         H            3.602474324898    -1.686457173984    -0.007205053928     1.007825032230

  Running in c1 symmetry.

  Rotational constants: A =      0.18177  B =      0.01603  C =      0.01541 [cm^-1]
  Rotational constants: A =   5449.37929  B =    480.63230  C =    462.00145 [MHz]
  Nuclear repulsion =  417.383265921508837

  Charge       = 0
  Multiplicity = 1
  Electrons    = 70
  Nalpha       = 35
  Nbeta        = 35

  ==> Algorithm <==

  SCF Algorithm Type is DF.
  DIIS enabled.
  MOM disabled.
  Fractional occupation disabled.
  Guess Type is SAD.
  Energy threshold   = 1.00e-10
  Density threshold  = 1.00e-10
  Integral threshold = 0.00e+00

  ==> Primary Basis <==

  Basis Set: AUG-CC-PVTZ
    Blend: AUG-CC-PVTZ
    Number of shells: 252
    Number of basis function: 736
    Number of Cartesian functions: 845
    Spherical Harmonics?: true
    Max angular momentum: 3

   => Loading Basis Set <=

    Name: (AUG-CC-PVTZ AUX)
    Role: JKFIT
    Keyword: DF_BASIS_SCF
    atoms 1     entry O          line   286 file /home/xy3866/psi4conda/share/psi4/basis/aug-cc-pvtz-jkfit.gbs 
    atoms 2-9   entry C          line   162 file /home/xy3866/psi4conda/share/psi4/basis/aug-cc-pvtz-jkfit.gbs 
    atoms 10-23 entry H          line    70 file /home/xy3866/psi4conda/share/psi4/basis/aug-cc-pvtz-jkfit.gbs 

  ==> Pre-Iterations <==

   -------------------------------------------------------
    Irrep   Nso     Nmo     Nalpha   Nbeta   Ndocc  Nsocc
   -------------------------------------------------------
     A        736     736       0       0       0       0
   -------------------------------------------------------
    Total     736     736      35      35      35       0
   -------------------------------------------------------

  ==> Integral Setup <==

  DFHelper Memory: AOs need 5.619 GiB; user supplied 22.352 GiB. Using in-core AOs.

  ==> MemDFJK: Density-Fitted J/K Matrices <==

    J tasked:                   Yes
    K tasked:                   Yes
    wK tasked:                   No
    OpenMP threads:               8
    Memory [MiB]:             22888
    Algorithm:                 Disk
    Schwarz Cutoff:           1E-12
    Mask sparsity (%):      14.3830
    Fitting Condition:        1E-10

   => Auxiliary Basis Set <=

  Basis Set: (AUG-CC-PVTZ AUX)
    Blend: AUG-CC-PVTZ-JKFIT
    Number of shells: 466
    Number of basis function: 1580
    Number of Cartesian functions: 1949
    Spherical Harmonics?: true
    Max angular momentum: 4

  Minimum eigenvalue in the overlap matrix is 1.5300253261E-06.
  Using Symmetric Orthogonalization.

  SCF Guess: Superposition of Atomic Densities via on-the-fly atomic UHF.

  ==> Iterations <==

                           Total Energy        Delta E     RMS |[F,P]|

   @DF-RHF iter SAD:  -384.92490455973865   -3.84925e+02   0.00000e+00 
   @DF-RHF iter   1:  -385.68819253530626   -7.63288e-01   1.05329e-03 DIIS
   @DF-RHF iter   2:  -385.98553972815540   -2.97347e-01   5.10742e-04 DIIS
   @DF-RHF iter   3:  -386.04703872390996   -6.14990e-02   1.09921e-04 DIIS
   @DF-RHF iter   4:  -386.05148975827308   -4.45103e-03   4.69169e-05 DIIS
   @DF-RHF iter   5:  -386.05213369562796   -6.43937e-04   6.86735e-06 DIIS
   @DF-RHF iter   6:  -386.05216123168231   -2.75361e-05   2.20945e-06 DIIS
   @DF-RHF iter   7:  -386.05216371227931   -2.48060e-06   7.12717e-07 DIIS
   @DF-RHF iter   8:  -386.05216405945112   -3.47172e-07   3.30879e-07 DIIS
   @DF-RHF iter   9:  -386.05216412198155   -6.25304e-08   9.17825e-08 DIIS
   @DF-RHF iter  10:  -386.05216413067569   -8.69414e-09   4.32446e-08 DIIS
   @DF-RHF iter  11:  -386.05216413228158   -1.60588e-09   1.32787e-08 DIIS
   @DF-RHF iter  12:  -386.05216413245455   -1.72975e-10   4.06253e-09 DIIS
   @DF-RHF iter  13:  -386.05216413247081   -1.62572e-11   2.42939e-09 DIIS
   @DF-RHF iter  14:  -386.05216413247291   -2.10321e-12   5.37357e-10 DIIS
   @DF-RHF iter  15:  -386.05216413247302   -1.13687e-13   1.94239e-10 DIIS
   @DF-RHF iter  16:  -386.05216413247285    1.70530e-13   6.22900e-11 DIIS
  Energy and wave function converged.


  ==> Post-Iterations <==

    Orbital Energies [Eh]
    ---------------------

    Doubly Occupied:                                                      

       1A    -20.545236     2A    -11.287345     3A    -11.227843  
       4A    -11.226740     5A    -11.224530     6A    -11.224278  
       7A    -11.223062     8A    -11.223012     9A    -11.213636  
      10A     -1.323464    11A     -1.100457    12A     -1.067558  
      13A     -1.022852    14A     -0.965866    15A     -0.880594  
      16A     -0.830639    17A     -0.754020    18A     -0.745407  
      19A     -0.685701    20A     -0.634695    21A     -0.628514  
      22A     -0.608285    23A     -0.590513    24A     -0.579531  
      25A     -0.552241    26A     -0.544880    27A     -0.521175  
      28A     -0.519643    29A     -0.501138    30A     -0.483373  
      31A     -0.480827    32A     -0.472003    33A     -0.452902  
      34A     -0.421989    35A     -0.300104  

    Virtual:                                                              

      36A      0.026926    37A      0.031323    38A      0.035166  
      39A      0.039003    40A      0.044193    41A      0.046470  
      42A      0.047905    43A      0.058025    44A      0.060118  
      45A      0.065520    46A      0.068340    47A      0.073946  
      48A      0.085287    49A      0.086560    50A      0.099275  
      51A      0.105130    52A      0.106292    53A      0.114576  
      54A      0.116657    55A      0.119123    56A      0.124317  
      57A      0.126028    58A      0.131577    59A      0.133732  
      60A      0.136768    61A      0.138029    62A      0.143868  
      63A      0.147474    64A      0.151304    65A      0.154595  
      66A      0.161257    67A      0.163320    68A      0.170216  
      69A      0.173563    70A      0.181291    71A      0.183082  
      72A      0.184950    73A      0.193060    74A      0.200750  
      75A      0.212608    76A      0.221029    77A      0.223220  
      78A      0.225103    79A      0.232898    80A      0.239004  
      81A      0.244325    82A      0.247795    83A      0.248875  
      84A      0.251923    85A      0.258197    86A      0.262610  
      87A      0.272110    88A      0.273954    89A      0.279420  
      90A      0.282581    91A      0.290844    92A      0.301833  
      93A      0.302412    94A      0.303960    95A      0.309301  
      96A      0.314851    97A      0.320323    98A      0.321014  
      99A      0.326795   100A      0.331180   101A      0.338959  
     102A      0.343528   103A      0.349718   104A      0.354365  
     105A      0.359337   106A      0.360239   107A      0.364519  
     108A      0.368168   109A      0.370617   110A      0.372746  
     111A      0.379569   112A      0.385873   113A      0.387610  
     114A      0.389977   115A      0.392663   116A      0.396569  
     117A      0.397954   118A      0.403095   119A      0.407026  
     120A      0.411320   121A      0.415671   122A      0.418974  
     123A      0.426962   124A      0.429935   125A      0.432032  
     126A      0.432930   127A      0.440432   128A      0.450286  
     129A      0.453658   130A      0.455076   131A      0.461049  
     132A      0.463820   133A      0.465284   134A      0.472039  
     135A      0.474343   136A      0.480102   137A      0.486333  
     138A      0.488565   139A      0.490274   140A      0.491972  
     141A      0.492696   142A      0.501108   143A      0.502586  
     144A      0.509135   145A      0.511252   146A      0.515675  
     147A      0.518031   148A      0.521281   149A      0.527706  
     150A      0.528929   151A      0.534935   152A      0.539483  
     153A      0.547358   154A      0.548485   155A      0.557704  
     156A      0.559614   157A      0.563843   158A      0.568123  
     159A      0.570362   160A      0.572125   161A      0.578953  
     162A      0.585871   163A      0.592710   164A      0.597245  
     165A      0.598541   166A      0.608498   167A      0.609874  
     168A      0.617977   169A      0.620095   170A      0.627771  
     171A      0.628748   172A      0.636725   173A      0.640481  
     174A      0.650189   175A      0.659411   176A      0.664493  
     177A      0.674246   178A      0.684621   179A      0.688360  
     180A      0.701504   181A      0.705299   182A      0.715309  
     183A      0.716664   184A      0.732302   185A      0.737653  
     186A      0.740268   187A      0.753558   188A      0.765764  
     189A      0.771116   190A      0.772775   191A      0.780876  
     192A      0.795202   193A      0.804133   194A      0.809762  
     195A      0.813755   196A      0.814666   197A      0.818127  
     198A      0.831594   199A      0.833467   200A      0.836915  
     201A      0.843309   202A      0.847004   203A      0.848118  
     204A      0.861223   205A      0.870834   206A      0.874826  
     207A      0.881278   208A      0.886090   209A      0.891327  
     210A      0.894227   211A      0.897671   212A      0.905188  
     213A      0.914309   214A      0.916295   215A      0.920256  
     216A      0.925403   217A      0.934252   218A      0.934456  
     219A      0.940692   220A      0.946405   221A      0.948340  
     222A      0.951347   223A      0.961145   224A      0.963544  
     225A      0.972055   226A      0.972245   227A      0.979379  
     228A      0.985282   229A      0.988707   230A      0.991461  
     231A      0.996197   232A      1.003203   233A      1.008555  
     234A      1.016559   235A      1.017557   236A      1.022863  
     237A      1.024987   238A      1.033000   239A      1.036837  
     240A      1.042499   241A      1.045961   242A      1.052077  
     243A      1.053478   244A      1.057425   245A      1.061700  
     246A      1.072058   247A      1.077862   248A      1.078192  
     249A      1.084545   250A      1.088943   251A      1.098971  
     252A      1.102944   253A      1.108671   254A      1.113591  
     255A      1.121755   256A      1.124651   257A      1.127401  
     258A      1.137836   259A      1.140408   260A      1.146515  
     261A      1.153692   262A      1.165133   263A      1.168131  
     264A      1.174526   265A      1.176900   266A      1.179921  
     267A      1.185516   268A      1.191354   269A      1.194030  
     270A      1.200414   271A      1.212222   272A      1.214331  
     273A      1.215684   274A      1.221439   275A      1.229295  
     276A      1.229763   277A      1.238423   278A      1.242481  
     279A      1.246242   280A      1.256261   281A      1.261625  
     282A      1.265753   283A      1.268752   284A      1.272850  
     285A      1.278810   286A      1.287422   287A      1.296403  
     288A      1.302311   289A      1.304076   290A      1.313620  
     291A      1.321552   292A      1.326826   293A      1.330930  
     294A      1.345181   295A      1.350335   296A      1.358748  
     297A      1.365448   298A      1.369257   299A      1.389903  
     300A      1.392731   301A      1.397524   302A      1.405677  
     303A      1.417675   304A      1.421953   305A      1.435669  
     306A      1.437538   307A      1.444956   308A      1.449816  
     309A      1.463370   310A      1.470356   311A      1.480633  
     312A      1.489562   313A      1.491132   314A      1.495225  
     315A      1.508457   316A      1.518155   317A      1.524472  
     318A      1.531791   319A      1.543676   320A      1.557611  
     321A      1.558424   322A      1.568804   323A      1.573876  
     324A      1.579700   325A      1.590931   326A      1.600884  
     327A      1.606896   328A      1.613441   329A      1.623566  
     330A      1.630554   331A      1.641580   332A      1.647924  
     333A      1.652689   334A      1.661584   335A      1.666873  
     336A      1.677373   337A      1.685853   338A      1.687287  
     339A      1.690019   340A      1.696973   341A      1.707175  
     342A      1.710968   343A      1.719770   344A      1.725561  
     345A      1.731832   346A      1.742849   347A      1.748110  
     348A      1.761362   349A      1.762436   350A      1.765439  
     351A      1.772534   352A      1.778940   353A      1.784922  
     354A      1.790785   355A      1.798388   356A      1.810475  
     357A      1.816640   358A      1.829652   359A      1.833919  
     360A      1.838018   361A      1.852602   362A      1.854314  
     363A      1.862600   364A      1.867737   365A      1.878212  
     366A      1.879390   367A      1.891147   368A      1.897983  
     369A      1.898729   370A      1.913688   371A      1.919799  
     372A      1.931334   373A      1.934100   374A      1.942531  
     375A      1.946861   376A      1.948392   377A      1.966517  
     378A      1.971555   379A      1.974218   380A      1.979017  
     381A      1.989676   382A      1.994073   383A      2.003326  
     384A      2.019714   385A      2.023312   386A      2.029406  
     387A      2.043368   388A      2.047951   389A      2.062784  
     390A      2.072250   391A      2.079501   392A      2.094856  
     393A      2.107196   394A      2.115359   395A      2.116328  
     396A      2.126740   397A      2.140146   398A      2.146169  
     399A      2.157734   400A      2.164967   401A      2.168706  
     402A      2.184631   403A      2.188403   404A      2.194318  
     405A      2.204190   406A      2.216189   407A      2.233140  
     408A      2.240612   409A      2.242528   410A      2.252496  
     411A      2.259759   412A      2.266594   413A      2.268972  
     414A      2.282212   415A      2.291214   416A      2.293064  
     417A      2.300124   418A      2.317921   419A      2.322614  
     420A      2.329750   421A      2.343771   422A      2.357792  
     423A      2.368848   424A      2.376456   425A      2.388187  
     426A      2.401719   427A      2.407735   428A      2.422099  
     429A      2.424615   430A      2.436835   431A      2.446818  
     432A      2.461978   433A      2.484192   434A      2.498510  
     435A      2.521441   436A      2.535781   437A      2.564747  
     438A      2.579022   439A      2.583184   440A      2.606205  
     441A      2.625379   442A      2.640212   443A      2.643432  
     444A      2.675925   445A      2.687886   446A      2.697520  
     447A      2.719893   448A      2.735424   449A      2.782277  
     450A      2.811916   451A      2.840103   452A      2.873958  
     453A      2.905935   454A      2.940261   455A      2.952216  
     456A      2.974218   457A      2.988756   458A      3.016819  
     459A      3.053434   460A      3.081674   461A      3.089571  
     462A      3.141754   463A      3.157717   464A      3.184563  
     465A      3.213839   466A      3.236532   467A      3.252215  
     468A      3.269697   469A      3.275878   470A      3.291892  
     471A      3.302992   472A      3.326802   473A      3.353579  
     474A      3.371556   475A      3.388935   476A      3.399044  
     477A      3.411615   478A      3.424416   479A      3.442559  
     480A      3.447656   481A      3.461659   482A      3.474761  
     483A      3.482010   484A      3.489246   485A      3.512097  
     486A      3.517989   487A      3.539960   488A      3.549283  
     489A      3.566720   490A      3.571689   491A      3.579910  
     492A      3.598162   493A      3.601012   494A      3.614287  
     495A      3.624535   496A      3.628674   497A      3.638797  
     498A      3.648334   499A      3.652614   500A      3.671334  
     501A      3.680222   502A      3.686680   503A      3.698111  
     504A      3.702285   505A      3.705477   506A      3.723918  
     507A      3.734457   508A      3.751333   509A      3.761883  
     510A      3.764272   511A      3.773579   512A      3.781608  
     513A      3.789128   514A      3.800090   515A      3.814103  
     516A      3.822130   517A      3.830450   518A      3.831571  
     519A      3.837867   520A      3.846766   521A      3.860087  
     522A      3.868158   523A      3.874279   524A      3.885676  
     525A      3.897434   526A      3.918780   527A      3.937509  
     528A      3.942036   529A      3.958367   530A      3.965775  
     531A      3.970981   532A      3.976564   533A      3.989568  
     534A      3.995723   535A      4.008662   536A      4.017106  
     537A      4.020163   538A      4.033756   539A      4.040468  
     540A      4.048294   541A      4.057995   542A      4.065819  
     543A      4.071565   544A      4.088796   545A      4.091789  
     546A      4.103670   547A      4.106368   548A      4.126978  
     549A      4.131623   550A      4.140978   551A      4.151356  
     552A      4.166173   553A      4.179323   554A      4.189223  
     555A      4.189948   556A      4.195712   557A      4.201743  
     558A      4.208328   559A      4.214868   560A      4.224423  
     561A      4.244102   562A      4.257263   563A      4.262448  
     564A      4.269888   565A      4.284323   566A      4.291658  
     567A      4.302837   568A      4.315902   569A      4.325663  
     570A      4.340536   571A      4.360613   572A      4.369408  
     573A      4.372867   574A      4.381181   575A      4.390452  
     576A      4.417316   577A      4.422093   578A      4.436702  
     579A      4.458003   580A      4.472463   581A      4.479237  
     582A      4.486705   583A      4.516797   584A      4.525947  
     585A      4.529002   586A      4.530599   587A      4.547073  
     588A      4.566923   589A      4.587493   590A      4.605415  
     591A      4.618669   592A      4.626147   593A      4.639218  
     594A      4.647071   595A      4.679145   596A      4.683851  
     597A      4.694010   598A      4.698663   599A      4.719563  
     600A      4.730456   601A      4.747966   602A      4.761185  
     603A      4.771870   604A      4.793793   605A      4.802117  
     606A      4.813962   607A      4.816355   608A      4.839432  
     609A      4.855438   610A      4.861195   611A      4.871712  
     612A      4.880484   613A      4.898528   614A      4.909067  
     615A      4.930014   616A      4.939895   617A      4.943977  
     618A      4.954486   619A      4.963702   620A      4.968194  
     621A      4.975230   622A      4.990970   623A      5.002086  
     624A      5.017981   625A      5.030058   626A      5.041700  
     627A      5.046231   628A      5.069786   629A      5.073117  
     630A      5.080056   631A      5.092054   632A      5.117694  
     633A      5.129909   634A      5.137050   635A      5.148357  
     636A      5.159003   637A      5.172834   638A      5.177305  
     639A      5.198173   640A      5.210066   641A      5.215479  
     642A      5.236606   643A      5.239450   644A      5.254903  
     645A      5.276687   646A      5.301509   647A      5.312635  
     648A      5.322966   649A      5.333789   650A      5.360199  
     651A      5.369095   652A      5.382685   653A      5.395498  
     654A      5.404534   655A      5.419339   656A      5.426477  
     657A      5.433449   658A      5.457864   659A      5.463121  
     660A      5.489229   661A      5.498212   662A      5.507652  
     663A      5.518042   664A      5.522503   665A      5.541670  
     666A      5.561004   667A      5.568995   668A      5.594649  
     669A      5.623674   670A      5.631258   671A      5.648092  
     672A      5.664090   673A      5.676225   674A      5.686357  
     675A      5.729928   676A      5.733025   677A      5.764309  
     678A      5.784313   679A      5.806810   680A      5.828768  
     681A      5.845026   682A      5.875946   683A      5.927171  
     684A      5.947457   685A      5.976285   686A      6.020833  
     687A      6.037614   688A      6.056923   689A      6.118345  
     690A      6.131285   691A      6.153114   692A      6.191180  
     693A      6.210432   694A      6.213602   695A      6.227855  
     696A      6.235766   697A      6.271261   698A      6.334538  
     699A      6.360078   700A      6.385636   701A      6.411950  
     702A      6.551549   703A      6.654336   704A      6.663653  
     705A      6.690668   706A      6.733512   707A      6.764192  
     708A      6.781091   709A      6.795437   710A      6.823369  
     711A      6.842733   712A      6.861390   713A      6.895561  
     714A      6.958110   715A      6.973315   716A      6.998540  
     717A      7.013690   718A      7.080704   719A      7.265382  
     720A      7.360414   721A      7.512151   722A      7.523325  
     723A      7.707052   724A      7.822113   725A      7.950964  
     726A      8.256504   727A      8.649481   728A     16.031013  
     729A     17.046770   730A     17.290557   731A     17.950902  
     732A     18.310295   733A     18.539974   734A     18.956493  
     735A     20.435398   736A     21.160633  

    Final Occupation by Irrep:
              A 
    DOCC [    35 ]

  @DF-RHF Final Energy:  -386.05216413247285

   => Energetics <=

    Nuclear Repulsion Energy =            417.3832659215088370
    One-Electron Energy =               -1350.7427534283272053
    Two-Electron Energy =                 547.3073233743455148
    Total Energy =                       -386.0521641324728535

Computation Completed

*** tstop() called on node55.bme.utexas.edu at Tue Nov  3 09:37:42 2020
Module time:
	user time   =     374.62 seconds =       6.24 minutes
	system time =      48.54 seconds =       0.81 minutes
	total time  =         96 seconds =       1.60 minutes
Total time:
	user time   =     374.62 seconds =       6.24 minutes
	system time =      48.54 seconds =       0.81 minutes
	total time  =         96 seconds =       1.60 minutes
   => Loading Basis Set <=

    Name: (AUG-CC-PVTZ AUX)
    Role: RIFIT
    Keyword: DF_BASIS_MP2
    atoms 1     entry O          line   264 file /home/xy3866/psi4conda/share/psi4/basis/aug-cc-pvtz-ri.gbs 
    atoms 2-9   entry C          line   148 file /home/xy3866/psi4conda/share/psi4/basis/aug-cc-pvtz-ri.gbs 
    atoms 10-23 entry H          line    30 file /home/xy3866/psi4conda/share/psi4/basis/aug-cc-pvtz-ri.gbs 


*** tstart() called on node55.bme.utexas.edu
*** at Tue Nov  3 09:37:42 2020


  //>>>>>>>>>>>>>>>>>>>>>>>>>>>>>>>>>>>//
  //               DFMP2               //
  //<<<<<<<<<<<<<<<<<<<<<<<<<<<<<<<<<<<//

	 --------------------------------------------------------
	                          DF-MP2                         
	      2nd-Order Density-Fitted Moller-Plesset Theory     
	              RMP2 Wavefunction,   8 Threads             
	                                                         
	        Rob Parrish, Justin Turney, Andy Simmonett,      
	           Ed Hohenstein, and C. David Sherrill          
	 --------------------------------------------------------

   => Auxiliary Basis Set <=

  Basis Set: (AUG-CC-PVTZ AUX)
    Blend: AUG-CC-PVTZ-RI
    Number of shells: 448
    Number of basis function: 1598
    Number of Cartesian functions: 1994
    Spherical Harmonics?: true
    Max angular momentum: 4

	 --------------------------------------------------------
	                 NBF =   736, NAUX =  1598
	 --------------------------------------------------------
	   CLASS    FOCC     OCC    AOCC    AVIR     VIR    FVIR
	   PAIRS       0      35      35     701     701       0
	 --------------------------------------------------------

  DFHelper Memory: AOs need 5.619 GiB; user supplied 22.352 GiB. Using in-core AOs.


         ------------------------------------------------------------
                                     CPHF                           
                                  Rob Parrish                       
         ------------------------------------------------------------

  ==> Geometry <==

    Molecular point group: c1
    Full point group: C1

    Geometry (in Angstrom), charge = 0, multiplicity = 1:

       Center              X                  Y                   Z               Mass       
    ------------   -----------------  -----------------  -----------------  -----------------
         O            2.692880324898    -1.343546173984    -0.029318053928    15.994914619570
         C            2.754501824898     0.111587626016     0.434434546072    12.000000000000
         C            1.360297324898     0.567421826016     0.392501946072    12.000000000000
         C           -3.549586675102     0.353056826016    -0.413046053928    12.000000000000
         C            3.670521324898     0.831932826016    -0.498742053928    12.000000000000
         C            0.270028324898    -0.111528173984    -0.003546053928    12.000000000000
         C           -2.163567675102    -0.209533173984    -0.411936053928    12.000000000000
         C           -1.063910675102     0.460737826016    -0.020493053928    12.000000000000
         C           -4.470664675102    -0.392582173984     0.555509946072    12.000000000000
         H            3.135734324898     0.059741826016     1.437596946072     1.007825032230
         H            1.265135324898     1.602828826016     0.722420946072     1.007825032230
         H           -3.511735675102     1.415828826016    -0.147162053928     1.007825032230
         H           -3.971728675102     0.295967826016    -1.424889053928     1.007825032230
         H            3.305623324898     0.773697826016    -1.526606053928     1.007825032230
         H            3.698668324898     1.880872826016    -0.189977053928     1.007825032230
         H            4.694440324898     0.443653826016    -0.463701053928     1.007825032230
         H            0.383721324898    -1.144078173984    -0.325804053928     1.007825032230
         H           -2.057705675102    -1.247740173984    -0.733280053928     1.007825032230
         H           -1.165189675102     1.498484826016     0.303618946072     1.007825032230
         H           -4.525903675102    -1.454838173984     0.300451946072     1.007825032230
         H           -5.485700675102     0.014126826016     0.528202946072     1.007825032230
         H           -4.094665675102    -0.312050173984     1.578664946072     1.007825032230
         H            3.602474324898    -1.686457173984    -0.007205053928     1.007825032230

  Nuclear repulsion =  417.383265921508837
  Reference energy  = -386.052164132472853

  ==> Basis Set <==

  Basis Set: AUG-CC-PVTZ
    Blend: AUG-CC-PVTZ
    Number of shells: 252
    Number of basis function: 736
    Number of Cartesian functions: 845
    Spherical Harmonics?: true
    Max angular momentum: 3

  ==> CGRSolver (by Rob Parrish) <==

   Number of roots    =         1
   Preconditioning    =    JACOBI
   Convergence cutoff =     1E-06
   Maximum iterations =       100

  ==> CPHFRHamiltonian (by Rob Parrish) <== 

  ==> MemDFJK: Density-Fitted J/K Matrices <==

    J tasked:                   Yes
    K tasked:                   Yes
    wK tasked:                   No
    OpenMP threads:               8
    Memory [MiB]:             22888
    Algorithm:                 Disk
    Schwarz Cutoff:           1E-12
    Mask sparsity (%):      14.3830
    Fitting Condition:        1E-10

   => Auxiliary Basis Set <=

  Basis Set: (AUG-CC-PVTZ AUX)
    Blend: AUG-CC-PVTZ-JKFIT
    Number of shells: 466
    Number of basis function: 1580
    Number of Cartesian functions: 1949
    Spherical Harmonics?: true
    Max angular momentum: 4

  ==> CPHF Iterations <==

  => Iterations <=

             Iter  Converged  Remaining    Residual
  CGR           1          0          1   8.435E-02
  CGR           2          0          1   1.983E-02
  CGR           3          0          1   7.804E-03
  CGR           4          0          1   2.199E-03
  CGR           5          0          1   8.130E-04
  CGR           6          0          1   3.207E-04
  CGR           7          0          1   1.277E-04
  CGR           8          0          1   4.089E-05
  CGR           9          0          1   1.387E-05
  CGR          10          0          1   3.774E-06
  CGR          11          1          0   9.116E-07

    CGRSolver converged.

	-----------------------------------------------------------
	 ==================> DF-MP2 Energies <==================== 
	-----------------------------------------------------------
	 Reference Energy          =    -386.0521641324728535 [Eh]
	 Singles Energy            =      -0.0000000000000000 [Eh]
	 Same-Spin Energy          =      -0.4010028137588381 [Eh]
	 Opposite-Spin Energy      =      -1.3806499774824128 [Eh]
	 Correlation Energy        =      -1.7816527912412510 [Eh]
	 Total Energy              =    -387.8338169237140960 [Eh]
	-----------------------------------------------------------
	 ================> DF-SCS-MP2 Energies <================== 
	-----------------------------------------------------------
	 SCS Same-Spin Scale       =       0.3333333333333333 [-]
	 SCS Opposite-Spin Scale   =       1.2000000000000000 [-]
	 SCS Same-Spin Energy      =      -0.1336676045862794 [Eh]
	 SCS Opposite-Spin Energy  =      -1.6567799729788952 [Eh]
	 SCS Correlation Energy    =      -1.7904475775651747 [Eh]
	 SCS Total Energy          =    -387.8426117100379997 [Eh]
	-----------------------------------------------------------



Properties will be evaluated at  -0.000000,   0.000000,  -0.000000 [a0]

Properties computed using the MP2 density matrix

  Nuclear Dipole Moment: [e a0]
     X:    -4.4183      Y:     1.9998      Z:     0.0489

  Electronic Dipole Moment: [e a0]
     X:     4.8549      Y:    -1.5917      Z:     0.0894

  Dipole Moment: [e a0]
     X:     0.4365      Y:     0.4080      Z:     0.1384     Total:     0.6134

  Dipole Moment: [D]
     X:     1.1096      Y:     1.0371      Z:     0.3517     Total:     1.5590


*** tstop() called on node55.bme.utexas.edu at Tue Nov  3 09:41:26 2020
Module time:
	user time   =    1231.87 seconds =      20.53 minutes
	system time =      57.77 seconds =       0.96 minutes
	total time  =        224 seconds =       3.73 minutes
Total time:
	user time   =    1607.74 seconds =      26.80 minutes
	system time =     106.35 seconds =       1.77 minutes
	total time  =        320 seconds =       5.33 minutes

    Psi4 stopped on: Tuesday, 03 November 2020 09:41AM
    Psi4 wall time for execution: 0:05:19.59

*** Psi4 exiting successfully. Buy a developer a beer!
