103_Benzodioxole Gaussian SP Calculation on node144.bme.utexas.edu      
Freq      RMP2-FC                                                     6-31G(d)            
Number of atoms                            I               15
Info1-9                                    I   N=           9
          26          25        1002           0           0         100
           6           2           1
Charge                                     I                0
Multiplicity                               I                1
Number of electrons                        I               64
Number of alpha electrons                  I               32
Number of beta electrons                   I               32
Number of basis functions                  I              147
Number of independent functions            I              147
Number of point charges in /Mol/           I                0
Number of translation vectors              I                0
Atomic numbers                             I   N=          15
           8           8           6           6           6           6
           6           6           6           1           1           1
           1           1           1
Nuclear charges                            R   N=          15
  8.00000000E+00  8.00000000E+00  6.00000000E+00  6.00000000E+00  6.00000000E+00
  6.00000000E+00  6.00000000E+00  6.00000000E+00  6.00000000E+00  1.00000000E+00
  1.00000000E+00  1.00000000E+00  1.00000000E+00  1.00000000E+00  1.00000000E+00
Current cartesian coordinates              R   N=          45
  2.83319737E+00 -2.18875390E+00 -2.32946581E-01  2.83319535E+00  2.18876169E+00
 -2.32915565E-01  3.77826752E-01 -1.31625638E+00 -6.46187598E-02  3.77829579E-01
  1.31626215E+00 -6.45842173E-02  4.32270556E+00 -6.90583990E-06  3.45548379E-01
 -1.83497204E+00 -2.70526349E+00 -9.74249474E-03 -1.83497739E+00  2.70526205E+00
 -9.79036268E-03 -4.09928578E+00 -1.32076450E+00  6.58270828E-02 -4.09928605E+00
  1.32075938E+00  6.58461740E-02  4.78374025E+00 -1.51115320E-05  2.37077969E+00
  6.01532189E+00  6.23429176E-06 -8.26930630E-01 -1.80911914E+00 -4.75680845E+00
 -2.51668899E-02 -1.80912887E+00  4.75680759E+00 -2.51666407E-02 -5.88549804E+00
 -2.33160984E+00  1.31258418E-01 -5.88550164E+00  2.33160341E+00  1.31208413E-01
Force Field                                I                0
Int Atom Types                             I   N=          15
           0           0           0           0           0           0
           0           0           0           0           0           0
           0           0           0
MM charges                                 R   N=          15
  0.00000000E+00  0.00000000E+00  0.00000000E+00  0.00000000E+00  0.00000000E+00
  0.00000000E+00  0.00000000E+00  0.00000000E+00  0.00000000E+00  0.00000000E+00
  0.00000000E+00  0.00000000E+00  0.00000000E+00  0.00000000E+00  0.00000000E+00
Integer atomic weights                     I   N=          15
          16          16          12          12          12          12
          12          12          12           1           1           1
           1           1           1
Real atomic weights                        R   N=          15
  1.59949146E+01  1.59949146E+01  1.20000000E+01  1.20000000E+01  1.20000000E+01
  1.20000000E+01  1.20000000E+01  1.20000000E+01  1.20000000E+01  1.00782504E+00
  1.00782504E+00  1.00782504E+00  1.00782504E+00  1.00782504E+00  1.00782504E+00
Atom fragment info                         I   N=          15
           0           0           0           0           0           0
           0           0           0           0           0           0
           0           0           0
Atom residue num                           I   N=          15
           0           0           0           0           0           0
           0           0           0           0           0           0
           0           0           0
Nuclear spins                              I   N=          15
           0           0           0           0           0           0
           0           0           0           1           1           1
           1           1           1
Nuclear ZEff                               R   N=          15
 -5.60000000E+00 -5.60000000E+00 -3.60000000E+00 -3.60000000E+00 -3.60000000E+00
 -3.60000000E+00 -3.60000000E+00 -3.60000000E+00 -3.60000000E+00 -1.00000000E+00
 -1.00000000E+00 -1.00000000E+00 -1.00000000E+00 -1.00000000E+00 -1.00000000E+00
Nuclear QMom                               R   N=          15
  0.00000000E+00  0.00000000E+00  0.00000000E+00  0.00000000E+00  0.00000000E+00
  0.00000000E+00  0.00000000E+00  0.00000000E+00  0.00000000E+00  0.00000000E+00
  0.00000000E+00  0.00000000E+00  0.00000000E+00  0.00000000E+00  0.00000000E+00
Nuclear GFac                               R   N=          15
  0.00000000E+00  0.00000000E+00  0.00000000E+00  0.00000000E+00  0.00000000E+00
  0.00000000E+00  0.00000000E+00  0.00000000E+00  0.00000000E+00  2.79284600E+00
  2.79284600E+00  2.79284600E+00  2.79284600E+00  2.79284600E+00  2.79284600E+00
MicOpt                                     I   N=          15
          -1          -1          -1          -1          -1          -1
          -1          -1          -1          -1          -1          -1
          -1          -1          -1
Number of contracted shells                I               48
Number of primitive shells                 I              123
Pure/Cartesian d shells                    I                1
Pure/Cartesian f shells                    I                0
Highest angular momentum                   I                2
Largest degree of contraction              I                6
Shell types                                I   N=          48
           0          -1          -1           2           0          -1
          -1           2           0          -1          -1           2
           0          -1          -1           2           0          -1
          -1           2           0          -1          -1           2
           0          -1          -1           2           0          -1
          -1           2           0          -1          -1           2
           0           0           0           0           0           0
           0           0           0           0           0           0
Number of primitives per shell             I   N=          48
           6           3           1           1           6           3
           1           1           6           3           1           1
           6           3           1           1           6           3
           1           1           6           3           1           1
           6           3           1           1           6           3
           1           1           6           3           1           1
           3           1           3           1           3           1
           3           1           3           1           3           1
Shell to atom map                          I   N=          48
           1           1           1           1           2           2
           2           2           3           3           3           3
           4           4           4           4           5           5
           5           5           6           6           6           6
           7           7           7           7           8           8
           8           8           9           9           9           9
          10          10          11          11          12          12
          13          13          14          14          15          15
Primitive exponents                        R   N=         123
  5.48467166E+03  8.25234946E+02  1.88046958E+02  5.29645000E+01  1.68975704E+01
  5.79963534E+00  1.55396162E+01  3.59993359E+00  1.01376175E+00  2.70005823E-01
  8.00000000E-01  5.48467166E+03  8.25234946E+02  1.88046958E+02  5.29645000E+01
  1.68975704E+01  5.79963534E+00  1.55396162E+01  3.59993359E+00  1.01376175E+00
  2.70005823E-01  8.00000000E-01  3.04752488E+03  4.57369518E+02  1.03948685E+02
  2.92101553E+01  9.28666296E+00  3.16392696E+00  7.86827235E+00  1.88128854E+00
  5.44249258E-01  1.68714478E-01  8.00000000E-01  3.04752488E+03  4.57369518E+02
  1.03948685E+02  2.92101553E+01  9.28666296E+00  3.16392696E+00  7.86827235E+00
  1.88128854E+00  5.44249258E-01  1.68714478E-01  8.00000000E-01  3.04752488E+03
  4.57369518E+02  1.03948685E+02  2.92101553E+01  9.28666296E+00  3.16392696E+00
  7.86827235E+00  1.88128854E+00  5.44249258E-01  1.68714478E-01  8.00000000E-01
  3.04752488E+03  4.57369518E+02  1.03948685E+02  2.92101553E+01  9.28666296E+00
  3.16392696E+00  7.86827235E+00  1.88128854E+00  5.44249258E-01  1.68714478E-01
  8.00000000E-01  3.04752488E+03  4.57369518E+02  1.03948685E+02  2.92101553E+01
  9.28666296E+00  3.16392696E+00  7.86827235E+00  1.88128854E+00  5.44249258E-01
  1.68714478E-01  8.00000000E-01  3.04752488E+03  4.57369518E+02  1.03948685E+02
  2.92101553E+01  9.28666296E+00  3.16392696E+00  7.86827235E+00  1.88128854E+00
  5.44249258E-01  1.68714478E-01  8.00000000E-01  3.04752488E+03  4.57369518E+02
  1.03948685E+02  2.92101553E+01  9.28666296E+00  3.16392696E+00  7.86827235E+00
  1.88128854E+00  5.44249258E-01  1.68714478E-01  8.00000000E-01  1.87311370E+01
  2.82539436E+00  6.40121692E-01  1.61277759E-01  1.87311370E+01  2.82539436E+00
  6.40121692E-01  1.61277759E-01  1.87311370E+01  2.82539436E+00  6.40121692E-01
  1.61277759E-01  1.87311370E+01  2.82539436E+00  6.40121692E-01  1.61277759E-01
  1.87311370E+01  2.82539436E+00  6.40121692E-01  1.61277759E-01  1.87311370E+01
  2.82539436E+00  6.40121692E-01  1.61277759E-01
Contraction coefficients                   R   N=         123
  1.83107443E-03  1.39501722E-02  6.84450781E-02  2.32714336E-01  4.70192898E-01
  3.58520853E-01 -1.10777550E-01 -1.48026263E-01  1.13076702E+00  1.00000000E+00
  1.00000000E+00  1.83107443E-03  1.39501722E-02  6.84450781E-02  2.32714336E-01
  4.70192898E-01  3.58520853E-01 -1.10777550E-01 -1.48026263E-01  1.13076702E+00
  1.00000000E+00  1.00000000E+00  1.83473713E-03  1.40373228E-02  6.88426223E-02
  2.32184443E-01  4.67941348E-01  3.62311985E-01 -1.19332420E-01 -1.60854152E-01
  1.14345644E+00  1.00000000E+00  1.00000000E+00  1.83473713E-03  1.40373228E-02
  6.88426223E-02  2.32184443E-01  4.67941348E-01  3.62311985E-01 -1.19332420E-01
 -1.60854152E-01  1.14345644E+00  1.00000000E+00  1.00000000E+00  1.83473713E-03
  1.40373228E-02  6.88426223E-02  2.32184443E-01  4.67941348E-01  3.62311985E-01
 -1.19332420E-01 -1.60854152E-01  1.14345644E+00  1.00000000E+00  1.00000000E+00
  1.83473713E-03  1.40373228E-02  6.88426223E-02  2.32184443E-01  4.67941348E-01
  3.62311985E-01 -1.19332420E-01 -1.60854152E-01  1.14345644E+00  1.00000000E+00
  1.00000000E+00  1.83473713E-03  1.40373228E-02  6.88426223E-02  2.32184443E-01
  4.67941348E-01  3.62311985E-01 -1.19332420E-01 -1.60854152E-01  1.14345644E+00
  1.00000000E+00  1.00000000E+00  1.83473713E-03  1.40373228E-02  6.88426223E-02
  2.32184443E-01  4.67941348E-01  3.62311985E-01 -1.19332420E-01 -1.60854152E-01
  1.14345644E+00  1.00000000E+00  1.00000000E+00  1.83473713E-03  1.40373228E-02
  6.88426223E-02  2.32184443E-01  4.67941348E-01  3.62311985E-01 -1.19332420E-01
 -1.60854152E-01  1.14345644E+00  1.00000000E+00  1.00000000E+00  3.34946043E-02
  2.34726953E-01  8.13757326E-01  1.00000000E+00  3.34946043E-02  2.34726953E-01
  8.13757326E-01  1.00000000E+00  3.34946043E-02  2.34726953E-01  8.13757326E-01
  1.00000000E+00  3.34946043E-02  2.34726953E-01  8.13757326E-01  1.00000000E+00
  3.34946043E-02  2.34726953E-01  8.13757326E-01  1.00000000E+00  3.34946043E-02
  2.34726953E-01  8.13757326E-01  1.00000000E+00
P(S=P) Contraction coefficients            R   N=         123
  0.00000000E+00  0.00000000E+00  0.00000000E+00  0.00000000E+00  0.00000000E+00
  0.00000000E+00  7.08742682E-02  3.39752839E-01  7.27158577E-01  1.00000000E+00
  0.00000000E+00  0.00000000E+00  0.00000000E+00  0.00000000E+00  0.00000000E+00
  0.00000000E+00  0.00000000E+00  7.08742682E-02  3.39752839E-01  7.27158577E-01
  1.00000000E+00  0.00000000E+00  0.00000000E+00  0.00000000E+00  0.00000000E+00
  0.00000000E+00  0.00000000E+00  0.00000000E+00  6.89990666E-02  3.16423961E-01
  7.44308291E-01  1.00000000E+00  0.00000000E+00  0.00000000E+00  0.00000000E+00
  0.00000000E+00  0.00000000E+00  0.00000000E+00  0.00000000E+00  6.89990666E-02
  3.16423961E-01  7.44308291E-01  1.00000000E+00  0.00000000E+00  0.00000000E+00
  0.00000000E+00  0.00000000E+00  0.00000000E+00  0.00000000E+00  0.00000000E+00
  6.89990666E-02  3.16423961E-01  7.44308291E-01  1.00000000E+00  0.00000000E+00
  0.00000000E+00  0.00000000E+00  0.00000000E+00  0.00000000E+00  0.00000000E+00
  0.00000000E+00  6.89990666E-02  3.16423961E-01  7.44308291E-01  1.00000000E+00
  0.00000000E+00  0.00000000E+00  0.00000000E+00  0.00000000E+00  0.00000000E+00
  0.00000000E+00  0.00000000E+00  6.89990666E-02  3.16423961E-01  7.44308291E-01
  1.00000000E+00  0.00000000E+00  0.00000000E+00  0.00000000E+00  0.00000000E+00
  0.00000000E+00  0.00000000E+00  0.00000000E+00  6.89990666E-02  3.16423961E-01
  7.44308291E-01  1.00000000E+00  0.00000000E+00  0.00000000E+00  0.00000000E+00
  0.00000000E+00  0.00000000E+00  0.00000000E+00  0.00000000E+00  6.89990666E-02
  3.16423961E-01  7.44308291E-01  1.00000000E+00  0.00000000E+00  0.00000000E+00
  0.00000000E+00  0.00000000E+00  0.00000000E+00  0.00000000E+00  0.00000000E+00
  0.00000000E+00  0.00000000E+00  0.00000000E+00  0.00000000E+00  0.00000000E+00
  0.00000000E+00  0.00000000E+00  0.00000000E+00  0.00000000E+00  0.00000000E+00
  0.00000000E+00  0.00000000E+00  0.00000000E+00  0.00000000E+00  0.00000000E+00
  0.00000000E+00  0.00000000E+00  0.00000000E+00
Coordinates of each shell                  R   N=         144
  2.83319737E+00 -2.18875390E+00 -2.32946581E-01  2.83319737E+00 -2.18875390E+00
 -2.32946581E-01  2.83319737E+00 -2.18875390E+00 -2.32946581E-01  2.83319737E+00
 -2.18875390E+00 -2.32946581E-01  2.83319535E+00  2.18876169E+00 -2.32915565E-01
  2.83319535E+00  2.18876169E+00 -2.32915565E-01  2.83319535E+00  2.18876169E+00
 -2.32915565E-01  2.83319535E+00  2.18876169E+00 -2.32915565E-01  3.77826752E-01
 -1.31625638E+00 -6.46187598E-02  3.77826752E-01 -1.31625638E+00 -6.46187598E-02
  3.77826752E-01 -1.31625638E+00 -6.46187598E-02  3.77826752E-01 -1.31625638E+00
 -6.46187598E-02  3.77829579E-01  1.31626215E+00 -6.45842173E-02  3.77829579E-01
  1.31626215E+00 -6.45842173E-02  3.77829579E-01  1.31626215E+00 -6.45842173E-02
  3.77829579E-01  1.31626215E+00 -6.45842173E-02  4.32270556E+00 -6.90583990E-06
  3.45548379E-01  4.32270556E+00 -6.90583990E-06  3.45548379E-01  4.32270556E+00
 -6.90583990E-06  3.45548379E-01  4.32270556E+00 -6.90583990E-06  3.45548379E-01
 -1.83497204E+00 -2.70526349E+00 -9.74249474E-03 -1.83497204E+00 -2.70526349E+00
 -9.74249474E-03 -1.83497204E+00 -2.70526349E+00 -9.74249474E-03 -1.83497204E+00
 -2.70526349E+00 -9.74249474E-03 -1.83497739E+00  2.70526205E+00 -9.79036268E-03
 -1.83497739E+00  2.70526205E+00 -9.79036268E-03 -1.83497739E+00  2.70526205E+00
 -9.79036268E-03 -1.83497739E+00  2.70526205E+00 -9.79036268E-03 -4.09928578E+00
 -1.32076450E+00  6.58270828E-02 -4.09928578E+00 -1.32076450E+00  6.58270828E-02
 -4.09928578E+00 -1.32076450E+00  6.58270828E-02 -4.09928578E+00 -1.32076450E+00
  6.58270828E-02 -4.09928605E+00  1.32075938E+00  6.58461740E-02 -4.09928605E+00
  1.32075938E+00  6.58461740E-02 -4.09928605E+00  1.32075938E+00  6.58461740E-02
 -4.09928605E+00  1.32075938E+00  6.58461740E-02  4.78374025E+00 -1.51115320E-05
  2.37077969E+00  4.78374025E+00 -1.51115320E-05  2.37077969E+00  6.01532189E+00
  6.23429176E-06 -8.26930630E-01  6.01532189E+00  6.23429176E-06 -8.26930630E-01
 -1.80911914E+00 -4.75680845E+00 -2.51668899E-02 -1.80911914E+00 -4.75680845E+00
 -2.51668899E-02 -1.80912887E+00  4.75680759E+00 -2.51666407E-02 -1.80912887E+00
  4.75680759E+00 -2.51666407E-02 -5.88549804E+00 -2.33160984E+00  1.31258418E-01
 -5.88549804E+00 -2.33160984E+00  1.31258418E-01 -5.88550164E+00  2.33160341E+00
  1.31208413E-01 -5.88550164E+00  2.33160341E+00  1.31208413E-01
Constraint Structure                       R   N=          45
  2.83319737E+00 -2.18875390E+00 -2.32946581E-01  2.83319535E+00  2.18876169E+00
 -2.32915565E-01  3.77826752E-01 -1.31625638E+00 -6.46187598E-02  3.77829579E-01
  1.31626215E+00 -6.45842173E-02  4.32270556E+00 -6.90583990E-06  3.45548379E-01
 -1.83497204E+00 -2.70526349E+00 -9.74249474E-03 -1.83497739E+00  2.70526205E+00
 -9.79036268E-03 -4.09928578E+00 -1.32076450E+00  6.58270828E-02 -4.09928605E+00
  1.32075938E+00  6.58461740E-02  4.78374025E+00 -1.51115320E-05  2.37077969E+00
  6.01532189E+00  6.23429176E-06 -8.26930630E-01 -1.80911914E+00 -4.75680845E+00
 -2.51668899E-02 -1.80912887E+00  4.75680759E+00 -2.51666407E-02 -5.88549804E+00
 -2.33160984E+00  1.31258418E-01 -5.88550164E+00  2.33160341E+00  1.31208413E-01
Num ILSW                                   I              100
ILSW                                       I   N=         100
           0           1           0           0           2           0
           0           0           0           0           0          -1
           0           0           0           0           0           0
           0           0           0           0           1           0
           1           0           0           0           0           0
           0           0      100000           0          -1           0
           0           0           0           0           0           0
           0           0           0           1           1           0
           0           0           1           0           0           0
           0           0           4          40           0           0
           0           0           0           0           0           0
           0           0           0           0           0           0
           0           0           0           0           0           0
           0           0           0           0           0           0
           0           0           0           0           0           0
           0           0           0           0           0           0
           0           0           0           0
Num RLSW                                   I               40
RLSW                                       R   N=          40
  1.00000000E+00  1.00000000E+00  1.00000000E+00  1.00000000E+00  1.00000000E+00
  0.00000000E+00  0.00000000E+00  1.00000000E+00  0.00000000E+00  0.00000000E+00
  0.00000000E+00  0.00000000E+00  1.00000000E+00  0.00000000E+00  0.00000000E+00
  0.00000000E+00  0.00000000E+00  1.00000000E+00  0.00000000E+00  0.00000000E+00
  0.00000000E+00  0.00000000E+00  1.00000000E+00  0.00000000E+00  0.00000000E+00
  0.00000000E+00  0.00000000E+00  1.00000000E+00  0.00000000E+00  0.00000000E+00
  0.00000000E+00  0.00000000E+00  0.00000000E+00  0.00000000E+00  0.00000000E+00
  0.00000000E+00  0.00000000E+00  0.00000000E+00  1.00000000E+00  1.00000000E+00
MxBond                                     I                4
NBond                                      I   N=          15
           2           2           3           3           4           3
           3           3           3           1           1           1
           1           1           1
IBond                                      I   N=          60
           3           5           0           0           4           5
           0           0           1           4           6           0
           2           3           7           0           1           2
          10          11           3           8          12           0
           4           9          13           0           6           9
          14           0           7           8          15           0
           5           0           0           0           5           0
           0           0           6           0           0           0
           7           0           0           0           8           0
           0           0           9           0           0           0
RBond                                      R   N=          60
  1.50000000E+00  1.00000000E+00  0.00000000E+00  0.00000000E+00  1.50000000E+00
  1.00000000E+00  0.00000000E+00  0.00000000E+00  1.50000000E+00  1.50000000E+00
  1.50000000E+00  0.00000000E+00  1.50000000E+00  1.50000000E+00  1.50000000E+00
  0.00000000E+00  1.00000000E+00  1.00000000E+00  1.00000000E+00  1.00000000E+00
  1.50000000E+00  1.50000000E+00  1.00000000E+00  0.00000000E+00  1.50000000E+00
  1.50000000E+00  1.00000000E+00  0.00000000E+00  1.50000000E+00  1.50000000E+00
  1.00000000E+00  0.00000000E+00  1.50000000E+00  1.50000000E+00  1.00000000E+00
  0.00000000E+00  1.00000000E+00  0.00000000E+00  0.00000000E+00  0.00000000E+00
  1.00000000E+00  0.00000000E+00  0.00000000E+00  0.00000000E+00  1.00000000E+00
  0.00000000E+00  0.00000000E+00  0.00000000E+00  1.00000000E+00  0.00000000E+00
  0.00000000E+00  0.00000000E+00  1.00000000E+00  0.00000000E+00  0.00000000E+00
  0.00000000E+00  1.00000000E+00  0.00000000E+00  0.00000000E+00  0.00000000E+00
Virial Ratio                               R      2.002479539891739E+00
SCF Energy                                 R     -4.182682808941570E+02
MP2 Energy                                 R     -4.195037435103649E+02
Total Energy                               R     -4.195037435103649E+02
Post-SCF wavefunction norm                 R      1.681761265704903E+00
RMS Force                                  R      1.020550738107935E-06
RMS Density                                R      1.770404310166309E-09
External E-field                           R   N=          35
  0.00000000E+00  0.00000000E+00  0.00000000E+00  0.00000000E+00  0.00000000E+00
  0.00000000E+00  0.00000000E+00  0.00000000E+00  0.00000000E+00  0.00000000E+00
  0.00000000E+00  0.00000000E+00  0.00000000E+00  0.00000000E+00  0.00000000E+00
  0.00000000E+00  0.00000000E+00  0.00000000E+00  0.00000000E+00  0.00000000E+00
  0.00000000E+00  0.00000000E+00  0.00000000E+00  0.00000000E+00  0.00000000E+00
  0.00000000E+00  0.00000000E+00  0.00000000E+00  0.00000000E+00  0.00000000E+00
  0.00000000E+00  0.00000000E+00  0.00000000E+00  0.00000000E+00  0.00000000E+00
IOpCl                                      I                0
IROHF                                      I                0
Alpha Orbital Energies                     R   N=         147
 -2.06044795E+01 -2.06044591E+01 -1.13558384E+01 -1.12997476E+01 -1.12985397E+01
 -1.12459412E+01 -1.12459400E+01 -1.12420001E+01 -1.12408522E+01 -1.47084119E+00
 -1.36716827E+00 -1.15261759E+00 -1.02203455E+00 -1.01940653E+00 -9.09529092E-01
 -8.49257162E-01 -8.27498007E-01 -7.19444422E-01 -7.06626805E-01 -6.99488647E-01
 -6.68085882E-01 -6.17448537E-01 -5.91270705E-01 -5.83165435E-01 -5.73408379E-01
 -5.40084810E-01 -5.38852910E-01 -5.23361178E-01 -5.03442594E-01 -4.56052942E-01
 -3.38831257E-01 -3.04221442E-01  1.38548740E-01  1.54204330E-01  2.37295664E-01
  2.63080389E-01  2.83068925E-01  2.98872739E-01  3.11817388E-01  3.17403315E-01
  3.28094595E-01  3.45143665E-01  3.75386665E-01  4.01428315E-01  4.40837881E-01
  4.95527008E-01  4.96753071E-01  5.16388000E-01  5.81013393E-01  7.00955326E-01
  7.02815879E-01  7.14248475E-01  7.34058846E-01  7.41139646E-01  7.66814828E-01
  7.98022592E-01  8.16658491E-01  8.20389504E-01  8.21840922E-01  8.28601007E-01
  8.37310379E-01  8.69921473E-01  9.02089127E-01  9.03388244E-01  9.15579812E-01
  9.78490229E-01  1.00874630E+00  1.04032408E+00  1.05783756E+00  1.09468542E+00
  1.09981812E+00  1.11650242E+00  1.14165443E+00  1.14908991E+00  1.16622121E+00
  1.16961832E+00  1.19977281E+00  1.24177615E+00  1.25995678E+00  1.29131607E+00
  1.29977412E+00  1.33429713E+00  1.37925174E+00  1.39463121E+00  1.42470492E+00
  1.44310565E+00  1.50686386E+00  1.56689592E+00  1.60829181E+00  1.61865328E+00
  1.64454690E+00  1.64708871E+00  1.71513611E+00  1.72703167E+00  1.75501533E+00
  1.76845527E+00  1.85376352E+00  1.87709431E+00  2.01911022E+00  2.03204553E+00
  2.07754317E+00  2.12288642E+00  2.15940796E+00  2.19373844E+00  2.19957295E+00
  2.22478313E+00  2.24652637E+00  2.27929656E+00  2.29148291E+00  2.31188987E+00
  2.31687576E+00  2.39468096E+00  2.43263549E+00  2.43368830E+00  2.47563184E+00
  2.52096015E+00  2.54791493E+00  2.58381274E+00  2.61388132E+00  2.63962054E+00
  2.69521414E+00  2.75910406E+00  2.79495140E+00  2.82526765E+00  2.88784958E+00
  2.93367979E+00  2.96978886E+00  3.00568544E+00  3.01149744E+00  3.05436436E+00
  3.06173090E+00  3.13935173E+00  3.19769052E+00  3.19823165E+00  3.37323230E+00
  3.40930359E+00  3.57551258E+00  3.82593042E+00  4.37259262E+00  4.50624230E+00
  4.53093316E+00  4.65785995E+00  4.71322591E+00  4.73513498E+00  4.86371652E+00
  4.92649139E+00  5.33049130E+00
Alpha MO coefficients                      R   N=       21609
  7.09920910E-01  1.51953053E-02 -3.54889533E-04  8.96613050E-04  2.14620568E-04
  2.40335067E-03  2.68925404E-04 -6.17560822E-04 -1.07696059E-04 -2.91195990E-03
 -2.84891196E-03 -2.68029442E-03 -1.18577745E-05 -1.20513566E-05 -5.66953746E-05
 -6.96716261E-01 -1.49135384E-02  3.48725811E-04  8.81085078E-04 -2.10499150E-04
 -2.35427337E-03 -2.68530535E-04 -6.07145031E-04  1.05141952E-04  2.85735132E-03
  2.79418021E-03  2.62923621E-03 -1.08373164E-05  1.16919261E-05 -5.55630886E-05
 -1.01977346E-05  1.91948098E-04  2.61056241E-04 -6.59134890E-05 -2.35214380E-05
  1.04794639E-03  4.16228970E-04  1.04130926E-03  4.67418435E-05 -1.47841926E-05
  7.61724513E-05 -4.35287945E-05  2.21961142E-05 -1.48740749E-07  1.44995851E-06
  1.01371644E-05 -1.86661941E-04 -2.57107805E-04 -6.32348653E-05  2.32868119E-05
 -1.05769905E-03 -4.13727876E-04  1.03435050E-03 -4.63697048E-05  1.35824279E-05
 -7.68703355E-05  4.25816728E-05  2.24456919E-05  2.42173760E-07  1.53672293E-06
 -1.41767981E-07  3.28714340E-06 -3.10166631E-06 -4.70788556E-04 -1.27925085E-06
  1.20603964E-06 -5.74680322E-07  3.21068835E-04  6.48294761E-07  2.81234486E-07
  8.92920002E-07 -4.30133576E-07  9.45930911E-05  4.66419432E-07  2.61851736E-05
  3.04885397E-06  2.61362859E-05  3.88350796E-06  1.24275550E-05 -3.52726020E-07
  3.09291819E-04  2.06412415E-04 -9.73303830E-05 -2.18745902E-05 -3.87315568E-05
  1.78026652E-05  2.18581796E-06 -9.70458453E-07  1.57005176E-07 -1.62328851E-06
 -3.11693145E-06 -2.63227114E-05 -3.41116881E-06  1.22310382E-05  3.04871176E-07
 -3.00335623E-04 -2.04532267E-04 -1.00003805E-04  2.18048496E-05  3.85104564E-05
 -1.76140705E-05 -2.39465691E-06 -1.15097961E-06 -1.52875489E-07 -1.60451699E-06
 -7.21344094E-07 -5.49569168E-06  1.48130152E-06 -2.37503724E-06 -2.44656835E-07
  1.24177128E-04  7.31468981E-05 -4.82867382E-06  2.32356229E-06 -1.06046361E-06
  1.17374092E-05 -2.29155103E-06 -7.65959762E-06  3.41882139E-07 -1.61490830E-07
  7.73322789E-07  5.84576050E-06 -1.52007437E-06 -2.49533238E-06  2.72808965E-07
 -1.26167344E-04 -7.47023406E-05 -4.53816199E-06 -2.32130572E-06  9.23892909E-07
 -1.16201370E-05  2.41351649E-06 -7.64033201E-06 -3.42024003E-07 -1.60168967E-07
 -3.60747264E-07 -1.05093458E-06 -1.58021647E-08 -6.76969526E-07 -1.32152240E-05
 -6.61891461E-05  1.32987723E-05  6.61440846E-05  2.05964877E-06  1.80237091E-05
 -2.08852494E-06 -1.84230841E-05  6.96703365E-01  1.48658901E-02 -3.25359579E-04
  8.18655362E-04  2.17002339E-04  2.59165040E-03  1.86049871E-05 -5.48924893E-04
 -1.34492742E-04 -2.88135708E-03 -2.88869725E-03 -2.69439700E-03 -5.43649687E-05
 -1.89662508E-05 -5.96776893E-05  7.09908257E-01  1.51485387E-02 -3.31972864E-04
 -8.35342308E-04  2.20984996E-04  2.63628465E-03  2.36574421E-05  5.60418440E-04
 -1.36486300E-04 -2.93551134E-03 -2.94167034E-03 -2.74423472E-03  5.45816366E-05
 -1.91867075E-05  6.07288801E-05 -3.12316392E-06  2.79968700E-04  2.07793848E-04
 -1.42039497E-04 -1.23588672E-05 -5.29413689E-04  1.29466110E-04  3.60955922E-04
  1.80851405E-05 -6.41500718E-05 -3.79139928E-05 -5.00723346E-05 -1.34723918E-05
  4.93064386E-06 -4.85890865E-06 -3.31266257E-06  2.83533168E-04  2.12657600E-04
  1.43250848E-04 -1.27972639E-05 -5.09744642E-04  1.37293012E-04 -3.80375768E-04
  1.89623416E-05 -6.44204897E-05 -3.64784163E-05 -5.08786485E-05  1.30513053E-05
  4.92684551E-06  4.83170106E-06 -1.51117211E-05  3.49288903E-04 -3.30287576E-04
  4.41965548E-06 -1.35803508E-04  1.27784904E-04 -6.10076623E-05 -3.01112918E-06
  6.82879974E-05  3.03277709E-05  9.58555103E-05 -4.56912746E-05 -8.92549895E-07
  4.97285276E-05 -2.45917455E-07 -3.65567389E-06 -1.02007734E-05  2.51428163E-05
  1.03545575E-05 -2.58505778E-06  4.74264010E-04  9.84299702E-05  1.43583517E-04
 -2.42713035E-06 -1.13828275E-05  9.92852151E-06 -1.11645254E-05  9.67893188E-06
  3.05587620E-07 -9.46012492E-07 -3.59854685E-06 -9.71262970E-06  2.52121753E-05
 -1.05853280E-05 -2.59095546E-06  4.80051840E-04  1.02261662E-04 -1.41789113E-04
 -2.82141122E-06 -1.21081803E-05  1.02621955E-05 -1.11229772E-05 -9.65895025E-06
  3.09193127E-07  9.73727282E-07  2.77817147E-06  1.87079828E-05 -2.07577924E-06
  6.44347361E-06  1.50503772E-06 -1.07119151E-04 -8.36048753E-05 -1.55434013E-05
 -2.63121254E-07 -7.26984418E-06  6.14911427E-06  6.52617601E-06 -9.54708880E-07
 -1.00249374E-07 -1.05440104E-08  2.76497970E-06  1.86062039E-05 -2.04745933E-06
 -6.39786047E-06  1.50059010E-06 -1.04846393E-04 -8.22679311E-05  1.56372488E-05
 -2.22292840E-07 -7.28918659E-06  6.36865890E-06  6.48357146E-06  1.09788572E-06
 -9.43001930E-08  1.27792648E-08 -3.82896092E-05 -1.11569800E-04 -1.63310302E-06
 -7.22732238E-05  4.57979142E-06 -1.58819824E-06  4.33361787E-06 -2.81204959E-06
 -1.56935512E-06 -2.14815144E-05 -1.53162690E-06 -2.11516212E-05 -7.36832282E-05
  4.93673244E-04  3.76051381E-05  2.17548355E-04  3.39669321E-05 -4.14115517E-04
  7.74608106E-04 -8.21518718E-04 -1.66606111E-05 -1.24063666E-04 -4.13003989E-04