104_Dioxolane Gaussian SP Calculation on node142.bme.utexas.edu         
Freq      RMP2-FC                                                     6-31G(d)            
Number of atoms                            I               11
Info1-9                                    I   N=           9
          22          21        1002           0           0         100
           6           2           1
Charge                                     I                0
Multiplicity                               I                1
Number of electrons                        I               40
Number of alpha electrons                  I               20
Number of beta electrons                   I               20
Number of basis functions                  I               87
Number of independent functions            I               87
Number of point charges in /Mol/           I                0
Number of translation vectors              I                0
Atomic numbers                             I   N=          11
           8           8           6           6           6           1
           1           1           1           1           1
Nuclear charges                            R   N=          11
  8.00000000E+00  8.00000000E+00  6.00000000E+00  6.00000000E+00  6.00000000E+00
  1.00000000E+00  1.00000000E+00  1.00000000E+00  1.00000000E+00  1.00000000E+00
  1.00000000E+00
Current cartesian coordinates              R   N=          33
 -7.00744242E-01  2.14948701E+00 -3.39493451E-01 -6.99718801E-01 -2.15011555E+00
  3.38300335E-01  1.78307663E+00  1.37777873E+00  3.94200358E-01  1.78409204E+00
 -1.37679470E+00 -3.93789401E-01 -2.27755390E+00 -4.47936146E-04  4.60024781E-04
  2.05432596E+00  1.56859457E+00  2.44288680E+00  3.13636845E+00  2.56901408E+00
 -6.08284224E-01  2.05674939E+00 -1.56741245E+00 -2.44229272E+00  3.13753646E+00
 -2.56719296E+00  6.09505740E-01 -3.45840707E+00  1.80335034E-01  1.69437918E+00
 -3.46055752E+00 -1.81526538E-01 -1.69187574E+00
Force Field                                I                0
Int Atom Types                             I   N=          11
           0           0           0           0           0           0
           0           0           0           0           0
MM charges                                 R   N=          11
  0.00000000E+00  0.00000000E+00  0.00000000E+00  0.00000000E+00  0.00000000E+00
  0.00000000E+00  0.00000000E+00  0.00000000E+00  0.00000000E+00  0.00000000E+00
  0.00000000E+00
Integer atomic weights                     I   N=          11
          16          16          12          12          12           1
           1           1           1           1           1
Real atomic weights                        R   N=          11
  1.59949146E+01  1.59949146E+01  1.20000000E+01  1.20000000E+01  1.20000000E+01
  1.00782504E+00  1.00782504E+00  1.00782504E+00  1.00782504E+00  1.00782504E+00
  1.00782504E+00
Atom fragment info                         I   N=          11
           0           0           0           0           0           0
           0           0           0           0           0
Atom residue num                           I   N=          11
           0           0           0           0           0           0
           0           0           0           0           0
Nuclear spins                              I   N=          11
           0           0           0           0           0           1
           1           1           1           1           1
Nuclear ZEff                               R   N=          11
 -5.60000000E+00 -5.60000000E+00 -3.60000000E+00 -3.60000000E+00 -3.60000000E+00
 -1.00000000E+00 -1.00000000E+00 -1.00000000E+00 -1.00000000E+00 -1.00000000E+00
 -1.00000000E+00
Nuclear QMom                               R   N=          11
  0.00000000E+00  0.00000000E+00  0.00000000E+00  0.00000000E+00  0.00000000E+00
  0.00000000E+00  0.00000000E+00  0.00000000E+00  0.00000000E+00  0.00000000E+00
  0.00000000E+00
Nuclear GFac                               R   N=          11
  0.00000000E+00  0.00000000E+00  0.00000000E+00  0.00000000E+00  0.00000000E+00
  2.79284600E+00  2.79284600E+00  2.79284600E+00  2.79284600E+00  2.79284600E+00
  2.79284600E+00
MicOpt                                     I   N=          11
          -1          -1          -1          -1          -1          -1
          -1          -1          -1          -1          -1
Number of contracted shells                I               32
Number of primitive shells                 I               79
Pure/Cartesian d shells                    I                1
Pure/Cartesian f shells                    I                0
Highest angular momentum                   I                2
Largest degree of contraction              I                6
Shell types                                I   N=          32
           0          -1          -1           2           0          -1
          -1           2           0          -1          -1           2
           0          -1          -1           2           0          -1
          -1           2           0           0           0           0
           0           0           0           0           0           0
           0           0
Number of primitives per shell             I   N=          32
           6           3           1           1           6           3
           1           1           6           3           1           1
           6           3           1           1           6           3
           1           1           3           1           3           1
           3           1           3           1           3           1
           3           1
Shell to atom map                          I   N=          32
           1           1           1           1           2           2
           2           2           3           3           3           3
           4           4           4           4           5           5
           5           5           6           6           7           7
           8           8           9           9          10          10
          11          11
Primitive exponents                        R   N=          79
  5.48467166E+03  8.25234946E+02  1.88046958E+02  5.29645000E+01  1.68975704E+01
  5.79963534E+00  1.55396162E+01  3.59993359E+00  1.01376175E+00  2.70005823E-01
  8.00000000E-01  5.48467166E+03  8.25234946E+02  1.88046958E+02  5.29645000E+01
  1.68975704E+01  5.79963534E+00  1.55396162E+01  3.59993359E+00  1.01376175E+00
  2.70005823E-01  8.00000000E-01  3.04752488E+03  4.57369518E+02  1.03948685E+02
  2.92101553E+01  9.28666296E+00  3.16392696E+00  7.86827235E+00  1.88128854E+00
  5.44249258E-01  1.68714478E-01  8.00000000E-01  3.04752488E+03  4.57369518E+02
  1.03948685E+02  2.92101553E+01  9.28666296E+00  3.16392696E+00  7.86827235E+00
  1.88128854E+00  5.44249258E-01  1.68714478E-01  8.00000000E-01  3.04752488E+03
  4.57369518E+02  1.03948685E+02  2.92101553E+01  9.28666296E+00  3.16392696E+00
  7.86827235E+00  1.88128854E+00  5.44249258E-01  1.68714478E-01  8.00000000E-01
  1.87311370E+01  2.82539436E+00  6.40121692E-01  1.61277759E-01  1.87311370E+01
  2.82539436E+00  6.40121692E-01  1.61277759E-01  1.87311370E+01  2.82539436E+00
  6.40121692E-01  1.61277759E-01  1.87311370E+01  2.82539436E+00  6.40121692E-01
  1.61277759E-01  1.87311370E+01  2.82539436E+00  6.40121692E-01  1.61277759E-01
  1.87311370E+01  2.82539436E+00  6.40121692E-01  1.61277759E-01
Contraction coefficients                   R   N=          79
  1.83107443E-03  1.39501722E-02  6.84450781E-02  2.32714336E-01  4.70192898E-01
  3.58520853E-01 -1.10777550E-01 -1.48026263E-01  1.13076702E+00  1.00000000E+00
  1.00000000E+00  1.83107443E-03  1.39501722E-02  6.84450781E-02  2.32714336E-01
  4.70192898E-01  3.58520853E-01 -1.10777550E-01 -1.48026263E-01  1.13076702E+00
  1.00000000E+00  1.00000000E+00  1.83473713E-03  1.40373228E-02  6.88426223E-02
  2.32184443E-01  4.67941348E-01  3.62311985E-01 -1.19332420E-01 -1.60854152E-01
  1.14345644E+00  1.00000000E+00  1.00000000E+00  1.83473713E-03  1.40373228E-02
  6.88426223E-02  2.32184443E-01  4.67941348E-01  3.62311985E-01 -1.19332420E-01
 -1.60854152E-01  1.14345644E+00  1.00000000E+00  1.00000000E+00  1.83473713E-03
  1.40373228E-02  6.88426223E-02  2.32184443E-01  4.67941348E-01  3.62311985E-01
 -1.19332420E-01 -1.60854152E-01  1.14345644E+00  1.00000000E+00  1.00000000E+00
  3.34946043E-02  2.34726953E-01  8.13757326E-01  1.00000000E+00  3.34946043E-02
  2.34726953E-01  8.13757326E-01  1.00000000E+00  3.34946043E-02  2.34726953E-01
  8.13757326E-01  1.00000000E+00  3.34946043E-02  2.34726953E-01  8.13757326E-01
  1.00000000E+00  3.34946043E-02  2.34726953E-01  8.13757326E-01  1.00000000E+00
  3.34946043E-02  2.34726953E-01  8.13757326E-01  1.00000000E+00
P(S=P) Contraction coefficients            R   N=          79
  0.00000000E+00  0.00000000E+00  0.00000000E+00  0.00000000E+00  0.00000000E+00
  0.00000000E+00  7.08742682E-02  3.39752839E-01  7.27158577E-01  1.00000000E+00
  0.00000000E+00  0.00000000E+00  0.00000000E+00  0.00000000E+00  0.00000000E+00
  0.00000000E+00  0.00000000E+00  7.08742682E-02  3.39752839E-01  7.27158577E-01
  1.00000000E+00  0.00000000E+00  0.00000000E+00  0.00000000E+00  0.00000000E+00
  0.00000000E+00  0.00000000E+00  0.00000000E+00  6.89990666E-02  3.16423961E-01
  7.44308291E-01  1.00000000E+00  0.00000000E+00  0.00000000E+00  0.00000000E+00
  0.00000000E+00  0.00000000E+00  0.00000000E+00  0.00000000E+00  6.89990666E-02
  3.16423961E-01  7.44308291E-01  1.00000000E+00  0.00000000E+00  0.00000000E+00
  0.00000000E+00  0.00000000E+00  0.00000000E+00  0.00000000E+00  0.00000000E+00
  6.89990666E-02  3.16423961E-01  7.44308291E-01  1.00000000E+00  0.00000000E+00
  0.00000000E+00  0.00000000E+00  0.00000000E+00  0.00000000E+00  0.00000000E+00
  0.00000000E+00  0.00000000E+00  0.00000000E+00  0.00000000E+00  0.00000000E+00
  0.00000000E+00  0.00000000E+00  0.00000000E+00  0.00000000E+00  0.00000000E+00
  0.00000000E+00  0.00000000E+00  0.00000000E+00  0.00000000E+00  0.00000000E+00
  0.00000000E+00  0.00000000E+00  0.00000000E+00  0.00000000E+00
Coordinates of each shell                  R   N=          96
 -7.00744242E-01  2.14948701E+00 -3.39493451E-01 -7.00744242E-01  2.14948701E+00
 -3.39493451E-01 -7.00744242E-01  2.14948701E+00 -3.39493451E-01 -7.00744242E-01
  2.14948701E+00 -3.39493451E-01 -6.99718801E-01 -2.15011555E+00  3.38300335E-01
 -6.99718801E-01 -2.15011555E+00  3.38300335E-01 -6.99718801E-01 -2.15011555E+00
  3.38300335E-01 -6.99718801E-01 -2.15011555E+00  3.38300335E-01  1.78307663E+00
  1.37777873E+00  3.94200358E-01  1.78307663E+00  1.37777873E+00  3.94200358E-01
  1.78307663E+00  1.37777873E+00  3.94200358E-01  1.78307663E+00  1.37777873E+00
  3.94200358E-01  1.78409204E+00 -1.37679470E+00 -3.93789401E-01  1.78409204E+00
 -1.37679470E+00 -3.93789401E-01  1.78409204E+00 -1.37679470E+00 -3.93789401E-01
  1.78409204E+00 -1.37679470E+00 -3.93789401E-01 -2.27755390E+00 -4.47936146E-04
  4.60024781E-04 -2.27755390E+00 -4.47936146E-04  4.60024781E-04 -2.27755390E+00
 -4.47936146E-04  4.60024781E-04 -2.27755390E+00 -4.47936146E-04  4.60024781E-04
  2.05432596E+00  1.56859457E+00  2.44288680E+00  2.05432596E+00  1.56859457E+00
  2.44288680E+00  3.13636845E+00  2.56901408E+00 -6.08284224E-01  3.13636845E+00
  2.56901408E+00 -6.08284224E-01  2.05674939E+00 -1.56741245E+00 -2.44229272E+00
  2.05674939E+00 -1.56741245E+00 -2.44229272E+00  3.13753646E+00 -2.56719296E+00
  6.09505740E-01  3.13753646E+00 -2.56719296E+00  6.09505740E-01 -3.45840707E+00
  1.80335034E-01  1.69437918E+00 -3.45840707E+00  1.80335034E-01  1.69437918E+00
 -3.46055752E+00 -1.81526538E-01 -1.69187574E+00 -3.46055752E+00 -1.81526538E-01
 -1.69187574E+00
Constraint Structure                       R   N=          33
 -7.00744242E-01  2.14948701E+00 -3.39493451E-01 -6.99718801E-01 -2.15011555E+00
  3.38300335E-01  1.78307663E+00  1.37777873E+00  3.94200358E-01  1.78409204E+00
 -1.37679470E+00 -3.93789401E-01 -2.27755390E+00 -4.47936146E-04  4.60024781E-04
  2.05432596E+00  1.56859457E+00  2.44288680E+00  3.13636845E+00  2.56901408E+00
 -6.08284224E-01  2.05674939E+00 -1.56741245E+00 -2.44229272E+00  3.13753646E+00
 -2.56719296E+00  6.09505740E-01 -3.45840707E+00  1.80335034E-01  1.69437918E+00
 -3.46055752E+00 -1.81526538E-01 -1.69187574E+00
Num ILSW                                   I              100
ILSW                                       I   N=         100
           0           1           0           1           2           0
           0           0           0           0           0          -1
           0           0           0           0           0           0
           0           0           0           0           1           0
           1           0           0           0           0           0
           0           0      100000           0          -1           0
           0           0           0           0           0           0
           0           0           0           1           1           0
           0           0           1           0           0           0
           0           0           4          40           0           0
           0           0           0           0           0           0
           0           0           0           0           0           0
           0           0           0           0           0           0
           0           0           0           0           0           0
           0           0           0           0           0           0
           0           0           0           0           0           0
           0           0           0           0
Num RLSW                                   I               40
RLSW                                       R   N=          40
  1.00000000E+00  1.00000000E+00  1.00000000E+00  1.00000000E+00  1.00000000E+00
  0.00000000E+00  0.00000000E+00  1.00000000E+00  0.00000000E+00  0.00000000E+00
  0.00000000E+00  0.00000000E+00  1.00000000E+00  0.00000000E+00  0.00000000E+00
  0.00000000E+00  0.00000000E+00  1.00000000E+00  0.00000000E+00  0.00000000E+00
  0.00000000E+00  0.00000000E+00  1.00000000E+00  0.00000000E+00  0.00000000E+00
  0.00000000E+00  0.00000000E+00  1.00000000E+00  0.00000000E+00  0.00000000E+00
  0.00000000E+00  0.00000000E+00  0.00000000E+00  0.00000000E+00  0.00000000E+00
  0.00000000E+00  0.00000000E+00  0.00000000E+00  1.00000000E+00  1.00000000E+00
MxBond                                     I                4
NBond                                      I   N=          11
           2           2           4           4           4           1
           1           1           1           1           1
IBond                                      I   N=          44
           3           5           0           0           4           5
           0           0           1           4           6           7
           2           3           8           9           1           2
          10          11           3           0           0           0
           3           0           0           0           4           0
           0           0           4           0           0           0
           5           0           0           0           5           0
           0           0
RBond                                      R   N=          44
  1.00000000E+00  1.00000000E+00  0.00000000E+00  0.00000000E+00  1.00000000E+00
  1.00000000E+00  0.00000000E+00  0.00000000E+00  1.00000000E+00  1.00000000E+00
  1.00000000E+00  1.00000000E+00  1.00000000E+00  1.00000000E+00  1.00000000E+00
  1.00000000E+00  1.00000000E+00  1.00000000E+00  1.00000000E+00  1.00000000E+00
  1.00000000E+00  0.00000000E+00  0.00000000E+00  0.00000000E+00  1.00000000E+00
  0.00000000E+00  0.00000000E+00  0.00000000E+00  1.00000000E+00  0.00000000E+00
  0.00000000E+00  0.00000000E+00  1.00000000E+00  0.00000000E+00  0.00000000E+00
  0.00000000E+00  1.00000000E+00  0.00000000E+00  0.00000000E+00  0.00000000E+00
  1.00000000E+00  0.00000000E+00  0.00000000E+00  0.00000000E+00
Virial Ratio                               R      2.002495021959472E+00
SCF Energy                                 R     -2.667899583927866E+02
MP2 Energy                                 R     -2.675278776027924E+02
Total Energy                               R     -2.675278776027924E+02
Post-SCF wavefunction norm                 R      1.562027743219488E+00
RMS Force                                  R      3.851255869439886E-07
RMS Density                                R      7.799078789633756E-10
External E-field                           R   N=          35
  0.00000000E+00  0.00000000E+00  0.00000000E+00  0.00000000E+00  0.00000000E+00
  0.00000000E+00  0.00000000E+00  0.00000000E+00  0.00000000E+00  0.00000000E+00
  0.00000000E+00  0.00000000E+00  0.00000000E+00  0.00000000E+00  0.00000000E+00
  0.00000000E+00  0.00000000E+00  0.00000000E+00  0.00000000E+00  0.00000000E+00
  0.00000000E+00  0.00000000E+00  0.00000000E+00  0.00000000E+00  0.00000000E+00
  0.00000000E+00  0.00000000E+00  0.00000000E+00  0.00000000E+00  0.00000000E+00
  0.00000000E+00  0.00000000E+00  0.00000000E+00  0.00000000E+00  0.00000000E+00
IOpCl                                      I                0
IROHF                                      I                0
Alpha Orbital Energies                     R   N=          87
 -2.05721510E+01 -2.05721106E+01 -1.13295877E+01 -1.12865155E+01 -1.12858671E+01
 -1.43380192E+00 -1.32801070E+00 -1.03320006E+00 -8.63282158E-01 -8.54054372E-01
 -7.14293817E-01 -7.03277355E-01 -6.40449948E-01 -5.93372903E-01 -5.74403992E-01
 -5.72638728E-01 -5.11877391E-01 -5.03799018E-01 -4.44524163E-01 -4.18225879E-01
  2.39985257E-01  2.77566685E-01  2.88278500E-01  2.98288750E-01  3.05602234E-01
  3.12856383E-01  3.28338451E-01  3.47112935E-01  4.11384304E-01  4.17508656E-01
  4.64035660E-01  7.35782329E-01  7.45893857E-01  7.49849173E-01  7.74960613E-01
  8.04920908E-01  8.12752246E-01  8.79078897E-01  9.78893552E-01  1.00660609E+00
  1.01506872E+00  1.08921791E+00  1.10731702E+00  1.11341985E+00  1.14515029E+00
  1.16627509E+00  1.18446320E+00  1.23412105E+00  1.25346896E+00  1.26134631E+00
  1.41041211E+00  1.45747212E+00  1.51193353E+00  1.52447079E+00  1.56092799E+00
  1.65572549E+00  1.76410159E+00  1.80057840E+00  1.84187871E+00  1.92113758E+00
  2.01816855E+00  2.17615015E+00  2.17964034E+00  2.27914518E+00  2.28223411E+00
  2.32311383E+00  2.38500635E+00  2.39608058E+00  2.43396989E+00  2.45862703E+00
  2.49810447E+00  2.64790179E+00  2.71811737E+00  2.76088658E+00  2.79133219E+00
  2.79685721E+00  2.91925918E+00  2.95724396E+00  3.04923874E+00  3.14553061E+00
  3.23894362E+00  3.35255951E+00  4.25937327E+00  4.46379731E+00  4.59772340E+00
  4.75163200E+00  4.87536642E+00
Alpha MO coefficients                      R   N=        7569
  9.47908714E-01  2.02179360E-02  3.28485652E-04 -1.09946769E-03  4.40413896E-04
  3.58485409E-03 -2.40549228E-04  6.07887831E-04 -2.58671330E-04 -3.96069850E-03
 -3.83955973E-03 -3.62895465E-03 -4.88535078E-05 -7.10408895E-05  8.38655990E-05
 -3.01403874E-01 -6.41812006E-03 -1.22882234E-04 -3.80421130E-04  1.45754711E-04
 -1.24087524E-03  2.19514785E-04  1.43176647E-04 -7.85681474E-05  1.27021263E-03
  1.18449805E-03  1.13791781E-03  4.28248371E-06 -2.44294265E-05 -2.85096642E-05
 -1.52994379E-05  2.11390243E-04 -3.52409527E-04  1.04104878E-04 -1.04934953E-04
  2.25065464E-04  5.75198854E-05 -2.84432680E-04  9.25020282E-05  6.98294347E-05
 -8.04723046E-06 -3.27643563E-05 -2.62497737E-05  3.86724393E-05  8.73092304E-06
  2.68439210E-06 -5.19993006E-05  1.46436285E-04 -6.32430463E-07 -2.48452986E-05
 -2.63963777E-04 -5.01512460E-05 -9.59488504E-05 -1.65086630E-04 -4.75570362E-05
 -3.43661660E-05 -1.32455675E-05 -1.14404627E-05  1.47180472E-05 -7.12081099E-06
 -7.49808390E-06  1.70543478E-04  1.63378860E-04  3.73231515E-04 -5.74696024E-05
  7.72052308E-05  2.33590831E-05 -3.40020806E-04  1.32224671E-04  1.73513138E-05
  2.78040665E-05 -3.26866023E-05  5.35681782E-05 -6.66722717E-06 -7.03825043E-06
 -4.14483529E-05 -7.82347735E-05  1.73679002E-06 -1.61839169E-05  1.32657836E-05
 -7.45335647E-05  2.92181526E-05  7.67000101E-05 -2.20253543E-05 -6.30526532E-05
  1.47216828E-06 -2.64618887E-05  3.01406581E-01  6.44164841E-03  8.17249877E-05
 -3.12049620E-04  1.32504869E-04  1.01578084E-03  9.88424520E-05  2.54957239E-04
 -8.66661940E-05 -1.24610657E-03 -1.26543067E-03 -1.17333566E-03 -3.97337404E-05
 -2.02541367E-05  2.43510267E-05  9.47909570E-01  2.02254137E-02  3.15089816E-04
  1.07831037E-03 -4.34591063E-04  3.51325709E-03 -1.39115505E-04 -6.43844531E-04
  2.60374419E-04 -3.95318473E-03 -3.86546399E-03 -3.63998665E-03  6.27403633E-05
  6.96334661E-05  8.22685244E-05 -7.52908032E-06  8.59005079E-05 -6.99556779E-05
  7.45602783E-05 -4.36715239E-05 -1.64507257E-04 -2.09577413E-05 -8.35989814E-05
  2.67521656E-04 -8.82771296E-06 -4.77814152E-05 -3.94212358E-05 -4.58049696E-06
  9.30319204E-06 -2.53765352E-06 -1.68522647E-05  2.22082211E-04 -3.28083384E-04
 -1.28260165E-04  1.10669023E-04  8.91240775E-05  3.48814374E-05  2.80818927E-04
 -2.29689842E-04  5.19257959E-05 -3.41205293E-05 -4.95766715E-05  2.41184876E-05
 -3.69142615E-05  5.64974609E-06 -1.45038175E-05  3.29303375E-04  3.15911057E-04
 -1.93089196E-04  2.94536345E-05  1.49385662E-04  4.51950805E-05  1.76080136E-04
 -6.81742815E-05  3.37223427E-05  5.38527518E-05 -6.31845316E-05 -2.78008572E-05
  3.36273652E-06 -1.36000720E-05 -1.30522083E-05 -1.46565124E-04  3.70295863E-05
  8.25046848E-05 -4.13400152E-05 -1.48436105E-04  2.27703833E-05  3.44085765E-05
 -1.38021260E-05 -7.70297333E-05 -2.58613919E-05 -9.58062620E-05 -1.06414221E-04
  3.38153946E-04 -4.04948086E-05 -2.10029969E-04  6.00550987E-05  5.45170853E-04
 -3.33895535E-04  6.62960862E-04 -3.17016359E-04 -1.29189688E-04 -4.44948670E-04
  1.69136742E-04 -3.08966315E-04 -3.12005782E-05  1.41867258E-04 -1.06458023E-04
  3.37816827E-04 -4.05783780E-05  2.10023527E-04 -5.98987630E-05  5.46801729E-04
 -3.33768365E-04 -6.62634346E-04  3.16781662E-04 -1.29676224E-04 -4.45102727E-04
  1.69138771E-04  3.09139017E-04  3.12615038E-05  1.41200958E-04 -2.23095530E-04
 -3.52720037E-04 -7.41280423E-05  1.19893594E-04 -1.11601370E-04  7.95470319E-04
 -9.62784576E-04 -7.06127160E-04  9.76601978E-04  2.12733743E-04 -3.14987705E-05
 -4.77484559E-05  7.75070946E-05  3.62015645E-05  4.45148834E-06 -2.23100882E-04
 -3.52839808E-04 -7.39851361E-05 -1.19921070E-04  1.11552979E-04  7.95748177E-04
 -9.61833799E-04  7.05625293E-04 -9.76470933E-04  2.12644957E-04 -3.15057989E-05
 -4.79239247E-05 -7.73531527E-05 -3.62459182E-05  4.42956513E-06  9.95963706E-01
  2.66623933E-02  1.24138420E-03  3.89250296E-07 -4.70836310E-07 -1.13524408E-02
 -2.11042133E-04 -2.99484893E-08 -1.75986153E-06 -1.20204582E-03 -1.27567923E-03
 -1.31033756E-03  1.48965247E-07  2.72284171E-09 -1.49429890E-05 -2.10621165E-04
 -3.90886170E-04  1.00447512E-04  6.37729904E-04 -2.10487588E-04 -3.90942533E-04
  1.00370064E-04  6.37265154E-04  6.11241074E-05  2.36139758E-03  6.07512153E-05
  2.35968503E-03 -7.30806843E-05  2.00645409E-04  6.90141188E-05 -8.49757061E-05
  4.56055019E-05  1.92608282E-04  2.97399911E-04  5.54565237E-04 -1.15806934E-04
 -3.83778616E-04  1.32184136E-06  7.76998158E-05  5.81933511E-05 -1.60851169E-04
  1.20200649E-04 -7.09376908E-05  1.99214992E-04  6.69701285E-05  8.38276227E-05
 -4.43806992E-05  1.60519836E-04  2.96786530E-04 -5.52422838E-04  1.12461217E-04
 -3.74840607E-04  5.08544822E-06  7.76957756E-05 -5.44418235E-05  1.58293738E-04
  1.18770913E-04  7.10270104E-01  1.98260771E-02 -6.25530468E-04 -1.24228899E-05
 -1.62673503E-04 -7.45121037E-03  4.12592091E-04 -3.64403120E-04 -3.37101170E-04
 -1.14139266E-03 -1.42138269E-03 -1.15990683E-03  2.77832356E-05 -2.92622379E-05
 -1.00580300E-04  6.97842858E-01  1.94784978E-02 -6.14343530E-04  1.36053143E-05
  1.60241085E-04 -7.20410995E-03  4.04138465E-04  4.08306096E-04  3.46004672E-04
 -1.12645715E-03 -1.40753507E-03 -1.14329844E-03 -2.65623617E-05  2.98730178E-05
 -1.01084337E-04  2.11982163E-04 -5.37937145E-04  1.46188932E-04  8.14951935E-09
 -1.13221885E-06  2.26923453E-03  1.28053593E-03  5.55590188E-07  1.05344133E-05
  2.93804063E-04  5.12239436E-05 -1.01252046E-04  8.41635814E-07  3.09513330E-07
 -3.10085601E-06  6.99078802E-06  1.90780746E-03 -5.91391388E-05  1.54857855E-03
  1.65859518E-06  1.87533065E-03 -6.24835096E-05  1.52036689E-03 -8.77014680E-05
 -9.07236396E-06 -8.54915377E-05  7.69162931E-07  1.18392427E-04 -9.03968916E-05
 -1.15095187E-04  6.94585323E-05 -5.69530001E-05 -1.73389774E-03  1.47169667E-06
 -1.30323105E-04  1.31464128E-04  5.05030086E-04  2.13808939E-04 -1.94566198E-05
 -2.37463926E-04  1.30301693E-04 -6.30905529E-05 -1.19769867E-04  9.34498770E-05
  1.16252199E-04  7.09500889E-05 -5.76958642E-05  1.73932772E-03  3.87440770E-06
 -1.39222207E-04  1.33620063E-04 -5.12058364E-04 -2.14258964E-04  2.07391624E-05
 -2.38705978E-04  1.32740690E-04  6.50854337E-05 -6.98083336E-01 -1.94788292E-02
  6.29724475E-04 -8.82858411E-05  1.30911567E-04  1.36622949E-02 -3.38344847E-04
 -2.35460528E-03 -4.83982435E-04  8.42056868E-04  7.76414797E-04  9.35759922E-04
 -5.76950174E-05 -3.93762833E-05 -3.30469435E-05  7.10506225E-01  1.98253419E-02
 -6.40445194E-04 -8.84952535E-05  1.33519252E-04 -1.37915099E-02  3.46507810E-04
 -2.34711030E-03 -4.78708756E-04 -8.62066481E-04 -8.01460958E-04 -9.56187546E-04
 -5.81325408E-05 -3.88160800E-05  3.12040368E-05  1.87641844E-06 -4.52863910E-06
  1.19575084E-06  6.04174609E-06  1.04529931E-04  1.83900573E-05  1.00309378E-05
  1.57757829E-05 -1.06199386E-03  2.54560668E-06  4.39631579E-07 -9.48583176E-07
 -8.12996598E-05 -4.83641575E-05 -9.29878470E-08 -2.84600551E-04 -1.82189232E-03
 -1.87239820E-04 -1.62470750E-03  2.84541372E-04  1.85506486E-03  1.86317816E-04
  1.65237105E-03  9.87760088E-05  4.69316185E-04 -1.00054282E-04 -4.69396065E-04
 -1.31535093E-01  2.88850219E-01  1.35187203E-02 -6.81087023E-02  1.94776158E-02
  2.89631676E-01  6.79243984E-03 -4.83748316E-02  1.33811118E-02  7.96813272E-03
  1.07459657E-02 -2.45151868E-03  1.81600030E-03  2.01871805E-03 -3.98713379E-03
 -1.31463781E-01  2.88687369E-01  1.34871394E-02  6.81024336E-02 -1.93988012E-02
  2.89491440E-01  6.77314224E-03  4.83754721E-02 -1.33306973E-02  7.96714878E-03
  1.07466091E-02 -2.46046007E-03 -1.81557123E-03 -2.01471465E-03 -3.97051536E-03
 -5.18642108E-02  9.48080170E-02 -5.86491928E-02 -8.31579331E-03 -1.76541173E-02
  3.39369391E-02  1.93444127E-03 -1.02536142E-03 -1.59647822E-03  1.22601676E-02
  7.68500870E-04 -2.75447016E-03 -2.95316747E-03  5.44088479E-03 -1.31255802E-04
 -5.18431401E-02  9.47799607E-02 -5.86321629E-02  8.29428896E-03  1.76145405E-02
  3.38815252E-02  1.95109999E-03  1.00229562E-03  1.59981966E-03  1.22539684E-02
  7.74648718E-04 -2.75786841E-03  2.96049911E-03 -5.42818848E-03 -1.30959465E-04
 -8.03505695E-02  1.52058277E-01  7.72378774E-02  4.72089043E-05 -4.73155300E-05
  1.87481324E-02 -1.33979240E-02 -3.41980128E-06  1.30794720E-05  8.33676298E-03
  1.19972838E-02 -7.24796246E-03  6.20074788E-06 -9.15803345E-06 -3.49768763E-03
  1.71759147E-02  2.12889030E-03  1.46942058E-02 -7.92602334E-04  1.71700195E-02
  2.13156247E-03  1.46882618E-02 -8.04006432E-04  2.58854676E-02  2.41272248E-03
  2.58829153E-02  2.41973060E-03  1.50474529E-01 -3.35692608E-01 -2.03762812E-02
  3.77226216E-02 -1.78917288E-02 -3.42126278E-01 -1.80020546E-02  3.00117847E-02
 -1.28630854E-02 -1.05643966E-02 -5.91699272E-03  5.62875248E-04  6.56632626E-04
 -2.86343021E-03  2.82059606E-03 -1.50539989E-01  3.35831764E-01  2.03794226E-02
  3.77778799E-02 -1.78301594E-02  3.42288625E-01  1.79973758E-02  3.00612179E-02
 -1.28221954E-02  1.05701725E-02  5.92680276E-03 -5.72949441E-04  6.61124450E-04
 -2.85977153E-03 -2.81338127E-03  4.10332275E-02 -7.64610805E-02  6.07814569E-02
 -3.55720865E-02  1.71355880E-02 -1.20107363E-02 -5.90709728E-03 -6.34740358E-03
 -3.64444512E-03 -1.52214948E-02  6.19723421E-03  1.88517085E-03  5.56282277E-03
 -5.74488879E-03  3.07708355E-03 -4.10609041E-02  7.65114883E-02 -6.07959411E-02
 -3.56044272E-02  1.71102237E-02  1.20358521E-02  5.91156734E-03 -6.34157341E-03
 -3.64464343E-03  1.52258238E-02 -6.19028297E-03 -1.89256898E-03  5.58096241E-03
 -5.73449544E-03 -3.07722350E-03 -1.32021170E-05  2.78338939E-05  3.88003244E-05
 -1.19215372E-01  1.74437617E-02 -2.68439955E-06 -8.89459845E-06 -5.40256507E-03
 -2.35754698E-04  1.17519514E-05 -4.30782746E-06 -4.20280591E-06 -2.65320375E-02
  3.52441716E-03  1.68301200E-05 -1.44044150E-02  7.47935595E-05 -1.70377386E-02
 -4.09141360E-03  1.44126862E-02 -7.64000858E-05  1.70469225E-02  4.09329589E-03
  6.51220942E-04  1.18656808E-03 -6.40574751E-04 -1.18817097E-03  2.41819532E-02
 -5.57005660E-02  1.36305163E-01  2.75248923E-02  8.23951594E-03 -6.87420116E-02
  6.67263214E-02  1.63460948E-02  3.06268792E-03  6.21594335E-03 -7.04258972E-03
 -5.10614388E-04 -1.38436717E-02  5.27536142E-03  3.87157133E-04  2.41845067E-02
 -5.57067602E-02  1.36288578E-01 -2.74497948E-02 -8.24188880E-03 -6.87425433E-02
  6.67223352E-02 -1.63096670E-02 -3.06008210E-03  6.20584443E-03 -7.03284229E-03
 -5.12817039E-04  1.38534615E-02 -5.25826127E-03  3.79813137E-04 -1.25402216E-01
  2.44038545E-01  2.03887430E-02 -5.88414077E-02 -1.80666725E-02  1.95413037E-01
  1.17710505E-02 -1.66653389E-02  5.67219151E-03 -2.02922328E-03  1.19359995E-02
  4.66058057E-03  2.62167520E-03 -7.70748835E-04  2.22444403E-03 -1.25393494E-01
  2.44024040E-01  2.03465480E-02  5.88622816E-02  1.80639950E-02  1.95380835E-01
  1.17763603E-02  1.66673902E-02 -5.65955324E-03 -2.02770447E-03  1.19339649E-02
  4.66042295E-03 -2.63067972E-03  7.65939878E-04  2.22499191E-03  9.70934547E-02
 -1.95133663E-01  1.14272618E-03 -3.69319888E-06  3.68585400E-05 -1.33010839E-01
  7.15569144E-03 -1.45662060E-06 -1.25469157E-05  6.81744538E-04 -7.82051130E-03