opt=Tight                                                               
Freq      RMP2-FC                                                     6-31G(d)            
Number of atoms                            I                9
Info1-9                                    I   N=           9
          18          18        1002           0           0         100
           6           2           1
Charge                                     I                0
Multiplicity                               I                1
Number of electrons                        I               40
Number of alpha electrons                  I               20
Number of beta electrons                   I               20
Number of basis functions                  I               83
Number of independent functions            I               83
Number of point charges in /Mol/           I                0
Number of translation vectors              I                0
Atomic numbers                             I   N=           9
           8           8           8           6           6           1
           1           1           1
Nuclear charges                            R   N=           9
  8.00000000E+00  8.00000000E+00  8.00000000E+00  6.00000000E+00  6.00000000E+00
  1.00000000E+00  1.00000000E+00  1.00000000E+00  1.00000000E+00
Current cartesian coordinates              R   N=          27
 -9.88450701E-01 -1.53531432E+00 -1.51080281E-02  2.43614071E-01  2.56322934E+00
 -2.53714968E-03 -3.51886185E+00 -4.47005792E-01  1.29550676E-02  3.38964179E+00
 -8.03091793E-01  6.84719567E-03  7.90191869E-01  3.21052271E-01 -1.39446094E-02
  4.27373119E+00 -3.87063140E-01  1.82539276E+00  3.32717254E+00 -2.84074471E+00
 -2.83244864E-01  4.50790732E+00  9.63064352E-02 -1.47404494E+00 -3.07822517E+00
  1.37646468E+00  1.20024067E-02
Force Field                                I                0
Int Atom Types                             I   N=           9
           0           0           0           0           0           0
           0           0           0
MM charges                                 R   N=           9
  0.00000000E+00  0.00000000E+00  0.00000000E+00  0.00000000E+00  0.00000000E+00
  0.00000000E+00  0.00000000E+00  0.00000000E+00  0.00000000E+00
Integer atomic weights                     I   N=           9
          16          16          16          12          12           1
           1           1           1
Real atomic weights                        R   N=           9
  1.59949146E+01  1.59949146E+01  1.59949146E+01  1.20000000E+01  1.20000000E+01
  1.00782504E+00  1.00782504E+00  1.00782504E+00  1.00782504E+00
Atom fragment info                         I   N=           9
           0           0           0           0           0           0
           0           0           0
Atom residue num                           I   N=           9
           0           0           0           0           0           0
           0           0           0
Nuclear spins                              I   N=           9
           0           0           0           0           0           1
           1           1           1
Nuclear ZEff                               R   N=           9
 -5.60000000E+00 -5.60000000E+00 -5.60000000E+00 -3.60000000E+00 -3.60000000E+00
 -1.00000000E+00 -1.00000000E+00 -1.00000000E+00 -1.00000000E+00
Nuclear QMom                               R   N=           9
  0.00000000E+00  0.00000000E+00  0.00000000E+00  0.00000000E+00  0.00000000E+00
  0.00000000E+00  0.00000000E+00  0.00000000E+00  0.00000000E+00
Nuclear GFac                               R   N=           9
  0.00000000E+00  0.00000000E+00  0.00000000E+00  0.00000000E+00  0.00000000E+00
  2.79284600E+00  2.79284600E+00  2.79284600E+00  2.79284600E+00
MicOpt                                     I   N=           9
          -1          -1          -1          -1          -1          -1
          -1          -1          -1
Number of contracted shells                I               28
Number of primitive shells                 I               71
Pure/Cartesian d shells                    I                1
Pure/Cartesian f shells                    I                0
Highest angular momentum                   I                2
Largest degree of contraction              I                6
Shell types                                I   N=          28
           0          -1          -1           2           0          -1
          -1           2           0          -1          -1           2
           0          -1          -1           2           0          -1
          -1           2           0           0           0           0
           0           0           0           0
Number of primitives per shell             I   N=          28
           6           3           1           1           6           3
           1           1           6           3           1           1
           6           3           1           1           6           3
           1           1           3           1           3           1
           3           1           3           1
Shell to atom map                          I   N=          28
           1           1           1           1           2           2
           2           2           3           3           3           3
           4           4           4           4           5           5
           5           5           6           6           7           7
           8           8           9           9
Primitive exponents                        R   N=          71
  5.48467166E+03  8.25234946E+02  1.88046958E+02  5.29645000E+01  1.68975704E+01
  5.79963534E+00  1.55396162E+01  3.59993359E+00  1.01376175E+00  2.70005823E-01
  8.00000000E-01  5.48467166E+03  8.25234946E+02  1.88046958E+02  5.29645000E+01
  1.68975704E+01  5.79963534E+00  1.55396162E+01  3.59993359E+00  1.01376175E+00
  2.70005823E-01  8.00000000E-01  5.48467166E+03  8.25234946E+02  1.88046958E+02
  5.29645000E+01  1.68975704E+01  5.79963534E+00  1.55396162E+01  3.59993359E+00
  1.01376175E+00  2.70005823E-01  8.00000000E-01  3.04752488E+03  4.57369518E+02
  1.03948685E+02  2.92101553E+01  9.28666296E+00  3.16392696E+00  7.86827235E+00
  1.88128854E+00  5.44249258E-01  1.68714478E-01  8.00000000E-01  3.04752488E+03
  4.57369518E+02  1.03948685E+02  2.92101553E+01  9.28666296E+00  3.16392696E+00
  7.86827235E+00  1.88128854E+00  5.44249258E-01  1.68714478E-01  8.00000000E-01
  1.87311370E+01  2.82539436E+00  6.40121692E-01  1.61277759E-01  1.87311370E+01
  2.82539436E+00  6.40121692E-01  1.61277759E-01  1.87311370E+01  2.82539436E+00
  6.40121692E-01  1.61277759E-01  1.87311370E+01  2.82539436E+00  6.40121692E-01
  1.61277759E-01
Contraction coefficients                   R   N=          71
  1.83107443E-03  1.39501722E-02  6.84450781E-02  2.32714336E-01  4.70192898E-01
  3.58520853E-01 -1.10777550E-01 -1.48026263E-01  1.13076702E+00  1.00000000E+00
  1.00000000E+00  1.83107443E-03  1.39501722E-02  6.84450781E-02  2.32714336E-01
  4.70192898E-01  3.58520853E-01 -1.10777550E-01 -1.48026263E-01  1.13076702E+00
  1.00000000E+00  1.00000000E+00  1.83107443E-03  1.39501722E-02  6.84450781E-02
  2.32714336E-01  4.70192898E-01  3.58520853E-01 -1.10777550E-01 -1.48026263E-01
  1.13076702E+00  1.00000000E+00  1.00000000E+00  1.83473713E-03  1.40373228E-02
  6.88426223E-02  2.32184443E-01  4.67941348E-01  3.62311985E-01 -1.19332420E-01
 -1.60854152E-01  1.14345644E+00  1.00000000E+00  1.00000000E+00  1.83473713E-03
  1.40373228E-02  6.88426223E-02  2.32184443E-01  4.67941348E-01  3.62311985E-01
 -1.19332420E-01 -1.60854152E-01  1.14345644E+00  1.00000000E+00  1.00000000E+00
  3.34946043E-02  2.34726953E-01  8.13757326E-01  1.00000000E+00  3.34946043E-02
  2.34726953E-01  8.13757326E-01  1.00000000E+00  3.34946043E-02  2.34726953E-01
  8.13757326E-01  1.00000000E+00  3.34946043E-02  2.34726953E-01  8.13757326E-01
  1.00000000E+00
P(S=P) Contraction coefficients            R   N=          71
  0.00000000E+00  0.00000000E+00  0.00000000E+00  0.00000000E+00  0.00000000E+00
  0.00000000E+00  7.08742682E-02  3.39752839E-01  7.27158577E-01  1.00000000E+00
  0.00000000E+00  0.00000000E+00  0.00000000E+00  0.00000000E+00  0.00000000E+00
  0.00000000E+00  0.00000000E+00  7.08742682E-02  3.39752839E-01  7.27158577E-01
  1.00000000E+00  0.00000000E+00  0.00000000E+00  0.00000000E+00  0.00000000E+00
  0.00000000E+00  0.00000000E+00  0.00000000E+00  7.08742682E-02  3.39752839E-01
  7.27158577E-01  1.00000000E+00  0.00000000E+00  0.00000000E+00  0.00000000E+00
  0.00000000E+00  0.00000000E+00  0.00000000E+00  0.00000000E+00  6.89990666E-02
  3.16423961E-01  7.44308291E-01  1.00000000E+00  0.00000000E+00  0.00000000E+00
  0.00000000E+00  0.00000000E+00  0.00000000E+00  0.00000000E+00  0.00000000E+00
  6.89990666E-02  3.16423961E-01  7.44308291E-01  1.00000000E+00  0.00000000E+00
  0.00000000E+00  0.00000000E+00  0.00000000E+00  0.00000000E+00  0.00000000E+00
  0.00000000E+00  0.00000000E+00  0.00000000E+00  0.00000000E+00  0.00000000E+00
  0.00000000E+00  0.00000000E+00  0.00000000E+00  0.00000000E+00  0.00000000E+00
  0.00000000E+00
Coordinates of each shell                  R   N=          84
 -9.88450701E-01 -1.53531432E+00 -1.51080281E-02 -9.88450701E-01 -1.53531432E+00
 -1.51080281E-02 -9.88450701E-01 -1.53531432E+00 -1.51080281E-02 -9.88450701E-01
 -1.53531432E+00 -1.51080281E-02  2.43614071E-01  2.56322934E+00 -2.53714968E-03
  2.43614071E-01  2.56322934E+00 -2.53714968E-03  2.43614071E-01  2.56322934E+00
 -2.53714968E-03  2.43614071E-01  2.56322934E+00 -2.53714968E-03 -3.51886185E+00
 -4.47005792E-01  1.29550676E-02 -3.51886185E+00 -4.47005792E-01  1.29550676E-02
 -3.51886185E+00 -4.47005792E-01  1.29550676E-02 -3.51886185E+00 -4.47005792E-01
  1.29550676E-02  3.38964179E+00 -8.03091793E-01  6.84719567E-03  3.38964179E+00
 -8.03091793E-01  6.84719567E-03  3.38964179E+00 -8.03091793E-01  6.84719567E-03
  3.38964179E+00 -8.03091793E-01  6.84719567E-03  7.90191869E-01  3.21052271E-01
 -1.39446094E-02  7.90191869E-01  3.21052271E-01 -1.39446094E-02  7.90191869E-01
  3.21052271E-01 -1.39446094E-02  7.90191869E-01  3.21052271E-01 -1.39446094E-02
  4.27373119E+00 -3.87063140E-01  1.82539276E+00  4.27373119E+00 -3.87063140E-01
  1.82539276E+00  3.32717254E+00 -2.84074471E+00 -2.83244864E-01  3.32717254E+00
 -2.84074471E+00 -2.83244864E-01  4.50790732E+00  9.63064352E-02 -1.47404494E+00
  4.50790732E+00  9.63064352E-02 -1.47404494E+00 -3.07822517E+00  1.37646468E+00
  1.20024067E-02 -3.07822517E+00  1.37646468E+00  1.20024067E-02
Constraint Structure                       R   N=          27
 -9.88450701E-01 -1.53531432E+00 -1.51080281E-02  2.43614071E-01  2.56322934E+00
 -2.53714968E-03 -3.51886185E+00 -4.47005792E-01  1.29550676E-02  3.38964179E+00
 -8.03091793E-01  6.84719567E-03  7.90191869E-01  3.21052271E-01 -1.39446094E-02
  4.27373119E+00 -3.87063140E-01  1.82539276E+00  3.32717254E+00 -2.84074471E+00
 -2.83244864E-01  4.50790732E+00  9.63064352E-02 -1.47404494E+00 -3.07822517E+00
  1.37646468E+00  1.20024067E-02
Num ILSW                                   I              100
ILSW                                       I   N=         100
           0           1           0           0           2           0
           0           0           0           0           0          -1
           0           0           0           0           0           0
           0           0           0           0           1           0
           1           0           0           0           0           0
           0           0      100000           0          -1           0
           0           0           0           0           0           0
           0           0           0           1           1           0
           0           0           1           0           0           0
           0           0           4          40           0           0
           0           0           0           0           0           0
           0           0           0           0           0           0
           0           0           0           0           0           0
           0           0           0           0           0           0
           0           0           0           0           0           0
           0           0           0           0           0           0
           0           0           0           0
Num RLSW                                   I               40
RLSW                                       R   N=          40
  1.00000000E+00  1.00000000E+00  1.00000000E+00  1.00000000E+00  1.00000000E+00
  0.00000000E+00  0.00000000E+00  1.00000000E+00  0.00000000E+00  0.00000000E+00
  0.00000000E+00  0.00000000E+00  1.00000000E+00  0.00000000E+00  0.00000000E+00
  0.00000000E+00  0.00000000E+00  1.00000000E+00  0.00000000E+00  0.00000000E+00
  0.00000000E+00  0.00000000E+00  1.00000000E+00  0.00000000E+00  0.00000000E+00
  0.00000000E+00  0.00000000E+00  1.00000000E+00  0.00000000E+00  0.00000000E+00
  0.00000000E+00  0.00000000E+00  0.00000000E+00  0.00000000E+00  0.00000000E+00
  0.00000000E+00  0.00000000E+00  0.00000000E+00  1.00000000E+00  1.00000000E+00
MxBond                                     I                4
NBond                                      I   N=           9
           2           1           2           4           3           1
           1           1           1
IBond                                      I   N=          36
           3           5           0           0           5           0
           0           0           1           9           0           0
           5           6           7           8           1           2
           4           0           4           0           0           0
           4           0           0           0           4           0
           0           0           3           0           0           0
RBond                                      R   N=          36
  1.00000000E+00  1.50000000E+00  0.00000000E+00  0.00000000E+00  2.00000000E+00
  0.00000000E+00  0.00000000E+00  0.00000000E+00  1.00000000E+00  1.00000000E+00
  0.00000000E+00  0.00000000E+00  1.00000000E+00  1.00000000E+00  1.00000000E+00
  1.00000000E+00  1.50000000E+00  2.00000000E+00  1.00000000E+00  0.00000000E+00
  1.00000000E+00  0.00000000E+00  0.00000000E+00  0.00000000E+00  1.00000000E+00
  0.00000000E+00  0.00000000E+00  0.00000000E+00  1.00000000E+00  0.00000000E+00
  0.00000000E+00  0.00000000E+00  1.00000000E+00  0.00000000E+00  0.00000000E+00
  0.00000000E+00
Virial Ratio                               R      2.003495531315492E+00
SCF Energy                                 R     -3.025529206984751E+02
MP2 Energy                                 R     -3.033544469049908E+02
Total Energy                               R     -3.033544469049908E+02
Post-SCF wavefunction norm                 R      1.576242262912729E+00
RMS Force                                  R      3.024808095747134E-08
RMS Density                                R      2.559459152904328E-09
External E-field                           R   N=          35
  0.00000000E+00  0.00000000E+00  0.00000000E+00  0.00000000E+00  0.00000000E+00
  0.00000000E+00  0.00000000E+00  0.00000000E+00  0.00000000E+00  0.00000000E+00
  0.00000000E+00  0.00000000E+00  0.00000000E+00  0.00000000E+00  0.00000000E+00
  0.00000000E+00  0.00000000E+00  0.00000000E+00  0.00000000E+00  0.00000000E+00
  0.00000000E+00  0.00000000E+00  0.00000000E+00  0.00000000E+00  0.00000000E+00
  0.00000000E+00  0.00000000E+00  0.00000000E+00  0.00000000E+00  0.00000000E+00
  0.00000000E+00  0.00000000E+00  0.00000000E+00  0.00000000E+00  0.00000000E+00
IOpCl                                      I                0
IROHF                                      I                0
Alpha Orbital Energies                     R   N=          83
 -2.06815262E+01 -2.06559702E+01 -2.05874517E+01 -1.14195517E+01 -1.12660742E+01
 -1.53048650E+00 -1.40512896E+00 -1.26440565E+00 -1.03545813E+00 -8.30896601E-01
 -7.36738505E-01 -6.94268991E-01 -6.92714030E-01 -6.16464979E-01 -6.09770012E-01
 -5.92153364E-01 -5.69242109E-01 -5.34410292E-01 -4.83697333E-01 -4.71924553E-01
  1.54413252E-01  2.04944866E-01  2.39051073E-01  2.84115290E-01  3.02510156E-01
  3.10076211E-01  3.82504429E-01  4.48331547E-01  5.14580518E-01  7.16698756E-01
  7.48731904E-01  7.98727969E-01  8.05342199E-01  8.18127658E-01  8.96454796E-01
  9.64182636E-01  1.04365462E+00  1.04652070E+00  1.07861707E+00  1.09658558E+00
  1.14691189E+00  1.15649875E+00  1.17659653E+00  1.21620519E+00  1.23385213E+00
  1.28261999E+00  1.32633043E+00  1.34319166E+00  1.42576822E+00  1.54325014E+00
  1.57891311E+00  1.64048355E+00  1.67221448E+00  1.75693071E+00  1.80850604E+00
  1.83015283E+00  2.00528115E+00  2.01288777E+00  2.04628343E+00  2.06748193E+00
  2.09181818E+00  2.11573313E+00  2.26314734E+00  2.27511323E+00  2.31979241E+00
  2.50504998E+00  2.51567821E+00  2.53206752E+00  2.61750044E+00  2.69820148E+00
  2.72472491E+00  2.80593035E+00  2.98719279E+00  3.01653641E+00  3.11023051E+00
  3.27311673E+00  3.40267549E+00  3.45223367E+00  3.93608780E+00  4.32174019E+00
  4.48243394E+00  4.55799168E+00  4.85521617E+00
Alpha MO coefficients                      R   N=        6889
  9.94751276E-01  2.10629283E-02 -2.53365124E-04  1.38768178E-03  1.32242185E-05
  3.13254926E-03  6.29862873E-04 -8.65102345E-04 -1.44159449E-05 -4.11924030E-03
 -3.85932738E-03 -3.63627904E-03  1.57066271E-04  5.36920355E-06 -3.59618970E-06
 -1.67539378E-04  7.09999496E-05  2.52772506E-05  3.73443561E-05  1.13458379E-06
 -5.63955985E-04  1.37226745E-05  1.50518569E-04 -4.49085730E-06  6.55128667E-05
 -1.42926906E-05  1.93291292E-05 -4.96227975E-05 -4.99248127E-07  8.13588317E-07
  5.87496818E-03  1.47157404E-04  2.84410373E-04 -1.27386510E-04 -3.01140077E-06
  4.70785940E-04  4.08232190E-04 -1.02808121E-05 -4.11739858E-06  1.79103118E-04
 -2.99443369E-05 -1.01406035E-04 -9.12357934E-05 -3.37438539E-06  7.35054377E-07
  1.36284511E-06  6.07154116E-05 -1.51125957E-06  8.91228159E-06  7.88116207E-06
  2.59075860E-04  1.03222179E-04 -6.24335322E-05 -5.22271681E-05 -9.58460969E-05
 -9.80022047E-06  8.71292355E-06 -9.23675605E-06 -3.44487868E-06 -5.21803147E-06
  2.49974304E-06  3.87921705E-04 -2.34899205E-04 -2.12879526E-04  1.86975066E-08
  1.34107739E-04 -1.86491425E-04  5.24054749E-04  1.79486372E-05 -1.87019034E-05
 -5.54856026E-05 -4.10986953E-05 -8.24239432E-05  1.40415766E-06 -4.16049163E-07
 -1.25206498E-06 -1.94629656E-05  4.58937223E-05 -2.25970365E-04 -9.85400166E-06
 -7.63396925E-05 -1.00812701E-04 -4.97639243E-05 -5.94867490E-03 -4.98968010E-05
 -2.85464448E-04  1.14428133E-04  3.09086953E-06  2.49884648E-04 -1.97864588E-04
  2.46568416E-04  3.82349509E-06  1.95688872E-04  7.36362604E-05 -2.21813869E-05
 -8.04521767E-05 -2.49509286E-06  1.71157808E-06 -8.12775509E-05 -2.54753649E-05
  1.68914802E-05  1.18533154E-05 -3.69181994E-07  6.06384233E-05  2.41241661E-05
 -1.51555848E-05  1.37201670E-06 -3.09002680E-05 -2.73578649E-05 -4.46641723E-05
 -2.69335907E-05 -2.67403173E-07 -1.17461095E-08  9.94777168E-01  2.09674150E-02
  1.31673744E-03  5.85478462E-04 -1.20144894E-05  3.11801266E-03 -8.94412215E-04
 -1.41047603E-04  8.64491099E-06 -4.16315282E-03 -3.85508955E-03 -3.52214883E-03
  2.07811752E-04  7.88036086E-06 -2.75988143E-06 -1.17786571E-05 -6.47196489E-05
 -1.49499116E-05  7.08907979E-06 -1.18643590E-06  4.86034151E-04 -2.18109972E-04
  8.44932640E-05  4.88937211E-06  1.58770470E-05 -9.13752182E-06 -2.08050967E-05
 -1.24468553E-05  8.44786132E-07  9.05576386E-07 -8.49329147E-06  1.02912277E-05
  1.03597982E-04  1.67155876E-05 -4.71413166E-07 -2.82716079E-04 -3.77145172E-04
  1.55646028E-04 -3.21646998E-06 -7.66849633E-05 -3.82830364E-05 -3.54938792E-05
 -2.50997504E-05 -8.43109569E-07  3.86619745E-07 -1.47644143E-05 -1.78101425E-05
 -2.63111510E-05  1.68367303E-05 -1.39664048E-05 -9.30244086E-06  3.94593249E-04
 -2.76637613E-04  1.79465954E-04 -3.35555891E-05 -5.52810218E-06 -3.69908644E-05
  1.42699887E-07  8.81643793E-05  3.00762065E-05  3.57228815E-05 -9.74598721E-07
  7.55228950E-05 -9.18460468E-05 -5.64542416E-05  1.50626607E-05 -6.49652517E-07
 -3.58833829E-07  9.94688446E-01  2.09912518E-02  2.75675608E-04 -1.55410227E-03
 -7.74316905E-06  4.45877821E-03 -5.01562802E-05  6.22848137E-05 -8.59184114E-07
 -3.90283402E-03 -3.63459202E-03 -4.12598221E-03 -7.43771358E-05 -1.37445817E-06
  2.80651196E-06  6.10456754E-05 -3.83287278E-05 -8.60943388E-06 -1.55484572E-05
  1.53617499E-07  2.48653136E-04 -5.10762489E-06  8.92254625E-05  9.28912385E-09
 -6.81468387E-05 -3.96139187E-05 -4.22753275E-05  5.92302314E-06  3.14496487E-07
 -3.03858688E-07  2.71017383E-06  4.56185388E-06 -2.07192894E-05 -1.63021495E-05
  1.18941099E-06 -1.09132963E-04  8.53424621E-05 -4.13709049E-05 -1.02885814E-05
  6.15114500E-05 -3.80795794E-05 -9.38201086E-06  3.42386498E-05  1.03314786E-06
  6.04035401E-07 -1.58463008E-06  5.06824787E-04  1.93226854E-05 -4.63439486E-05
 -6.90827154E-07 -3.17215073E-04  1.69972491E-04 -3.87329647E-04  2.51748110E-06
 -1.00760162E-04 -7.60630171E-04 -3.51354204E-05  2.01550621E-04  1.50755113E-06
 -4.16758436E-06  1.37722088E-05 -1.44757859E-05  1.14202498E-05 -5.13682710E-05
  1.24202650E-05 -2.60668328E-05 -2.99532754E-05 -2.02054937E-04 -7.37435397E-05
  7.43591468E-04  7.95606540E-06  2.27199697E-04  1.62357989E-06 -1.90487557E-03
  5.17802095E-05 -1.93035685E-03 -8.35916346E-06 -2.11312004E-04 -3.15678642E-04
  5.95496676E-04 -4.04713562E-04  3.42846222E-06 -1.61095342E-06 -2.55310812E-04
  7.14484051E-04  6.07186609E-06 -2.93844887E-04 -1.99160452E-06 -3.68181701E-03
  3.01588133E-04  2.00603936E-03  1.88484950E-05  3.12406675E-04 -1.19302540E-05
  4.58328175E-04 -1.14456753E-04  1.11478136E-07 -6.06812353E-06 -1.39456009E-05
 -1.89179506E-04 -6.84705927E-06 -3.49194553E-05 -1.04836684E-06  7.86470465E-04
  6.78360580E-04 -3.75063736E-05 -4.08120711E-06  2.49738731E-04 -1.22846063E-04
 -1.11874247E-04 -2.91072957E-05 -3.48865461E-06  4.33277661E-07  2.00266826E-03
  2.67518413E-05  1.25135581E-04 -1.02367945E-05  1.16340932E-05  4.35254585E-03
 -2.20455267E-03  4.38569778E-04 -7.97262460E-05 -4.80859668E-04 -2.03821112E-04
 -1.45317125E-04  1.58175931E-04  2.83709019E-07  8.36926335E-06  9.95894004E-01
  2.59546340E-02 -1.02437657E-03 -1.98392844E-04  5.05909557E-06 -5.99870564E-03
 -3.55556198E-03  2.86176927E-03 -5.12085208E-06 -1.14969310E-03 -4.82977436E-04
 -2.30549091E-03 -4.06207504E-05  1.61557015E-06  4.93903190E-06 -1.58999902E-04
  3.28945856E-04 -1.60753475E-04 -8.15822337E-05 -1.42110792E-04  2.83005729E-04
 -8.23336735E-05  7.15973663E-05 -2.65523620E-05 -2.17921875E-04 -7.78105284E-05
 -2.79892826E-05 -6.98869199E-06  4.97866062E-04  4.17988001E-04  2.28234997E-04
  2.74105959E-05 -1.62062612E-05 -4.65356892E-05 -1.73800846E-04  7.21784072E-05
  8.36276998E-06 -1.71564247E-06 -3.90739185E-05 -2.34538928E-04 -5.17576564E-05
 -3.57145255E-07 -4.43977062E-06  1.00260462E-03 -1.44733613E-04 -4.45400122E-04
  1.42786738E-05 -1.15537253E-04  5.32675422E-05 -2.35190256E-04  2.70675718E-06
  6.50393993E-06 -1.18018843E-08 -2.26204521E-05 -9.86455312E-05 -2.07610026E-05
  3.45263973E-06  2.41497945E-06  4.49482460E-04  2.50212026E-04 -5.26397778E-05
 -1.15822695E-05 -2.73600184E-05 -6.32752485E-05 -8.43115155E-05 -1.32295590E-06
 -3.13432293E-06  8.42532203E-07  9.95695982E-01  2.88650911E-02 -3.82979182E-04
  2.09892154E-04  3.19001650E-05 -1.59698532E-02  1.20342588E-03 -6.78479520E-04
 -5.72569326E-05 -1.91064851E-03 -1.89263636E-03 -1.89283893E-03  8.74495426E-06
 -2.72125026E-06  9.64999804E-07 -2.36772212E-03  2.15678703E-05  9.56804108E-06
 -2.34930678E-05  2.80843744E-07  3.64357335E-03  2.65084747E-03 -1.06251567E-03
 -4.12826902E-06 -5.83825191E-04 -4.06736101E-04 -1.56362215E-04  1.75380735E-04
  1.21483661E-06  1.56478011E-06  1.67873861E-04  2.60829766E-03  1.78064413E-04
  2.43433440E-03  1.73776986E-04  2.55361002E-03 -1.05561455E-05  1.39525472E-04
 -1.54230129E-01  3.47593270E-01 -1.14937918E-02  8.18519736E-02  7.45497269E-04
  3.14498724E-01 -9.22926356E-04  5.45888411E-02  3.50512787E-04  1.69150303E-02
  1.28940985E-02 -4.74760972E-03 -2.13731324E-03 -2.13574048E-04  1.66223786E-04
 -6.37334423E-02  1.38816635E-01  4.34030537E-04 -5.63474523E-02 -1.84911208E-04
  1.31802228E-01 -1.04948851E-02 -2.65914342E-02 -7.39224558E-05 -1.28069191E-03
  8.15057046E-03 -7.00755461E-04  7.70200432E-04  3.25062048E-06  3.41474692E-05
 -1.11107522E-01  2.54151876E-01  7.44791183E-02  9.32507309E-03 -6.97768640E-04
  1.98792966E-01  3.07808232E-02  1.35658896E-02 -2.45587588E-04  2.04111542E-02
  1.07985999E-02 -2.95805060E-03 -1.69095611E-03 -2.59166531E-04  5.38431745E-05
 -1.02410091E-02  2.16154089E-02 -1.69184904E-02  4.77523876E-03 -8.37260685E-05
 -1.48684090E-02  4.99731634E-03 -8.14366122E-03 -1.31750134E-04  5.09044476E-03
  6.02013112E-04  7.87299224E-05 -1.86943876E-03  8.37529723E-05  9.37693851E-05
 -8.20430170E-02  1.58340381E-01 -7.51775583E-02 -7.42400981E-03  3.50018345E-04
  2.53514039E-02  3.94073337E-02 -4.78131540E-03  5.78816508E-06  2.09101457E-03
  1.26267142E-02 -1.31731630E-02  1.00916199E-02  2.66504188E-06  6.93521153E-05
  3.56305995E-03  1.50367933E-03  4.58044988E-03 -5.77609239E-04  3.68281973E-03
  1.16536439E-03  6.01213286E-02 -8.20483177E-03  5.21102524E-02 -1.16778322E-01
  4.32415860E-02 -2.14821187E-03 -3.88685997E-04 -1.16795195E-01  1.41828741E-02
 -1.84710492E-03 -1.43981465E-04 -8.47049580E-03  2.17383638E-03  1.85541147E-03
  9.24037995E-03  1.56836612E-04 -7.33310465E-05 -1.82746550E-01  3.98489460E-01
  3.11338308E-02 -1.17614427E-01 -5.42237080E-04  3.86044299E-01  1.00397506E-02
 -5.41197703E-02 -2.93201436E-04 -1.80236578E-03  1.48443740E-02 -4.51213428E-03
 -4.59158965E-03 -3.98578113E-05  1.08681215E-04  7.67916963E-02 -1.77782898E-01
 -3.12543428E-02 -4.73067504E-03  3.29874471E-04 -1.55171100E-01 -1.40697361E-02
 -1.02220902E-02  1.17724785E-04 -8.78931865E-03 -8.30089652E-03  7.77203119E-04
  1.39470520E-03  1.13348289E-04 -3.09634301E-05 -1.21588057E-02  2.31231846E-02
 -1.44041984E-02  1.38036778E-02 -2.88846179E-05  4.72588153E-03  5.45878018E-03
  9.90384784E-03 -9.28557267E-05  3.08616702E-03  1.60041980E-03  3.58753228E-04
 -4.38504835E-03 -7.75379889E-05 -2.60847913E-04 -8.96251960E-02  1.75058422E-01
 -1.55338869E-02  1.83565493E-01  8.99571230E-04  4.60094886E-02  5.80394075E-03
 -2.76137340E-02 -2.80705367E-05 -1.59306265E-02  2.44000181E-02 -1.45017715E-02
 -1.83917113E-02 -4.57709782E-05  2.55129304E-04  4.93369563E-03 -4.48492403E-04
  3.24160192E-03  7.36795157E-04  5.39043087E-03 -1.20645271E-03 -3.25172738E-02
  1.11607898E-02  1.23732565E-01 -2.83751046E-01 -1.36713658E-01 -2.33468334E-02
  7.03925897E-04 -3.17030234E-01 -6.90696556E-02 -2.49235208E-02  4.08104371E-04
  3.28402669E-03 -4.25408576E-03 -9.79242682E-04 -1.85808224E-02 -1.77003912E-04
  1.08318720E-04 -4.75741288E-02  1.00987962E-01  1.86603629E-03 -9.38388120E-03
 -5.34695826E-05  1.18300920E-01  8.67543769E-06 -3.09688133E-03  8.32495589E-05
  2.30178430E-03 -1.27912916E-03 -2.45931535E-03 -1.07877832E-03 -2.87678569E-05
 -2.92559335E-07 -1.61065003E-01  3.74635707E-01 -1.32977213E-02  8.02308903E-02
  2.75399647E-04  3.78185900E-01  5.12690971E-03  5.12783270E-02  6.12594578E-05
 -2.51412273E-03  2.31931018E-02  7.55921524E-04  8.82935717E-03  5.07425510E-05
 -3.36151382E-05  2.25970110E-02 -4.27295849E-02  2.70422837E-02  6.53482240E-04
  7.33530568E-05 -3.31666783E-02  6.95759872E-03  9.02908973E-03  1.17215234E-03
 -5.30779366E-03 -3.97178722E-05  2.58470068E-04  7.49673370E-04 -1.54032745E-04
 -2.33830349E-04  4.74522927E-02 -9.71371119E-02  3.86724788E-02  1.42588849E-01
  2.94144308E-04 -2.17014368E-02 -1.32543908E-02 -1.25082257E-02 -3.13795057E-04
 -7.66845935E-03 -1.74916958E-03  6.23671503E-03 -1.90304604E-02 -9.60375214E-05
  6.34275848E-05 -8.41667978E-03 -1.49139248E-03 -1.40435834E-02  2.93862021E-03
 -7.63387769E-03  6.90889054E-05  1.10143973E-01 -8.31043932E-03  4.62020295E-02
 -1.07780173E-01  3.79396903E-02  3.85133791E-03  6.26155681E-04 -1.36132922E-01
  1.35286102E-02 -3.63062958E-03 -1.30409577E-04  1.86337668E-03 -2.16727588E-03
 -5.61942252E-04  2.28556794E-03 -6.29402649E-06 -1.77821214E-07  3.71240798E-02
 -8.12976982E-02  4.05417506E-02 -5.81372492E-03  4.20514820E-04 -1.05212193E-01
  1.69976045E-02  6.81869160E-04 -1.17463693E-04  1.88726598E-03 -1.70179807E-03
  1.52388364E-03 -4.11513162E-03 -1.74542575E-05 -3.32381710E-05 -3.33545382E-02
  7.82569424E-02 -3.98004038E-02  4.12079873E-02  5.82775560E-04  9.86739318E-02
 -1.81366197E-02  2.36251442E-02  3.30408367E-04 -8.13051937E-03  6.77783104E-03
  1.07879982E-03  4.77264145E-03  1.50493001E-04 -4.89885600E-05 -1.79234490E-01
  3.34446625E-01 -3.85379663E-02  2.02365625E-02  9.27088645E-04  3.33658714E-01
 -6.52555690E-03  1.39297490E-03 -5.96744773E-04  8.37147864E-03  7.92391114E-03
  8.41332655E-03 -3.22103258E-04 -1.22825983E-05 -1.85093477E-05 -6.04996201E-02
  1.34261284E-01  1.78340402E-01 -7.78721362E-02  9.81380783E-04  8.83751873E-02
  2.32620908E-02 -1.34109076E-02  8.10011146E-04  1.47495266E-02 -4.86389703E-03
 -3.73560314E-03 -1.30063182E-02  1.74395202E-04 -1.15122865E-04  1.12971697E-01
  2.10459828E-02  1.09521393E-01  1.51731985E-02  1.12238074E-01  1.97994100E-02
  2.84072990E-02 -2.35291234E-03  5.81143015E-02 -1.41706034E-01  2.63893424E-01
  2.50015985E-01 -3.89198172E-04 -1.84736734E-01  1.38579015E-01  1.37022409E-01
 -3.36498812E-04 -1.41493055E-02  1.62929238E-02 -5.79451471E-03  2.08313304E-02
  2.43288700E-04 -2.01128396E-06  5.26585591E-02 -1.21623263E-01 -6.22593721E-02
 -1.18262036E-01 -2.89546380E-04 -1.70252922E-01 -4.50627802E-02 -6.42566339E-02
 -2.80111868E-04 -3.87515399E-03  8.42170342E-03 -2.29645560E-03  5.96815235E-03
  1.44446458E-05  5.09822125E-05 -5.12839877E-03  6.24870692E-03 -4.98162528E-02