
    -----------------------------------------------------------------------
          Psi4: An Open-Source Ab Initio Electronic Structure Package
                               Psi4 1.3.2 release

                         Git: Rev {HEAD} ecbda83 


    R. M. Parrish, L. A. Burns, D. G. A. Smith, A. C. Simmonett,
    A. E. DePrince III, E. G. Hohenstein, U. Bozkaya, A. Yu. Sokolov,
    R. Di Remigio, R. M. Richard, J. F. Gonthier, A. M. James,
    H. R. McAlexander, A. Kumar, M. Saitow, X. Wang, B. P. Pritchard,
    P. Verma, H. F. Schaefer III, K. Patkowski, R. A. King, E. F. Valeev,
    F. A. Evangelista, J. M. Turney, T. D. Crawford, and C. D. Sherrill,
    J. Chem. Theory Comput. 13(7) pp 3185--3197 (2017).
    (doi: 10.1021/acs.jctc.7b00174)


                         Additional Contributions by
    P. Kraus, H. Kruse, M. H. Lechner, M. C. Schieber, R. A. Shaw,
    A. Alenaizan, R. Galvelis, Z. L. Glick, S. Lehtola, and J. P. Misiewicz

    -----------------------------------------------------------------------


    Psi4 started on: Wednesday, 04 November 2020 10:29AM

    Process ID: 57888
    Host:       node98.bme.utexas.edu
    PSIDATADIR: /home/xy3866/psi4conda/share/psi4
    Memory:     500.0 MiB
    Threads:    8
    
  ==> Input File <==

--------------------------------------------------------------------------
#psi4
#
memory 32 gb

molecule  {
-1 1
  S        0.5401240    -0.0567320     0.0000000
  O        0.4874240    -0.8647860    -1.2512880
  O        1.4367148     0.8685215    -0.0000052
  O        0.4874170    -0.8647610     1.2513040
  C       -1.0236020     0.8530730    -0.0000110
  C       -2.2227860    -0.0817370     0.0000010
  H       -1.0143060     1.4942760     0.8867830
  H       -1.0143040     1.4942500    -0.8868250
  H       -3.1679310     0.4744510    -0.0000100
  H       -2.1864950    -0.7220660    -0.8842360
  H       -2.1864990    -0.7220390     0.8842580
units angstrom
no_reorient  #important for SAPT in psi4, default
symmetry c1  #important for SAPT in psi4, default
}

set PROPERTIES_ORIGIN ["COM"]
properties('MP2/aug-cc-pvtz', properties = ['dipole'])
--------------------------------------------------------------------------

  Memory set to  29.802 GiB by Python driver.
    SCF Algorithm Type (re)set to DF.

*** tstart() called on node98.bme.utexas.edu
*** at Wed Nov  4 10:29:11 2020

   => Loading Basis Set <=

    Name: AUG-CC-PVTZ
    Role: ORBITAL
    Keyword: BASIS
    atoms 1    entry S          line   902 file /home/xy3866/psi4conda/share/psi4/basis/aug-cc-pvtz.gbs 
    atoms 2-4  entry O          line   327 file /home/xy3866/psi4conda/share/psi4/basis/aug-cc-pvtz.gbs 
    atoms 5-6  entry C          line   235 file /home/xy3866/psi4conda/share/psi4/basis/aug-cc-pvtz.gbs 
    atoms 7-11 entry H          line    36 file /home/xy3866/psi4conda/share/psi4/basis/aug-cc-pvtz.gbs 


         ---------------------------------------------------------
                                   SCF
               by Justin Turney, Rob Parrish, Andy Simmonett
                          and Daniel G. A. Smith
                              RHF Reference
                        8 Threads,  30517 MiB Core
         ---------------------------------------------------------

  ==> Geometry <==

    Molecular point group: c1
    Full point group: C1

    Geometry (in Angstrom), charge = -1, multiplicity = 1:

       Center              X                  Y                   Z               Mass       
    ------------   -----------------  -----------------  -----------------  -----------------
         S            0.473695478354    -0.017325328949    -0.000000206524    31.972071174400
         O            0.420995478354    -0.825379328949    -1.251288206524    15.994914619570
         O            1.370286278354     0.907928171051    -0.000005406524    15.994914619570
         O            0.420988478354    -0.825354328949     1.251303793476    15.994914619570
         C           -1.090030521646     0.892479671051    -0.000011206524    12.000000000000
         C           -2.289214521646    -0.042330328949     0.000000793476    12.000000000000
         H           -1.080734521646     1.533682671051     0.886782793476     1.007825032230
         H           -1.080732521646     1.533656671051    -0.886825206524     1.007825032230
         H           -3.234359521646     0.513857671051    -0.000010206524     1.007825032230
         H           -2.252923521646    -0.682659328949    -0.884236206524     1.007825032230
         H           -2.252927521646    -0.682632328949     0.884257793476     1.007825032230

  Running in c1 symmetry.

  Rotational constants: A =      0.16272  B =      0.08705  C =      0.08576 [cm^-1]
  Rotational constants: A =   4878.26679  B =   2609.58393  C =   2571.08463 [MHz]
  Nuclear repulsion =  356.565387799364146

  Charge       = -1
  Multiplicity = 1
  Electrons    = 58
  Nalpha       = 29
  Nbeta        = 29

  ==> Algorithm <==

  SCF Algorithm Type is DF.
  DIIS enabled.
  MOM disabled.
  Fractional occupation disabled.
  Guess Type is SAD.
  Energy threshold   = 1.00e-10
  Density threshold  = 1.00e-10
  Integral threshold = 0.00e+00

  ==> Primary Basis <==

  Basis Set: AUG-CC-PVTZ
    Blend: AUG-CC-PVTZ
    Number of shells: 131
    Number of basis function: 395
    Number of Cartesian functions: 459
    Spherical Harmonics?: true
    Max angular momentum: 3

   => Loading Basis Set <=

    Name: (AUG-CC-PVTZ AUX)
    Role: JKFIT
    Keyword: DF_BASIS_SCF
    atoms 1    entry S          line   730 file /home/xy3866/psi4conda/share/psi4/basis/aug-cc-pvtz-jkfit.gbs 
    atoms 2-4  entry O          line   286 file /home/xy3866/psi4conda/share/psi4/basis/aug-cc-pvtz-jkfit.gbs 
    atoms 5-6  entry C          line   162 file /home/xy3866/psi4conda/share/psi4/basis/aug-cc-pvtz-jkfit.gbs 
    atoms 7-11 entry H          line    70 file /home/xy3866/psi4conda/share/psi4/basis/aug-cc-pvtz-jkfit.gbs 

  ==> Pre-Iterations <==

   -------------------------------------------------------
    Irrep   Nso     Nmo     Nalpha   Nbeta   Ndocc  Nsocc
   -------------------------------------------------------
     A        395     395       0       0       0       0
   -------------------------------------------------------
    Total     395     395      29      29      29       0
   -------------------------------------------------------

  ==> Integral Setup <==

  DFHelper Memory: AOs need 1.075 GiB; user supplied 22.352 GiB. Using in-core AOs.

  ==> MemDFJK: Density-Fitted J/K Matrices <==

    J tasked:                   Yes
    K tasked:                   Yes
    wK tasked:                   No
    OpenMP threads:               8
    Memory [MiB]:             22888
    Algorithm:                 Core
    Schwarz Cutoff:           1E-12
    Mask sparsity (%):       1.3036
    Fitting Condition:        1E-10

   => Auxiliary Basis Set <=

  Basis Set: (AUG-CC-PVTZ AUX)
    Blend: AUG-CC-PVTZ-JKFIT
    Number of shells: 262
    Number of basis function: 896
    Number of Cartesian functions: 1110
    Spherical Harmonics?: true
    Max angular momentum: 4

  Minimum eigenvalue in the overlap matrix is 1.7646184387E-05.
  Using Symmetric Orthogonalization.

  SCF Guess: Superposition of Atomic Densities via on-the-fly atomic UHF.

  ==> Iterations <==

                           Total Energy        Delta E     RMS |[F,P]|

   @DF-RHF iter SAD:  -701.03573786019956   -7.01036e+02   0.00000e+00 
   @DF-RHF iter   1:  -700.58288955014382    4.52848e-01   2.16795e-03 DIIS
   @DF-RHF iter   2:  -700.79200551171641   -2.09116e-01   1.34082e-03 DIIS
   @DF-RHF iter   3:  -700.88094061807033   -8.89351e-02   1.66049e-04 DIIS
   @DF-RHF iter   4:  -700.88333688971250   -2.39627e-03   7.06373e-05 DIIS
   @DF-RHF iter   5:  -700.88378683356279   -4.49944e-04   1.34559e-05 DIIS
   @DF-RHF iter   6:  -700.88380727908032   -2.04455e-05   4.63457e-06 DIIS
   @DF-RHF iter   7:  -700.88380963841962   -2.35934e-06   1.33094e-06 DIIS
   @DF-RHF iter   8:  -700.88380985564356   -2.17224e-07   3.07925e-07 DIIS
   @DF-RHF iter   9:  -700.88380987023993   -1.45964e-08   1.04997e-07 DIIS
   @DF-RHF iter  10:  -700.88380987197752   -1.73759e-09   3.08817e-08 DIIS
   @DF-RHF iter  11:  -700.88380987215476   -1.77238e-10   6.68696e-09 DIIS
   @DF-RHF iter  12:  -700.88380987215976   -5.00222e-12   1.72236e-09 DIIS
   @DF-RHF iter  13:  -700.88380987216090   -1.13687e-12   5.39994e-10 DIIS
   @DF-RHF iter  14:  -700.88380987216306   -2.16005e-12   1.75966e-10 DIIS
   @DF-RHF iter  15:  -700.88380987215965    3.41061e-12   5.01012e-11 DIIS
  Energy and wave function converged.


  ==> Post-Iterations <==

    Orbital Energies [Eh]
    ---------------------

    Doubly Occupied:                                                      

       1A    -91.963967     2A    -20.338653     3A    -20.317537  
       4A    -20.317514     5A    -11.081642     6A    -11.078057  
       7A     -8.934018     8A     -6.621541     9A     -6.618053  
      10A     -6.617505    11A     -1.337852    12A     -1.144658  
      13A     -1.095937    14A     -0.892762    15A     -0.728360  
      16A     -0.590164    17A     -0.511478    18A     -0.492650  
      19A     -0.470362    20A     -0.460025    21A     -0.421984  
      22A     -0.372443    23A     -0.353902    24A     -0.331664  
      25A     -0.328951    26A     -0.289348    27A     -0.262152  
      28A     -0.237827    29A     -0.228706  

    Virtual:                                                              

      30A      0.115285    31A      0.133302    32A      0.135586  
      33A      0.147142    34A      0.155918    35A      0.193944  
      36A      0.202180    37A      0.209812    38A      0.212329  
      39A      0.228128    40A      0.235148    41A      0.241974  
      42A      0.245120    43A      0.265286    44A      0.277410  
      45A      0.292894    46A      0.308146    47A      0.316742  
      48A      0.332772    49A      0.344494    50A      0.352321  
      51A      0.361249    52A      0.380502    53A      0.387316  
      54A      0.401409    55A      0.405017    56A      0.405236  
      57A      0.409635    58A      0.417927    59A      0.427456  
      60A      0.433653    61A      0.441252    62A      0.457952  
      63A      0.468249    64A      0.477799    65A      0.490405  
      66A      0.496274    67A      0.497459    68A      0.500612  
      69A      0.511349    70A      0.515716    71A      0.536795  
      72A      0.540346    73A      0.542061    74A      0.557842  
      75A      0.560467    76A      0.568029    77A      0.579650  
      78A      0.583945    79A      0.595916    80A      0.604365  
      81A      0.610164    82A      0.616129    83A      0.629913  
      84A      0.638308    85A      0.641524    86A      0.651723  
      87A      0.659828    88A      0.663842    89A      0.693398  
      90A      0.693705    91A      0.704285    92A      0.718077  
      93A      0.722908    94A      0.736111    95A      0.738094  
      96A      0.747464    97A      0.786339    98A      0.810536  
      99A      0.825487   100A      0.839846   101A      0.877210  
     102A      0.881706   103A      0.914465   104A      0.931949  
     105A      0.946872   106A      0.957425   107A      0.974557  
     108A      0.978691   109A      0.981184   110A      0.983675  
     111A      1.002376   112A      1.007238   113A      1.008144  
     114A      1.017925   115A      1.022654   116A      1.035576  
     117A      1.044189   118A      1.055771   119A      1.065690  
     120A      1.076506   121A      1.084629   122A      1.092530  
     123A      1.100477   124A      1.106311   125A      1.124982  
     126A      1.132137   127A      1.132652   128A      1.148865  
     129A      1.164838   130A      1.173089   131A      1.175918  
     132A      1.202565   133A      1.205320   134A      1.211838  
     135A      1.221884   136A      1.232897   137A      1.240860  
     138A      1.242444   139A      1.257642   140A      1.287645  
     141A      1.298201   142A      1.299749   143A      1.308262  
     144A      1.320874   145A      1.336227   146A      1.345145  
     147A      1.349742   148A      1.388786   149A      1.392656  
     150A      1.393300   151A      1.396794   152A      1.432043  
     153A      1.447608   154A      1.462437   155A      1.466879  
     156A      1.470015   157A      1.482168   158A      1.488662  
     159A      1.515025   160A      1.520596   161A      1.528653  
     162A      1.537234   163A      1.571284   164A      1.575548  
     165A      1.599210   166A      1.602749   167A      1.623378  
     168A      1.637695   169A      1.668267   170A      1.688551  
     171A      1.700373   172A      1.714237   173A      1.735234  
     174A      1.743843   175A      1.749660   176A      1.766622  
     177A      1.792467   178A      1.802300   179A      1.819957  
     180A      1.824238   181A      1.836497   182A      1.836947  
     183A      1.855699   184A      1.881308   185A      1.891262  
     186A      1.910460   187A      1.922186   188A      1.924095  
     189A      1.942194   190A      1.963594   191A      1.984643  
     192A      1.990859   193A      1.999627   194A      2.064141  
     195A      2.095721   196A      2.104262   197A      2.113496  
     198A      2.129344   199A      2.183247   200A      2.199632  
     201A      2.224096   202A      2.252805   203A      2.257597  
     204A      2.263871   205A      2.342141   206A      2.357788  
     207A      2.365680   208A      2.371616   209A      2.380343  
     210A      2.401793   211A      2.416742   212A      2.436249  
     213A      2.436584   214A      2.452359   215A      2.469079  
     216A      2.485591   217A      2.502850   218A      2.507316  
     219A      2.515225   220A      2.526131   221A      2.543879  
     222A      2.556816   223A      2.569925   224A      2.587029  
     225A      2.618537   226A      2.630509   227A      2.641534  
     228A      2.674566   229A      2.684429   230A      2.739245  
     231A      2.749353   232A      2.760287   233A      2.767426  
     234A      2.785062   235A      2.786386   236A      2.800676  
     237A      2.840212   238A      2.864687   239A      2.872754  
     240A      2.880408   241A      2.918000   242A      2.926078  
     243A      2.954005   244A      2.959343   245A      2.996121  
     246A      3.006572   247A      3.048589   248A      3.050153  
     249A      3.097361   250A      3.129399   251A      3.150307  
     252A      3.154956   253A      3.176112   254A      3.191013  
     255A      3.297524   256A      3.363192   257A      3.381063  
     258A      3.399388   259A      3.463419   260A      3.507929  
     261A      3.539778   262A      3.572207   263A      3.602064  
     264A      3.608308   265A      3.620277   266A      3.661606  
     267A      3.687331   268A      3.688260   269A      3.702311  
     270A      3.746187   271A      3.797813   272A      3.806023  
     273A      3.818093   274A      3.852417   275A      3.855866  
     276A      3.872968   277A      3.909625   278A      3.910192  
     279A      3.943531   280A      3.949725   281A      3.966178  
     282A      3.981051   283A      4.033897   284A      4.050331  
     285A      4.055059   286A      4.058764   287A      4.084579  
     288A      4.124641   289A      4.154595   290A      4.162705  
     291A      4.227683   292A      4.230645   293A      4.255600  
     294A      4.321987   295A      4.335597   296A      4.364943  
     297A      4.381322   298A      4.397628   299A      4.422728  
     300A      4.492938   301A      4.554177   302A      4.558337  
     303A      4.581604   304A      4.610808   305A      4.648258  
     306A      4.717213   307A      4.751073   308A      4.803653  
     309A      4.828144   310A      4.848673   311A      4.935018  
     312A      4.975539   313A      4.977821   314A      4.991584  
     315A      4.997765   316A      5.016975   317A      5.041448  
     318A      5.076163   319A      5.122756   320A      5.159716  
     321A      5.162557   322A      5.184646   323A      5.244045  
     324A      5.273951   325A      5.308792   326A      5.320504  
     327A      5.352765   328A      5.363903   329A      5.399513  
     330A      5.463673   331A      5.504938   332A      5.507916  
     333A      5.525619   334A      5.602981   335A      5.641063  
     336A      5.725418   337A      5.741902   338A      5.841923  
     339A      5.887153   340A      5.948679   341A      6.048144  
     342A      6.075481   343A      6.135407   344A      6.173118  
     345A      6.173334   346A      6.228098   347A      6.292178  
     348A      6.318668   349A      6.360693   350A      6.518693  
     351A      6.852801   352A      6.875809   353A      6.903082  
     354A      6.907273   355A      6.920070   356A      6.932219  
     357A      6.947536   358A      6.965413   359A      7.014755  
     360A      7.049598   361A      7.070728   362A      7.087869  
     363A      7.124534   364A      7.147384   365A      7.158088  
     366A      7.160156   367A      7.175153   368A      7.210935  
     369A      7.216482   370A      7.254430   371A      7.286142  
     372A      7.305924   373A      7.369423   374A      7.394458  
     375A      7.438863   376A      7.464104   377A      7.495044  
     378A      7.552900   379A      7.573359   380A      7.577187  
     381A      7.749413   382A      7.815157   383A      7.857864  
     384A      7.870804   385A      7.912684   386A      7.942958  
     387A      7.977257   388A      8.119468   389A      8.140433  
     390A     12.983494   391A     13.172371   392A     13.802717  
     393A     15.290520   394A     17.191419   395A     18.277927  

    Final Occupation by Irrep:
              A 
    DOCC [    29 ]

  @DF-RHF Final Energy:  -700.88380987215965

   => Energetics <=

    Nuclear Repulsion Energy =            356.5653877993641458
    One-Electron Energy =               -1686.0189691141370076
    Two-Electron Energy =                 628.5697714426132734
    Total Energy =                       -700.8838098721596452

Computation Completed

*** tstop() called on node98.bme.utexas.edu at Wed Nov  4 10:29:19 2020
Module time:
	user time   =      54.44 seconds =       0.91 minutes
	system time =       1.47 seconds =       0.02 minutes
	total time  =          8 seconds =       0.13 minutes
Total time:
	user time   =      54.44 seconds =       0.91 minutes
	system time =       1.47 seconds =       0.02 minutes
	total time  =          8 seconds =       0.13 minutes
   => Loading Basis Set <=

    Name: (AUG-CC-PVTZ AUX)
    Role: RIFIT
    Keyword: DF_BASIS_MP2
    atoms 1    entry S          line   666 file /home/xy3866/psi4conda/share/psi4/basis/aug-cc-pvtz-ri.gbs 
    atoms 2-4  entry O          line   264 file /home/xy3866/psi4conda/share/psi4/basis/aug-cc-pvtz-ri.gbs 
    atoms 5-6  entry C          line   148 file /home/xy3866/psi4conda/share/psi4/basis/aug-cc-pvtz-ri.gbs 
    atoms 7-11 entry H          line    30 file /home/xy3866/psi4conda/share/psi4/basis/aug-cc-pvtz-ri.gbs 


*** tstart() called on node98.bme.utexas.edu
*** at Wed Nov  4 10:29:19 2020


  //>>>>>>>>>>>>>>>>>>>>>>>>>>>>>>>>>>>//
  //               DFMP2               //
  //<<<<<<<<<<<<<<<<<<<<<<<<<<<<<<<<<<<//

	 --------------------------------------------------------
	                          DF-MP2                         
	      2nd-Order Density-Fitted Moller-Plesset Theory     
	              RMP2 Wavefunction,   8 Threads             
	                                                         
	        Rob Parrish, Justin Turney, Andy Simmonett,      
	           Ed Hohenstein, and C. David Sherrill          
	 --------------------------------------------------------

   => Auxiliary Basis Set <=

  Basis Set: (AUG-CC-PVTZ AUX)
    Blend: AUG-CC-PVTZ-RI
    Number of shells: 247
    Number of basis function: 907
    Number of Cartesian functions: 1146
    Spherical Harmonics?: true
    Max angular momentum: 4

	 --------------------------------------------------------
	                 NBF =   395, NAUX =   907
	 --------------------------------------------------------
	   CLASS    FOCC     OCC    AOCC    AVIR     VIR    FVIR
	   PAIRS       0      29      29     366     366       0
	 --------------------------------------------------------

  DFHelper Memory: AOs need 1.075 GiB; user supplied 22.352 GiB. Using in-core AOs.


         ------------------------------------------------------------
                                     CPHF                           
                                  Rob Parrish                       
         ------------------------------------------------------------

  ==> Geometry <==

    Molecular point group: c1
    Full point group: C1

    Geometry (in Angstrom), charge = -1, multiplicity = 1:

       Center              X                  Y                   Z               Mass       
    ------------   -----------------  -----------------  -----------------  -----------------
         S            0.473695478354    -0.017325328949    -0.000000206524    31.972071174400
         O            0.420995478354    -0.825379328949    -1.251288206524    15.994914619570
         O            1.370286278354     0.907928171051    -0.000005406524    15.994914619570
         O            0.420988478354    -0.825354328949     1.251303793476    15.994914619570
         C           -1.090030521646     0.892479671051    -0.000011206524    12.000000000000
         C           -2.289214521646    -0.042330328949     0.000000793476    12.000000000000
         H           -1.080734521646     1.533682671051     0.886782793476     1.007825032230
         H           -1.080732521646     1.533656671051    -0.886825206524     1.007825032230
         H           -3.234359521646     0.513857671051    -0.000010206524     1.007825032230
         H           -2.252923521646    -0.682659328949    -0.884236206524     1.007825032230
         H           -2.252927521646    -0.682632328949     0.884257793476     1.007825032230

  Nuclear repulsion =  356.565387799364146
  Reference energy  = -700.883809872159645

  ==> Basis Set <==

  Basis Set: AUG-CC-PVTZ
    Blend: AUG-CC-PVTZ
    Number of shells: 131
    Number of basis function: 395
    Number of Cartesian functions: 459
    Spherical Harmonics?: true
    Max angular momentum: 3

  ==> CGRSolver (by Rob Parrish) <==

   Number of roots    =         1
   Preconditioning    =    JACOBI
   Convergence cutoff =     1E-06
   Maximum iterations =       100

  ==> CPHFRHamiltonian (by Rob Parrish) <== 

  ==> MemDFJK: Density-Fitted J/K Matrices <==

    J tasked:                   Yes
    K tasked:                   Yes
    wK tasked:                   No
    OpenMP threads:               8
    Memory [MiB]:             22888
    Algorithm:                 Core
    Schwarz Cutoff:           1E-12
    Mask sparsity (%):       1.3036
    Fitting Condition:        1E-10

   => Auxiliary Basis Set <=

  Basis Set: (AUG-CC-PVTZ AUX)
    Blend: AUG-CC-PVTZ-JKFIT
    Number of shells: 262
    Number of basis function: 896
    Number of Cartesian functions: 1110
    Spherical Harmonics?: true
    Max angular momentum: 4

  ==> CPHF Iterations <==

  => Iterations <=

             Iter  Converged  Remaining    Residual
  CGR           1          0          1   9.779E-02
  CGR           2          0          1   2.278E-02
  CGR           3          0          1   9.941E-03
  CGR           4          0          1   2.920E-03
  CGR           5          0          1   1.078E-03
  CGR           6          0          1   2.682E-04
  CGR           7          0          1   7.121E-05
  CGR           8          0          1   2.176E-05
  CGR           9          0          1   5.969E-06
  CGR          10          0          1   1.714E-06
  CGR          11          1          0   5.449E-07

    CGRSolver converged.

	-----------------------------------------------------------
	 ==================> DF-MP2 Energies <==================== 
	-----------------------------------------------------------
	 Reference Energy          =    -700.8838098721596452 [Eh]
	 Singles Energy            =      -0.0000000000000000 [Eh]
	 Same-Spin Energy          =      -0.3566632629562153 [Eh]
	 Opposite-Spin Energy      =      -1.0522648570569386 [Eh]
	 Correlation Energy        =      -1.4089281200131538 [Eh]
	 Total Energy              =    -702.2927379921727606 [Eh]
	-----------------------------------------------------------
	 ================> DF-SCS-MP2 Energies <================== 
	-----------------------------------------------------------
	 SCS Same-Spin Scale       =       0.3333333333333333 [-]
	 SCS Opposite-Spin Scale   =       1.2000000000000000 [-]
	 SCS Same-Spin Energy      =      -0.1188877543187384 [Eh]
	 SCS Opposite-Spin Energy  =      -1.2627178284683263 [Eh]
	 SCS Correlation Energy    =      -1.3816055827870646 [Eh]
	 SCS Total Energy          =    -702.2654154549467194 [Eh]
	-----------------------------------------------------------



Properties will be evaluated at   0.000000,   0.000000,  -0.000000 [a0]

Properties computed using the MP2 density matrix

  Nuclear Dipole Moment: [e a0]
     X:    -9.2594      Y:     2.0733      Z:    -0.0000

  Electronic Dipole Moment: [e a0]
     X:     7.9492      Y:    -1.0798      Z:     0.0000

  Dipole Moment: [e a0]
     X:    -1.3102      Y:     0.9935      Z:    -0.0000     Total:     1.6443

  Dipole Moment: [D]
     X:    -3.3302      Y:     2.5253      Z:    -0.0000     Total:     4.1794


*** tstop() called on node98.bme.utexas.edu at Wed Nov  4 10:29:45 2020
Module time:
	user time   =     174.38 seconds =       2.91 minutes
	system time =       3.94 seconds =       0.07 minutes
	total time  =         26 seconds =       0.43 minutes
Total time:
	user time   =     229.69 seconds =       3.83 minutes
	system time =       5.44 seconds =       0.09 minutes
	total time  =         34 seconds =       0.57 minutes

    Psi4 stopped on: Wednesday, 04 November 2020 10:29AM
    Psi4 wall time for execution: 0:00:34.72

*** Psi4 exiting successfully. Buy a developer a beer!
