
    -----------------------------------------------------------------------
          Psi4: An Open-Source Ab Initio Electronic Structure Package
                               Psi4 1.4a3.dev225 

                         Git: Rev {master} 7105e37 


    D. G. A. Smith, L. A. Burns, A. C. Simmonett, R. M. Parrish,
    M. C. Schieber, R. Galvelis, P. Kraus, H. Kruse, R. Di Remigio,
    A. Alenaizan, A. M. James, S. Lehtola, J. P. Misiewicz, M. Scheurer,
    R. A. Shaw, J. B. Schriber, Y. Xie, Z. L. Glick, D. A. Sirianni,
    J. S. O'Brien, J. M. Waldrop, A. Kumar, E. G. Hohenstein,
    B. P. Pritchard, B. R. Brooks, H. F. Schaefer III, A. Yu. Sokolov,
    K. Patkowski, A. E. DePrince III, U. Bozkaya, R. A. King,
    F. A. Evangelista, J. M. Turney, T. D. Crawford, C. D. Sherrill,
    J. Chem. Phys. 152(18) 184108 (2020). https://doi.org/10.1063/5.0006002

                            Additional Code Authors
    E. T. Seidl, C. L. Janssen, E. F. Valeev, M. L. Leininger,
    J. F. Gonthier, R. M. Richard, H. R. McAlexander, M. Saitow, X. Wang,
    P. Verma, and M. H. Lechner

             Previous Authors, Complete List of Code Contributors,
                       and Citations for Specific Modules
    https://github.com/psi4/psi4/blob/master/codemeta.json
    https://github.com/psi4/psi4/graphs/contributors
    http://psicode.org/psi4manual/master/introduction.html#citing-psifour

    -----------------------------------------------------------------------


    Psi4 started on: Friday, 19 March 2021 08:00PM

    Process ID: 166667
    Host:       c434-071.stampede2.tacc.utexas.edu
    PSIDATADIR: /home1/07844/xy3866/miniconda3/envs/p4env/share/psi4
    Memory:     500.0 MiB
    Threads:    32
    
  ==> Input File <==

--------------------------------------------------------------------------
#psi4
#
memory 32 gb

molecule  {
-1 1
  S       -0.5251900    -0.0446130     0.0000000
  O       -0.5231630    -0.8666190     1.2464430
  O       -1.5341078     0.9862956    -0.0000010
  O       -0.5231620    -0.8666200    -1.2464420
  C        1.0357230     0.8350160     0.0000000
  C        2.2383420    -0.0963210     0.0000000
  H        1.0305470     1.4783680    -0.8845630
  H        1.0305460     1.4783690     0.8845620
  H        3.1657760     0.4824540     0.0000000
  H        2.2275090    -0.7339400     0.8865020
  H        2.2275090    -0.7339410    -0.8865010
units angstrom
no_reorient  #important for SAPT in psi4, default
symmetry c1  #important for SAPT in psi4, default
}

set PROPERTIES_ORIGIN ["COM"]
properties('MP2/aug-cc-pvtz', properties = ['dipole'])
--------------------------------------------------------------------------

  Memory set to  29.802 GiB by Python driver.
    SCF Algorithm Type (re)set to DF.

*** tstart() called on c434-071.stampede2.tacc.utexas.edu
*** at Fri Mar 19 20:00:54 2021

   => Loading Basis Set <=

    Name: AUG-CC-PVTZ
    Role: ORBITAL
    Keyword: BASIS
    atoms 1    entry S          line   906 file /home1/07844/xy3866/miniconda3/envs/p4env/share/psi4/basis/aug-cc-pvtz.gbs 
    atoms 2-4  entry O          line   331 file /home1/07844/xy3866/miniconda3/envs/p4env/share/psi4/basis/aug-cc-pvtz.gbs 
    atoms 5-6  entry C          line   239 file /home1/07844/xy3866/miniconda3/envs/p4env/share/psi4/basis/aug-cc-pvtz.gbs 
    atoms 7-11 entry H          line    40 file /home1/07844/xy3866/miniconda3/envs/p4env/share/psi4/basis/aug-cc-pvtz.gbs 


         ---------------------------------------------------------
                                   SCF
               by Justin Turney, Rob Parrish, Andy Simmonett
                          and Daniel G. A. Smith
                              RHF Reference
                       32 Threads,  30517 MiB Core
         ---------------------------------------------------------

  ==> Geometry <==

    Molecular point group: c1
    Full point group: C1

    Geometry (in Angstrom), charge = -1, multiplicity = 1:

       Center              X                  Y                   Z               Mass       
    ------------   -----------------  -----------------  -----------------  -----------------
         S           -0.442445759401    -0.021469107198    -0.000000000000    31.972071174400
         O           -0.440418759401    -0.843475107198     1.246443000000    15.994914619570
         O           -1.451363559401     1.009439492802    -0.000001000000    15.994914619570
         O           -0.440417759401    -0.843476107198    -1.246442000000    15.994914619570
         C            1.118467240599     0.858159892802    -0.000000000000    12.000000000000
         C            2.321086240599    -0.073177107198    -0.000000000000    12.000000000000
         H            1.113291240599     1.501511892802    -0.884563000000     1.007825032230
         H            1.113290240599     1.501512892802     0.884562000000     1.007825032230
         H            3.248520240599     0.505597892802    -0.000000000000     1.007825032230
         H            2.310253240599    -0.710796107198     0.886502000000     1.007825032230
         H            2.310253240599    -0.710797107198    -0.886501000000     1.007825032230

  Running in c1 symmetry.

  Rotational constants: A =      0.15806  B =      0.08322  C =      0.08284 [cm^-1]
  Rotational constants: A =   4738.43238  B =   2494.83240  C =   2483.39585 [MHz]
  Nuclear repulsion =  348.417378425872812

  Charge       = -1
  Multiplicity = 1
  Electrons    = 58
  Nalpha       = 29
  Nbeta        = 29

  ==> Algorithm <==

  SCF Algorithm Type is DF.
  DIIS enabled.
  MOM disabled.
  Fractional occupation disabled.
  Guess Type is SAD.
  Energy threshold   = 1.00e-10
  Density threshold  = 1.00e-10
  Integral threshold = 1.00e-12

  ==> Primary Basis <==

  Basis Set: AUG-CC-PVTZ
    Blend: AUG-CC-PVTZ
    Number of shells: 131
    Number of basis functions: 395
    Number of Cartesian functions: 459
    Spherical Harmonics?: true
    Max angular momentum: 3

   => Loading Basis Set <=

    Name: (AUG-CC-PVTZ AUX)
    Role: JKFIT
    Keyword: DF_BASIS_SCF
    atoms 1    entry S          line   730 file /home1/07844/xy3866/miniconda3/envs/p4env/share/psi4/basis/aug-cc-pvtz-jkfit.gbs 
    atoms 2-4  entry O          line   286 file /home1/07844/xy3866/miniconda3/envs/p4env/share/psi4/basis/aug-cc-pvtz-jkfit.gbs 
    atoms 5-6  entry C          line   162 file /home1/07844/xy3866/miniconda3/envs/p4env/share/psi4/basis/aug-cc-pvtz-jkfit.gbs 
    atoms 7-11 entry H          line    70 file /home1/07844/xy3866/miniconda3/envs/p4env/share/psi4/basis/aug-cc-pvtz-jkfit.gbs 

  ==> Integral Setup <==

  DFHelper Memory: AOs need 1.092 GiB; user supplied 22.352 GiB. Using in-core AOs.

  ==> MemDFJK: Density-Fitted J/K Matrices <==

    J tasked:                   Yes
    K tasked:                   Yes
    wK tasked:                   No
    OpenMP threads:              32
    Memory [MiB]:             22888
    Algorithm:                 Core
    Schwarz Cutoff:           1E-12
    Mask sparsity (%):       2.3624
    Fitting Condition:        1E-10

   => Auxiliary Basis Set <=

  Basis Set: (AUG-CC-PVTZ AUX)
    Blend: AUG-CC-PVTZ-JKFIT
    Number of shells: 262
    Number of basis functions: 896
    Number of Cartesian functions: 1110
    Spherical Harmonics?: true
    Max angular momentum: 4

  Minimum eigenvalue in the overlap matrix is 1.8149091198E-05.
  Reciprocal condition number of the overlap matrix is 1.1729698522E-06.
    Using symmetric orthogonalization.

  ==> Pre-Iterations <==

  SCF Guess: Superposition of Atomic Densities via on-the-fly atomic UHF (no occupation information).

   -------------------------
    Irrep   Nso     Nmo    
   -------------------------
     A        395     395 
   -------------------------
    Total     395     395
   -------------------------

  ==> Iterations <==

                           Total Energy        Delta E     RMS |[F,P]|

   @DF-RHF iter SAD:  -700.56425262473329   -7.00564e+02   0.00000e+00 
   @DF-RHF iter   1:  -700.61385091519855   -4.95983e-02   2.19211e-03 DIIS
   @DF-RHF iter   2:  -700.81664345575075   -2.02793e-01   1.44218e-03 DIIS
   @DF-RHF iter   3:  -700.92039648649120   -1.03753e-01   1.65315e-04 DIIS
   @DF-RHF iter   4:  -700.92294368759815   -2.54720e-03   6.32652e-05 DIIS
   @DF-RHF iter   5:  -700.92336931910290   -4.25632e-04   1.27945e-05 DIIS
   @DF-RHF iter   6:  -700.92338939065291   -2.00716e-05   4.48325e-06 DIIS
   @DF-RHF iter   7:  -700.92339147323935   -2.08259e-06   1.68909e-06 DIIS
   @DF-RHF iter   8:  -700.92339176970268   -2.96463e-07   4.31314e-07 DIIS
   @DF-RHF iter   9:  -700.92339179721478   -2.75121e-08   1.46703e-07 DIIS
   @DF-RHF iter  10:  -700.92339180099111   -3.77634e-09   3.96239e-08 DIIS
   @DF-RHF iter  11:  -700.92339180131489   -3.23780e-10   8.76940e-09 DIIS
   @DF-RHF iter  12:  -700.92339180132888   -1.39835e-11   2.43004e-09 DIIS
   @DF-RHF iter  13:  -700.92339180133115   -2.27374e-12   7.92733e-10 DIIS
   @DF-RHF iter  14:  -700.92339180133069    4.54747e-13   2.78699e-10 DIIS
   @DF-RHF iter  15:  -700.92339180133035    3.41061e-13   7.04705e-11 DIIS
  Energy and wave function converged.


  ==> Post-Iterations <==

    Orbital Energies [Eh]
    ---------------------

    Doubly Occupied:                                                      

       1A    -91.987952     2A    -20.334132     3A    -20.329886  
       4A    -20.329862     5A    -11.099003     6A    -11.090419  
       7A     -8.950886     8A     -6.636243     9A     -6.636029  
      10A     -6.635627    11A     -1.262935    12A     -1.119480  
      13A     -1.102371    14A     -0.907549    15A     -0.744333  
      16A     -0.600943    17A     -0.498215    18A     -0.491887  
      19A     -0.455523    20A     -0.444412    21A     -0.417298  
      22A     -0.385173    23A     -0.365161    24A     -0.318050  
      25A     -0.317849    26A     -0.274678    27A     -0.267462  
      28A     -0.250827    29A     -0.231201  

    Virtual:                                                              

      30A      0.112510    31A      0.131885    32A      0.133956  
      33A      0.145216    34A      0.153977    35A      0.197564  
      36A      0.199579    37A      0.209582    38A      0.212739  
      39A      0.228470    40A      0.237201    41A      0.241038  
      42A      0.243818    43A      0.263319    44A      0.273204  
      45A      0.291020    46A      0.305878    47A      0.318221  
      48A      0.332941    49A      0.338180    50A      0.345575  
      51A      0.359136    52A      0.381356    53A      0.389634  
      54A      0.400396    55A      0.404407    56A      0.408152  
      57A      0.410047    58A      0.418496    59A      0.424993  
      60A      0.432687    61A      0.437078    62A      0.451248  
      63A      0.463634    64A      0.472862    65A      0.483713  
      66A      0.487751    67A      0.490390    68A      0.494391  
      69A      0.508861    70A      0.511515    71A      0.524958  
      72A      0.533853    73A      0.538007    74A      0.546768  
      75A      0.553637    76A      0.554298    77A      0.565917  
      78A      0.574965    79A      0.588065    80A      0.588675  
      81A      0.603316    82A      0.605720    83A      0.624395  
      84A      0.633442    85A      0.635012    86A      0.647356  
      87A      0.648276    88A      0.659844    89A      0.686431  
      90A      0.699304    91A      0.699725    92A      0.710221  
      93A      0.719018    94A      0.729000    95A      0.734714  
      96A      0.739658    97A      0.789044    98A      0.792811  
      99A      0.825928   100A      0.832596   101A      0.863596  
     102A      0.872862   103A      0.901943   104A      0.921484  
     105A      0.943584   106A      0.950289   107A      0.970098  
     108A      0.973148   109A      0.975025   110A      0.976558  
     111A      0.994443   112A      1.004120   113A      1.006466  
     114A      1.017839   115A      1.026298   116A      1.033443  
     117A      1.038251   118A      1.050950   119A      1.058122  
     120A      1.062921   121A      1.073252   122A      1.083053  
     123A      1.089743   124A      1.097680   125A      1.120825  
     126A      1.122950   127A      1.132404   128A      1.139282  
     129A      1.157390   130A      1.165610   131A      1.168163  
     132A      1.189916   133A      1.193943   134A      1.205265  
     135A      1.210121   136A      1.227570   137A      1.232885  
     138A      1.233758   139A      1.246859   140A      1.282745  
     141A      1.282811   142A      1.293503   143A      1.305656  
     144A      1.311100   145A      1.330717   146A      1.339240  
     147A      1.348427   148A      1.369894   149A      1.378847  
     150A      1.387673   151A      1.391182   152A      1.417899  
     153A      1.438639   154A      1.449831   155A      1.453105  
     156A      1.456278   157A      1.477116   158A      1.479222  
     159A      1.500090   160A      1.520236   161A      1.537929  
     162A      1.541397   163A      1.556325   164A      1.569567  
     165A      1.571212   166A      1.594565   167A      1.609705  
     168A      1.630049   169A      1.673188   170A      1.676906  
     171A      1.685479   172A      1.707214   173A      1.721075  
     174A      1.722734   175A      1.728470   176A      1.751385  
     177A      1.764297   178A      1.790212   179A      1.791261  
     180A      1.806816   181A      1.812345   182A      1.813064  
     183A      1.844615   184A      1.854870   185A      1.867354  
     186A      1.891617   187A      1.909249   188A      1.920816  
     189A      1.929803   190A      1.950680   191A      1.981326  
     192A      1.983070   193A      1.989974   194A      2.035853  
     195A      2.072968   196A      2.093589   197A      2.098532  
     198A      2.112976   199A      2.164259   200A      2.187592  
     201A      2.203562   202A      2.206131   203A      2.248207  
     204A      2.256431   205A      2.329776   206A      2.351157  
     207A      2.362567   208A      2.373901   209A      2.378906  
     210A      2.384039   211A      2.410744   212A      2.423787  
     213A      2.435465   214A      2.461997   215A      2.465617  
     216A      2.475392   217A      2.488654   218A      2.495605  
     219A      2.502104   220A      2.514449   221A      2.533114  
     222A      2.536594   223A      2.555158   224A      2.577176  
     225A      2.591787   226A      2.599130   227A      2.610434  
     228A      2.665807   229A      2.675049   230A      2.724339  
     231A      2.727673   232A      2.743777   233A      2.746428  
     234A      2.763013   235A      2.770513   236A      2.777253  
     237A      2.836636   238A      2.845663   239A      2.868200  
     240A      2.891919   241A      2.900457   242A      2.904662  
     243A      2.943084   244A      2.949559   245A      2.963261  
     246A      2.977227   247A      3.036707   248A      3.056512  
     249A      3.060425   250A      3.081736   251A      3.119026  
     252A      3.130188   253A      3.135531   254A      3.143505  
     255A      3.278701   256A      3.283470   257A      3.314270  
     258A      3.378524   259A      3.447484   260A      3.506448  
     261A      3.533993   262A      3.554914   263A      3.565407  
     264A      3.570878   265A      3.597412   266A      3.650452  
     267A      3.654349   268A      3.684867   269A      3.690516  
     270A      3.720915   271A      3.782813   272A      3.787280  
     273A      3.789460   274A      3.808353   275A      3.826047  
     276A      3.839234   277A      3.864870   278A      3.880987  
     279A      3.907094   280A      3.921618   281A      3.964731  
     282A      3.966358   283A      3.997932   284A      4.022930  
     285A      4.026758   286A      4.034484   287A      4.071649  
     288A      4.110508   289A      4.137880   290A      4.147943  
     291A      4.163060   292A      4.207623   293A      4.225455  
     294A      4.241726   295A      4.303348   296A      4.319453  
     297A      4.331618   298A      4.361816   299A      4.385665  
     300A      4.445453   301A      4.481509   302A      4.553263  
     303A      4.561414   304A      4.584637   305A      4.648640  
     306A      4.705196   307A      4.738282   308A      4.789543  
     309A      4.804211   310A      4.823512   311A      4.898729  
     312A      4.914202   313A      4.945749   314A      4.950417  
     315A      4.976296   316A      4.998621   317A      5.017858  
     318A      5.053464   319A      5.083632   320A      5.124668  
     321A      5.153047   322A      5.173916   323A      5.204069  
     324A      5.212257   325A      5.271114   326A      5.272892  
     327A      5.303575   328A      5.336327   329A      5.344596  
     330A      5.452435   331A      5.494269   332A      5.494887  
     333A      5.513551   334A      5.584169   335A      5.628772  
     336A      5.713627   337A      5.730257   338A      5.826624  
     339A      5.887595   340A      5.946155   341A      6.002049  
     342A      6.052374   343A      6.080479   344A      6.127931  
     345A      6.157087   346A      6.161374   347A      6.291996  
     348A      6.309229   349A      6.349627   350A      6.501205  
     351A      6.844973   352A      6.876953   353A      6.884328  
     354A      6.901627   355A      6.909394   356A      6.914369  
     357A      6.936123   358A      6.954357   359A      7.005922  
     360A      7.043832   361A      7.057976   362A      7.073984  
     363A      7.136407   364A      7.148437   365A      7.149859  
     366A      7.150391   367A      7.157226   368A      7.168722  
     369A      7.193311   370A      7.210184   371A      7.274060  
     372A      7.299559   373A      7.306666   374A      7.350844  
     375A      7.412791   376A      7.448668   377A      7.456046  
     378A      7.534348   379A      7.542961   380A      7.547882  
     381A      7.681353   382A      7.799755   383A      7.815058  
     384A      7.831366   385A      7.885294   386A      7.911616  
     387A      7.915939   388A      8.065674   389A      8.068825  
     390A     12.672991   391A     12.991787   392A     13.030506  
     393A     14.470657   394A     17.211795   395A     18.228286  

    Final Occupation by Irrep:
              A 
    DOCC [    29 ]

  @DF-RHF Final Energy:  -700.92339180133035

   => Energetics <=

    Nuclear Repulsion Energy =            348.4173784258728119
    One-Electron Energy =               -1669.7107649469512580
    Two-Electron Energy =                 620.3699947197480924
    Total Energy =                       -700.9233918013303537

Computation Completed

*** tstop() called on c434-071.stampede2.tacc.utexas.edu at Fri Mar 19 20:01:11 2021
Module time:
	user time   =     211.85 seconds =       3.53 minutes
	system time =      18.16 seconds =       0.30 minutes
	total time  =         17 seconds =       0.28 minutes
Total time:
	user time   =     211.85 seconds =       3.53 minutes
	system time =      18.16 seconds =       0.30 minutes
	total time  =         17 seconds =       0.28 minutes
   => Loading Basis Set <=

    Name: (AUG-CC-PVTZ AUX)
    Role: RIFIT
    Keyword: DF_BASIS_MP2
    atoms 1    entry S          line   666 file /home1/07844/xy3866/miniconda3/envs/p4env/share/psi4/basis/aug-cc-pvtz-ri.gbs 
    atoms 2-4  entry O          line   264 file /home1/07844/xy3866/miniconda3/envs/p4env/share/psi4/basis/aug-cc-pvtz-ri.gbs 
    atoms 5-6  entry C          line   148 file /home1/07844/xy3866/miniconda3/envs/p4env/share/psi4/basis/aug-cc-pvtz-ri.gbs 
    atoms 7-11 entry H          line    30 file /home1/07844/xy3866/miniconda3/envs/p4env/share/psi4/basis/aug-cc-pvtz-ri.gbs 


*** tstart() called on c434-071.stampede2.tacc.utexas.edu
*** at Fri Mar 19 20:01:11 2021


  //>>>>>>>>>>>>>>>>>>>>>>>>>>>>>>>>>>>//
  //               DFMP2               //
  //<<<<<<<<<<<<<<<<<<<<<<<<<<<<<<<<<<<//

	 --------------------------------------------------------
	                          DF-MP2                         
	      2nd-Order Density-Fitted Moller-Plesset Theory     
	              RMP2 Wavefunction,  32 Threads             
	                                                         
	        Rob Parrish, Justin Turney, Andy Simmonett,      
	           Ed Hohenstein, and C. David Sherrill          
	 --------------------------------------------------------

   => Auxiliary Basis Set <=

  Basis Set: (AUG-CC-PVTZ AUX)
    Blend: AUG-CC-PVTZ-RI
    Number of shells: 247
    Number of basis functions: 907
    Number of Cartesian functions: 1146
    Spherical Harmonics?: true
    Max angular momentum: 4

	 --------------------------------------------------------
	                 NBF =   395, NAUX =   907
	 --------------------------------------------------------
	   CLASS    FOCC     OCC    AOCC    AVIR     VIR    FVIR
	   PAIRS       0      29      29     366     366       0
	 --------------------------------------------------------

  DFHelper Memory: AOs need 1.101 GiB; user supplied 22.352 GiB. Using in-core AOs.


         ------------------------------------------------------------
                                     CPHF                           
                                  Rob Parrish                       
         ------------------------------------------------------------

  ==> Geometry <==

    Molecular point group: c1
    Full point group: C1

    Geometry (in Angstrom), charge = -1, multiplicity = 1:

       Center              X                  Y                   Z               Mass       
    ------------   -----------------  -----------------  -----------------  -----------------
         S           -0.442445759401    -0.021469107198    -0.000000000000    31.972071174400
         O           -0.440418759401    -0.843475107198     1.246443000000    15.994914619570
         O           -1.451363559401     1.009439492802    -0.000001000000    15.994914619570
         O           -0.440417759401    -0.843476107198    -1.246442000000    15.994914619570
         C            1.118467240599     0.858159892802    -0.000000000000    12.000000000000
         C            2.321086240599    -0.073177107198    -0.000000000000    12.000000000000
         H            1.113291240599     1.501511892802    -0.884563000000     1.007825032230
         H            1.113290240599     1.501512892802     0.884562000000     1.007825032230
         H            3.248520240599     0.505597892802    -0.000000000000     1.007825032230
         H            2.310253240599    -0.710796107198     0.886502000000     1.007825032230
         H            2.310253240599    -0.710797107198    -0.886501000000     1.007825032230

  Nuclear repulsion =  348.417378425872812
  Reference energy  = -700.923391801330354

  ==> Basis Set <==

  Basis Set: AUG-CC-PVTZ
    Blend: AUG-CC-PVTZ
    Number of shells: 131
    Number of basis functions: 395
    Number of Cartesian functions: 459
    Spherical Harmonics?: true
    Max angular momentum: 3

  ==> CGRSolver (by Rob Parrish) <==

   Number of roots    =         1
   Preconditioning    =    JACOBI
   Convergence cutoff =     1E-06
   Maximum iterations =       100

  ==> CPHFRHamiltonian (by Rob Parrish) <== 

  ==> MemDFJK: Density-Fitted J/K Matrices <==

    J tasked:                   Yes
    K tasked:                   Yes
    wK tasked:                   No
    OpenMP threads:              32
    Memory [MiB]:             22888
    Algorithm:                 Core
    Schwarz Cutoff:           1E-12
    Mask sparsity (%):       1.4318
    Fitting Condition:        1E-10

   => Auxiliary Basis Set <=

  Basis Set: (AUG-CC-PVTZ AUX)
    Blend: AUG-CC-PVTZ-JKFIT
    Number of shells: 262
    Number of basis functions: 896
    Number of Cartesian functions: 1110
    Spherical Harmonics?: true
    Max angular momentum: 4

  ==> CPHF Iterations <==

  => Iterations <=

             Iter  Converged  Remaining    Residual
  CGR           1          0          1   1.075E-01
  CGR           2          0          1   2.521E-02
  CGR           3          0          1   1.102E-02
  CGR           4          0          1   2.835E-03
  CGR           5          0          1   8.020E-04
  CGR           6          0          1   2.924E-04
  CGR           7          0          1   9.002E-05
  CGR           8          0          1   3.016E-05
  CGR           9          0          1   7.914E-06
  CGR          10          0          1   2.156E-06
  CGR          11          1          0   6.358E-07

    CGRSolver converged.

	-----------------------------------------------------------
	 ==================> DF-MP2 Energies <==================== 
	-----------------------------------------------------------
	 Reference Energy          =    -700.9233918013303537 [Eh]
	 Singles Energy            =      -0.0000000000000000 [Eh]
	 Same-Spin Energy          =      -0.3597151061115805 [Eh]
	 Opposite-Spin Energy      =      -1.0598643261942358 [Eh]
	 Correlation Energy        =      -1.4195794323058162 [Eh]
	 Total Energy              =    -702.3429712336361490 [Eh]
	-----------------------------------------------------------
	 ================> DF-SCS-MP2 Energies <================== 
	-----------------------------------------------------------
	 SCS Same-Spin Scale       =       0.3333333333333333 [-]
	 SCS Opposite-Spin Scale   =       1.2000000000000000 [-]
	 SCS Same-Spin Energy      =      -0.1199050353705268 [Eh]
	 SCS Opposite-Spin Energy  =      -1.2718371914330828 [Eh]
	 SCS Correlation Energy    =      -1.3917422268036097 [Eh]
	 SCS Total Energy          =    -702.3151340281339117 [Eh]
	-----------------------------------------------------------



Properties will be evaluated at   0.000000,   0.000000,   0.000000 [a0]

Properties computed using the MP2 density matrix

  Nuclear Dipole Moment: [e a0]
     X:     9.4414      Y:     1.9527      Z:    -0.0000

  Electronic Dipole Moment: [e a0]
     X:    -7.6610      Y:    -1.1805      Z:    -0.0000

  Dipole Moment: [e a0]
     X:     1.7804      Y:     0.7722      Z:    -0.0000     Total:     1.9407

  Dipole Moment: [D]
     X:     4.5253      Y:     1.9627      Z:    -0.0000     Total:     4.9326


*** tstop() called on c434-071.stampede2.tacc.utexas.edu at Fri Mar 19 20:02:54 2021
Module time:
	user time   =     532.44 seconds =       8.87 minutes
	system time =      19.41 seconds =       0.32 minutes
	total time  =        103 seconds =       1.72 minutes
Total time:
	user time   =     745.57 seconds =      12.43 minutes
	system time =      37.66 seconds =       0.63 minutes
	total time  =        120 seconds =       2.00 minutes

    Psi4 stopped on: Friday, 19 March 2021 08:02PM
    Psi4 wall time for execution: 0:01:59.73

*** Psi4 exiting successfully. Buy a developer a beer!
