
    -----------------------------------------------------------------------
          Psi4: An Open-Source Ab Initio Electronic Structure Package
                               Psi4 1.3.2 release

                         Git: Rev {HEAD} ecbda83 


    R. M. Parrish, L. A. Burns, D. G. A. Smith, A. C. Simmonett,
    A. E. DePrince III, E. G. Hohenstein, U. Bozkaya, A. Yu. Sokolov,
    R. Di Remigio, R. M. Richard, J. F. Gonthier, A. M. James,
    H. R. McAlexander, A. Kumar, M. Saitow, X. Wang, B. P. Pritchard,
    P. Verma, H. F. Schaefer III, K. Patkowski, R. A. King, E. F. Valeev,
    F. A. Evangelista, J. M. Turney, T. D. Crawford, and C. D. Sherrill,
    J. Chem. Theory Comput. 13(7) pp 3185--3197 (2017).
    (doi: 10.1021/acs.jctc.7b00174)


                         Additional Contributions by
    P. Kraus, H. Kruse, M. H. Lechner, M. C. Schieber, R. A. Shaw,
    A. Alenaizan, R. Galvelis, Z. L. Glick, S. Lehtola, and J. P. Misiewicz

    -----------------------------------------------------------------------


    Psi4 started on: Wednesday, 04 November 2020 10:31AM

    Process ID: 58028
    Host:       node98.bme.utexas.edu
    PSIDATADIR: /home/xy3866/psi4conda/share/psi4
    Memory:     500.0 MiB
    Threads:    8
    
  ==> Input File <==

--------------------------------------------------------------------------
#psi4
#
memory 32 gb

molecule  {
-1 1
  S        0.5074197    -0.1107510     0.0000007
  O        0.4874240    -0.8647860    -1.2512880
  O        1.5758940     1.0121500    -0.0000060
  O        0.4874170    -0.8647610     1.2513040
  C       -1.0236020     0.8530730    -0.0000110
  C       -2.2227860    -0.0817370     0.0000010
  H       -1.0143060     1.4942760     0.8867830
  H       -1.0143040     1.4942500    -0.8868250
  H       -3.1679310     0.4744510    -0.0000100
  H       -2.1864950    -0.7220660    -0.8842360
  H       -2.1864990    -0.7220390     0.8842580
units angstrom
no_reorient  #important for SAPT in psi4, default
symmetry c1  #important for SAPT in psi4, default
}

set PROPERTIES_ORIGIN ["COM"]
properties('MP2/aug-cc-pvtz', properties = ['dipole'])
--------------------------------------------------------------------------

  Memory set to  29.802 GiB by Python driver.
    SCF Algorithm Type (re)set to DF.

*** tstart() called on node98.bme.utexas.edu
*** at Wed Nov  4 10:31:41 2020

   => Loading Basis Set <=

    Name: AUG-CC-PVTZ
    Role: ORBITAL
    Keyword: BASIS
    atoms 1    entry S          line   902 file /home/xy3866/psi4conda/share/psi4/basis/aug-cc-pvtz.gbs 
    atoms 2-4  entry O          line   327 file /home/xy3866/psi4conda/share/psi4/basis/aug-cc-pvtz.gbs 
    atoms 5-6  entry C          line   235 file /home/xy3866/psi4conda/share/psi4/basis/aug-cc-pvtz.gbs 
    atoms 7-11 entry H          line    36 file /home/xy3866/psi4conda/share/psi4/basis/aug-cc-pvtz.gbs 


         ---------------------------------------------------------
                                   SCF
               by Justin Turney, Rob Parrish, Andy Simmonett
                          and Daniel G. A. Smith
                              RHF Reference
                        8 Threads,  30517 MiB Core
         ---------------------------------------------------------

  ==> Geometry <==

    Molecular point group: c1
    Full point group: C1

    Geometry (in Angstrom), charge = -1, multiplicity = 1:

       Center              X                  Y                   Z               Mass       
    ------------   -----------------  -----------------  -----------------  -----------------
         S            0.430160176654    -0.076575957582     0.000000405541    31.972071174400
         O            0.410164476654    -0.830610957582    -1.251288294459    15.994914619570
         O            1.498634476654     1.046325042418    -0.000006294459    15.994914619570
         O            0.410157476654    -0.830585957582     1.251303705541    15.994914619570
         C           -1.100861523346     0.887248042418    -0.000011294459    12.000000000000
         C           -2.300045523346    -0.047561957582     0.000000705541    12.000000000000
         H           -1.091565523346     1.528451042418     0.886782705541     1.007825032230
         H           -1.091563523346     1.528425042418    -0.886825294459     1.007825032230
         H           -3.245190523346     0.508626042418    -0.000010294459     1.007825032230
         H           -2.263754523346    -0.687890957582    -0.884236294459     1.007825032230
         H           -2.263758523346    -0.687863957582     0.884257705541     1.007825032230

  Running in c1 symmetry.

  Rotational constants: A =      0.15550  B =      0.08352  C =      0.08273 [cm^-1]
  Rotational constants: A =   4661.87908  B =   2503.76977  C =   2480.31484 [MHz]
  Nuclear repulsion =  346.784983549694630

  Charge       = -1
  Multiplicity = 1
  Electrons    = 58
  Nalpha       = 29
  Nbeta        = 29

  ==> Algorithm <==

  SCF Algorithm Type is DF.
  DIIS enabled.
  MOM disabled.
  Fractional occupation disabled.
  Guess Type is SAD.
  Energy threshold   = 1.00e-10
  Density threshold  = 1.00e-10
  Integral threshold = 0.00e+00

  ==> Primary Basis <==

  Basis Set: AUG-CC-PVTZ
    Blend: AUG-CC-PVTZ
    Number of shells: 131
    Number of basis function: 395
    Number of Cartesian functions: 459
    Spherical Harmonics?: true
    Max angular momentum: 3

   => Loading Basis Set <=

    Name: (AUG-CC-PVTZ AUX)
    Role: JKFIT
    Keyword: DF_BASIS_SCF
    atoms 1    entry S          line   730 file /home/xy3866/psi4conda/share/psi4/basis/aug-cc-pvtz-jkfit.gbs 
    atoms 2-4  entry O          line   286 file /home/xy3866/psi4conda/share/psi4/basis/aug-cc-pvtz-jkfit.gbs 
    atoms 5-6  entry C          line   162 file /home/xy3866/psi4conda/share/psi4/basis/aug-cc-pvtz-jkfit.gbs 
    atoms 7-11 entry H          line    70 file /home/xy3866/psi4conda/share/psi4/basis/aug-cc-pvtz-jkfit.gbs 

  ==> Pre-Iterations <==

   -------------------------------------------------------
    Irrep   Nso     Nmo     Nalpha   Nbeta   Ndocc  Nsocc
   -------------------------------------------------------
     A        395     395       0       0       0       0
   -------------------------------------------------------
    Total     395     395      29      29      29       0
   -------------------------------------------------------

  ==> Integral Setup <==

  DFHelper Memory: AOs need 1.073 GiB; user supplied 22.352 GiB. Using in-core AOs.

  ==> MemDFJK: Density-Fitted J/K Matrices <==

    J tasked:                   Yes
    K tasked:                   Yes
    wK tasked:                   No
    OpenMP threads:               8
    Memory [MiB]:             22888
    Algorithm:                 Core
    Schwarz Cutoff:           1E-12
    Mask sparsity (%):       1.4241
    Fitting Condition:        1E-10

   => Auxiliary Basis Set <=

  Basis Set: (AUG-CC-PVTZ AUX)
    Blend: AUG-CC-PVTZ-JKFIT
    Number of shells: 262
    Number of basis function: 896
    Number of Cartesian functions: 1110
    Spherical Harmonics?: true
    Max angular momentum: 4

  Minimum eigenvalue in the overlap matrix is 1.7997004983E-05.
  Using Symmetric Orthogonalization.

  SCF Guess: Superposition of Atomic Densities via on-the-fly atomic UHF.

  ==> Iterations <==

                           Total Energy        Delta E     RMS |[F,P]|

   @DF-RHF iter SAD:  -700.44903951632648   -7.00449e+02   0.00000e+00 
   @DF-RHF iter   1:  -700.60200131074407   -1.52962e-01   2.19865e-03 DIIS
   @DF-RHF iter   2:  -700.80265551047125   -2.00654e-01   1.47359e-03 DIIS
   @DF-RHF iter   3:  -700.91180136092908   -1.09146e-01   1.70247e-04 DIIS
   @DF-RHF iter   4:  -700.91445730529756   -2.65594e-03   6.71755e-05 DIIS
   @DF-RHF iter   5:  -700.91492889040160   -4.71585e-04   1.55038e-05 DIIS
   @DF-RHF iter   6:  -700.91495416453404   -2.52741e-05   6.57342e-06 DIIS
   @DF-RHF iter   7:  -700.91495837516675   -4.21063e-06   1.92594e-06 DIIS
   @DF-RHF iter   8:  -700.91495893860167   -5.63435e-07   5.80136e-07 DIIS
   @DF-RHF iter   9:  -700.91495900274992   -6.41483e-08   2.07268e-07 DIIS
   @DF-RHF iter  10:  -700.91495901168139   -8.93147e-09   5.27114e-08 DIIS
   @DF-RHF iter  11:  -700.91495901228632   -6.04928e-10   1.22498e-08 DIIS
   @DF-RHF iter  12:  -700.91495901231724   -3.09228e-11   3.57444e-09 DIIS
   @DF-RHF iter  13:  -700.91495901231804   -7.95808e-13   1.18136e-09 DIIS
   @DF-RHF iter  14:  -700.91495901231804    0.00000e+00   4.44869e-10 DIIS
   @DF-RHF iter  15:  -700.91495901232088   -2.84217e-12   1.19078e-10 DIIS
   @DF-RHF iter  16:  -700.91495901231929    1.59162e-12   3.60180e-11 DIIS
  Energy and wave function converged.


  ==> Post-Iterations <==

    Orbital Energies [Eh]
    ---------------------

    Doubly Occupied:                                                      

       1A    -91.994088     2A    -20.345259     3A    -20.345236  
       4A    -20.321843     5A    -11.097140     6A    -11.089529  
       7A     -8.956382     8A     -6.641664     9A     -6.641488  
      10A     -6.640961    11A     -1.260652    12A     -1.133971  
      13A     -1.082051    14A     -0.905429    15A     -0.737834  
      16A     -0.605612    17A     -0.500761    18A     -0.490252  
      19A     -0.454911    20A     -0.448632    21A     -0.412233  
      22A     -0.384690    23A     -0.364660    24A     -0.320768  
      25A     -0.316022    26A     -0.285703    27A     -0.264060  
      28A     -0.241271    29A     -0.232455  

    Virtual:                                                              

      30A      0.112523    31A      0.132355    32A      0.134239  
      33A      0.145089    34A      0.153934    35A      0.197941  
      36A      0.200015    37A      0.208793    38A      0.211994  
      39A      0.229185    40A      0.238359    41A      0.242944  
      42A      0.243608    43A      0.264393    44A      0.271523  
      45A      0.291876    46A      0.303019    47A      0.321123  
      48A      0.329992    49A      0.336634    50A      0.346101  
      51A      0.356967    52A      0.380876    53A      0.391305  
      54A      0.398818    55A      0.403981    56A      0.407373  
      57A      0.412775    58A      0.421216    59A      0.424101  
      60A      0.433560    61A      0.438205    62A      0.449243  
      63A      0.459704    64A      0.472558    65A      0.483737  
      66A      0.484342    67A      0.489991    68A      0.496081  
      69A      0.500803    70A      0.507291    71A      0.522055  
      72A      0.535300    73A      0.535927    74A      0.545602  
      75A      0.549665    76A      0.558623    77A      0.568737  
      78A      0.571345    79A      0.588408    80A      0.589546  
      81A      0.599445    82A      0.606435    83A      0.624633  
      84A      0.630218    85A      0.634976    86A      0.648263  
      87A      0.649499    88A      0.656607    89A      0.682349  
      90A      0.695201    91A      0.700146    92A      0.706624  
      93A      0.719266    94A      0.725681    95A      0.734149  
      96A      0.737173    97A      0.787206    98A      0.788438  
      99A      0.819873   100A      0.831613   101A      0.862442  
     102A      0.871428   103A      0.902819   104A      0.921671  
     105A      0.942952   106A      0.947532   107A      0.971155  
     108A      0.972981   109A      0.975692   110A      0.976541  
     111A      0.987502   112A      0.993109   113A      1.007369  
     114A      1.014753   115A      1.029343   116A      1.034807  
     117A      1.038070   118A      1.055129   119A      1.055679  
     120A      1.057799   121A      1.078632   122A      1.089280  
     123A      1.095119   124A      1.095124   125A      1.118651  
     126A      1.121929   127A      1.131837   128A      1.140692  
     129A      1.156955   130A      1.167427   131A      1.168863  
     132A      1.185598   133A      1.191659   134A      1.203213  
     135A      1.209016   136A      1.224836   137A      1.229675  
     138A      1.231879   139A      1.248346   140A      1.281118  
     141A      1.285290   142A      1.295247   143A      1.303180  
     144A      1.311810   145A      1.319584   146A      1.342825  
     147A      1.343503   148A      1.372308   149A      1.375051  
     150A      1.382310   151A      1.383363   152A      1.413301  
     153A      1.427873   154A      1.446338   155A      1.454053  
     156A      1.456352   157A      1.474452   158A      1.479285  
     159A      1.491883   160A      1.519777   161A      1.531819  
     162A      1.542157   163A      1.559754   164A      1.563116  
     165A      1.565661   166A      1.591551   167A      1.614906  
     168A      1.627198   169A      1.668145   170A      1.669414  
     171A      1.672581   172A      1.718138   173A      1.721967  
     174A      1.733728   175A      1.736653   176A      1.753394  
     177A      1.771647   178A      1.784512   179A      1.788378  
     180A      1.808011   181A      1.813170   182A      1.822711  
     183A      1.836813   184A      1.860316   185A      1.862766  
     186A      1.888589   187A      1.907482   188A      1.925754  
     189A      1.936258   190A      1.953544   191A      1.981376  
     192A      1.987680   193A      1.991274   194A      2.038476  
     195A      2.058331   196A      2.093256   197A      2.098411  
     198A      2.115338   199A      2.154976   200A      2.185676  
     201A      2.191908   202A      2.217359   203A      2.243414  
     204A      2.250278   205A      2.322278   206A      2.354317  
     207A      2.361907   208A      2.369813   209A      2.377867  
     210A      2.381193   211A      2.398672   212A      2.422109  
     213A      2.432642   214A      2.454022   215A      2.458209  
     216A      2.464102   217A      2.485945   218A      2.490697  
     219A      2.505453   220A      2.514898   221A      2.530966  
     222A      2.531763   223A      2.549511   224A      2.595587  
     225A      2.600932   226A      2.604022   227A      2.611296  
     228A      2.653984   229A      2.671955   230A      2.716816  
     231A      2.720969   232A      2.739528   233A      2.747701  
     234A      2.749672   235A      2.767026   236A      2.768206  
     237A      2.828499   238A      2.840994   239A      2.854484  
     240A      2.875345   241A      2.887933   242A      2.891193  
     243A      2.930839   244A      2.932454   245A      2.954954  
     246A      2.969827   247A      3.019208   248A      3.040274  
     249A      3.045041   250A      3.093820   251A      3.106827  
     252A      3.115728   253A      3.120110   254A      3.134858  
     255A      3.261317   256A      3.269908   257A      3.316574  
     258A      3.373564   259A      3.444598   260A      3.496094  
     261A      3.506176   262A      3.543040   263A      3.561452  
     264A      3.570962   265A      3.600134   266A      3.637578  
     267A      3.669392   268A      3.678292   269A      3.692949  
     270A      3.705140   271A      3.767664   272A      3.786248  
     273A      3.796047   274A      3.804681   275A      3.811573  
     276A      3.827953   277A      3.845415   278A      3.871850  
     279A      3.899308   280A      3.923165   281A      3.939622  
     282A      3.980021   283A      3.982123   284A      4.012839  
     285A      4.035430   286A      4.041345   287A      4.085262  
     288A      4.092751   289A      4.127468   290A      4.142034  
     291A      4.145299   292A      4.216182   293A      4.227423  
     294A      4.236359   295A      4.297930   296A      4.324572  
     297A      4.340279   298A      4.368635   299A      4.388917  
     300A      4.437598   301A      4.493090   302A      4.548757  
     303A      4.552095   304A      4.584340   305A      4.630707  
     306A      4.700912   307A      4.720774   308A      4.786500  
     309A      4.788516   310A      4.816599   311A      4.874619  
     312A      4.915426   313A      4.944014   314A      4.967791  
     315A      4.973392   316A      5.001697   317A      5.005575  
     318A      5.060059   319A      5.070572   320A      5.141153  
     321A      5.151641   322A      5.164949   323A      5.187201  
     324A      5.190317   325A      5.271760   326A      5.278649  
     327A      5.303987   328A      5.334558   329A      5.341452  
     330A      5.453809   331A      5.485945   332A      5.496235  
     333A      5.515071   334A      5.589618   335A      5.625773  
     336A      5.711301   337A      5.727281   338A      5.831062  
     339A      5.875044   340A      5.937504   341A      5.975508  
     342A      6.039208   343A      6.052253   344A      6.123065  
     345A      6.160081   346A      6.172772   347A      6.282539  
     348A      6.302672   349A      6.349237   350A      6.509382  
     351A      6.843408   352A      6.868831   353A      6.881946  
     354A      6.895287   355A      6.909579   356A      6.913462  
     357A      6.932613   358A      6.948057   359A      7.012753  
     360A      7.031519   361A      7.056889   362A      7.070797  
     363A      7.103124   364A      7.134348   365A      7.142516  
     366A      7.152011   367A      7.164801   368A      7.165509  
     369A      7.180242   370A      7.186931   371A      7.283011  
     372A      7.284551   373A      7.302482   374A      7.339506  
     375A      7.420259   376A      7.449993   377A      7.452237  
     378A      7.518290   379A      7.528040   380A      7.533060  
     381A      7.662795   382A      7.792510   383A      7.795712  
     384A      7.856312   385A      7.860577   386A      7.906754  
     387A      7.928031   388A      8.025351   389A      8.036805  
     390A     12.448765   391A     12.855061   392A     12.957541  
     393A     14.397336   394A     17.207336   395A     18.213567  

    Final Occupation by Irrep:
              A 
    DOCC [    29 ]

  @DF-RHF Final Energy:  -700.91495901231929

   => Energetics <=

    Nuclear Repulsion Energy =            346.7849835496946298
    One-Electron Energy =               -1666.3687701777603252
    Two-Electron Energy =                 618.6688276157465225
    Total Energy =                       -700.9149590123192866

Computation Completed

*** tstop() called on node98.bme.utexas.edu at Wed Nov  4 10:31:49 2020
Module time:
	user time   =      56.37 seconds =       0.94 minutes
	system time =       1.38 seconds =       0.02 minutes
	total time  =          8 seconds =       0.13 minutes
Total time:
	user time   =      56.37 seconds =       0.94 minutes
	system time =       1.38 seconds =       0.02 minutes
	total time  =          8 seconds =       0.13 minutes
   => Loading Basis Set <=

    Name: (AUG-CC-PVTZ AUX)
    Role: RIFIT
    Keyword: DF_BASIS_MP2
    atoms 1    entry S          line   666 file /home/xy3866/psi4conda/share/psi4/basis/aug-cc-pvtz-ri.gbs 
    atoms 2-4  entry O          line   264 file /home/xy3866/psi4conda/share/psi4/basis/aug-cc-pvtz-ri.gbs 
    atoms 5-6  entry C          line   148 file /home/xy3866/psi4conda/share/psi4/basis/aug-cc-pvtz-ri.gbs 
    atoms 7-11 entry H          line    30 file /home/xy3866/psi4conda/share/psi4/basis/aug-cc-pvtz-ri.gbs 


*** tstart() called on node98.bme.utexas.edu
*** at Wed Nov  4 10:31:49 2020


  //>>>>>>>>>>>>>>>>>>>>>>>>>>>>>>>>>>>//
  //               DFMP2               //
  //<<<<<<<<<<<<<<<<<<<<<<<<<<<<<<<<<<<//

	 --------------------------------------------------------
	                          DF-MP2                         
	      2nd-Order Density-Fitted Moller-Plesset Theory     
	              RMP2 Wavefunction,   8 Threads             
	                                                         
	        Rob Parrish, Justin Turney, Andy Simmonett,      
	           Ed Hohenstein, and C. David Sherrill          
	 --------------------------------------------------------

   => Auxiliary Basis Set <=

  Basis Set: (AUG-CC-PVTZ AUX)
    Blend: AUG-CC-PVTZ-RI
    Number of shells: 247
    Number of basis function: 907
    Number of Cartesian functions: 1146
    Spherical Harmonics?: true
    Max angular momentum: 4

	 --------------------------------------------------------
	                 NBF =   395, NAUX =   907
	 --------------------------------------------------------
	   CLASS    FOCC     OCC    AOCC    AVIR     VIR    FVIR
	   PAIRS       0      29      29     366     366       0
	 --------------------------------------------------------

  DFHelper Memory: AOs need 1.073 GiB; user supplied 22.352 GiB. Using in-core AOs.


         ------------------------------------------------------------
                                     CPHF                           
                                  Rob Parrish                       
         ------------------------------------------------------------

  ==> Geometry <==

    Molecular point group: c1
    Full point group: C1

    Geometry (in Angstrom), charge = -1, multiplicity = 1:

       Center              X                  Y                   Z               Mass       
    ------------   -----------------  -----------------  -----------------  -----------------
         S            0.430160176654    -0.076575957582     0.000000405541    31.972071174400
         O            0.410164476654    -0.830610957582    -1.251288294459    15.994914619570
         O            1.498634476654     1.046325042418    -0.000006294459    15.994914619570
         O            0.410157476654    -0.830585957582     1.251303705541    15.994914619570
         C           -1.100861523346     0.887248042418    -0.000011294459    12.000000000000
         C           -2.300045523346    -0.047561957582     0.000000705541    12.000000000000
         H           -1.091565523346     1.528451042418     0.886782705541     1.007825032230
         H           -1.091563523346     1.528425042418    -0.886825294459     1.007825032230
         H           -3.245190523346     0.508626042418    -0.000010294459     1.007825032230
         H           -2.263754523346    -0.687890957582    -0.884236294459     1.007825032230
         H           -2.263758523346    -0.687863957582     0.884257705541     1.007825032230

  Nuclear repulsion =  346.784983549694630
  Reference energy  = -700.914959012319287

  ==> Basis Set <==

  Basis Set: AUG-CC-PVTZ
    Blend: AUG-CC-PVTZ
    Number of shells: 131
    Number of basis function: 395
    Number of Cartesian functions: 459
    Spherical Harmonics?: true
    Max angular momentum: 3

  ==> CGRSolver (by Rob Parrish) <==

   Number of roots    =         1
   Preconditioning    =    JACOBI
   Convergence cutoff =     1E-06
   Maximum iterations =       100

  ==> CPHFRHamiltonian (by Rob Parrish) <== 

  ==> MemDFJK: Density-Fitted J/K Matrices <==

    J tasked:                   Yes
    K tasked:                   Yes
    wK tasked:                   No
    OpenMP threads:               8
    Memory [MiB]:             22888
    Algorithm:                 Core
    Schwarz Cutoff:           1E-12
    Mask sparsity (%):       1.4241
    Fitting Condition:        1E-10

   => Auxiliary Basis Set <=

  Basis Set: (AUG-CC-PVTZ AUX)
    Blend: AUG-CC-PVTZ-JKFIT
    Number of shells: 262
    Number of basis function: 896
    Number of Cartesian functions: 1110
    Spherical Harmonics?: true
    Max angular momentum: 4

  ==> CPHF Iterations <==

  => Iterations <=

             Iter  Converged  Remaining    Residual
  CGR           1          0          1   1.133E-01
  CGR           2          0          1   2.760E-02
  CGR           3          0          1   1.265E-02
  CGR           4          0          1   3.579E-03
  CGR           5          0          1   1.405E-03
  CGR           6          0          1   3.991E-04
  CGR           7          0          1   1.252E-04
  CGR           8          0          1   4.210E-05
  CGR           9          0          1   1.028E-05
  CGR          10          0          1   2.793E-06
  CGR          11          1          0   8.198E-07

    CGRSolver converged.

	-----------------------------------------------------------
	 ==================> DF-MP2 Energies <==================== 
	-----------------------------------------------------------
	 Reference Energy          =    -700.9149590123192866 [Eh]
	 Singles Energy            =      -0.0000000000000000 [Eh]
	 Same-Spin Energy          =      -0.3608263851366358 [Eh]
	 Opposite-Spin Energy      =      -1.0629094999180733 [Eh]
	 Correlation Energy        =      -1.4237358850547090 [Eh]
	 Total Energy              =    -702.3386948973740118 [Eh]
	-----------------------------------------------------------
	 ================> DF-SCS-MP2 Energies <================== 
	-----------------------------------------------------------
	 SCS Same-Spin Scale       =       0.3333333333333333 [-]
	 SCS Opposite-Spin Scale   =       1.2000000000000000 [-]
	 SCS Same-Spin Energy      =      -0.1202754617122119 [Eh]
	 SCS Opposite-Spin Energy  =      -1.2754913999016879 [Eh]
	 SCS Correlation Energy    =      -1.3957668616138998 [Eh]
	 SCS Total Energy          =    -702.3107258739331655 [Eh]
	-----------------------------------------------------------



Properties will be evaluated at   0.000000,  -0.000000,   0.000000 [a0]

Properties computed using the MP2 density matrix

  Nuclear Dipole Moment: [e a0]
     X:    -9.3108      Y:     2.0478      Z:    -0.0000

  Electronic Dipole Moment: [e a0]
     X:     7.4102      Y:    -1.6478      Z:     0.0000

  Dipole Moment: [e a0]
     X:    -1.9006      Y:     0.4000      Z:    -0.0000     Total:     1.9423

  Dipole Moment: [D]
     X:    -4.8309      Y:     1.0168      Z:    -0.0000     Total:     4.9367


*** tstop() called on node98.bme.utexas.edu at Wed Nov  4 10:32:15 2020
Module time:
	user time   =     173.77 seconds =       2.90 minutes
	system time =       3.81 seconds =       0.06 minutes
	total time  =         26 seconds =       0.43 minutes
Total time:
	user time   =     231.00 seconds =       3.85 minutes
	system time =       5.21 seconds =       0.09 minutes
	total time  =         34 seconds =       0.57 minutes

    Psi4 stopped on: Wednesday, 04 November 2020 10:32AM
    Psi4 wall time for execution: 0:00:34.81

*** Psi4 exiting successfully. Buy a developer a beer!
