7027                                                                    
Freq      RMP2-FC                                                     6-31G(d)            
Number of atoms                            I               22
Info1-9                                    I   N=           9
          34          32        1002           0           0         100
           6           2           1
Charge                                     I                0
Multiplicity                               I                1
Number of electrons                        I               94
Number of alpha electrons                  I               47
Number of beta electrons                   I               47
Number of basis functions                  I              200
Number of independent functions            I              200
Number of point charges in /Mol/           I                0
Number of translation vectors              I                0
Atomic numbers                             I   N=          22
           8           8           8           8           8           8
           6           6           6           6           6           6
           1           1           1           1           1           1
           1           1           1           1
Nuclear charges                            R   N=          22
  8.00000000E+00  8.00000000E+00  8.00000000E+00  8.00000000E+00  8.00000000E+00
  8.00000000E+00  6.00000000E+00  6.00000000E+00  6.00000000E+00  6.00000000E+00
  6.00000000E+00  6.00000000E+00  1.00000000E+00  1.00000000E+00  1.00000000E+00
  1.00000000E+00  1.00000000E+00  1.00000000E+00  1.00000000E+00  1.00000000E+00
  1.00000000E+00  1.00000000E+00
Current cartesian coordinates              R   N=          66
  6.51059302E-01 -2.81855181E+00 -2.42774436E-01  2.57392411E+00  3.87311854E+00
 -7.90830299E-01 -2.39009943E+00  4.41159449E+00  8.83560086E-01 -5.55399541E+00
  8.03787183E-02 -3.16364781E-01  5.44112865E+00 -1.32529069E+00  1.80969572E+00
 -3.22567941E+00 -4.48188633E+00  1.25968239E-02  1.22015288E+00  1.72803077E+00
  1.34510904E-01 -1.55737203E+00  2.20351519E+00 -3.79707503E-01  2.05411151E+00
 -6.61240014E-01 -1.21622551E+00 -3.06057706E+00 -1.17696132E-02  6.24542249E-01
  4.81210031E+00 -1.30352804E+00 -8.04378692E-01 -1.90579385E+00 -2.59965819E+00
  2.47655777E-02  1.50654660E+00  1.49609430E+00  2.17459112E+00 -1.86104475E+00
  2.35583534E+00 -2.43455196E+00  1.67401017E+00 -4.87148575E-01 -3.25027847E+00
 -3.03592498E+00  1.41392532E-01  2.70697623E+00  5.98608707E+00  1.47967025E-01
 -1.68658424E+00  5.23260633E+00 -3.11989553E+00 -1.71341144E+00  4.11605763E+00
  4.01386429E+00  2.02183113E-01 -1.21447112E+00  5.73257070E+00  3.60210556E-01
 -6.23818584E+00 -1.61696450E+00 -6.54824782E-02  4.48788591E+00 -2.71071951E+00
  2.55824048E+00
Force Field                                I                0
Int Atom Types                             I   N=          22
           0           0           0           0           0           0
           0           0           0           0           0           0
           0           0           0           0           0           0
           0           0           0           0
MM charges                                 R   N=          22
  0.00000000E+00  0.00000000E+00  0.00000000E+00  0.00000000E+00  0.00000000E+00
  0.00000000E+00  0.00000000E+00  0.00000000E+00  0.00000000E+00  0.00000000E+00
  0.00000000E+00  0.00000000E+00  0.00000000E+00  0.00000000E+00  0.00000000E+00
  0.00000000E+00  0.00000000E+00  0.00000000E+00  0.00000000E+00  0.00000000E+00
  0.00000000E+00  0.00000000E+00
Integer atomic weights                     I   N=          22
          16          16          16          16          16          16
          12          12          12          12          12          12
           1           1           1           1           1           1
           1           1           1           1
Real atomic weights                        R   N=          22
  1.59949146E+01  1.59949146E+01  1.59949146E+01  1.59949146E+01  1.59949146E+01
  1.59949146E+01  1.20000000E+01  1.20000000E+01  1.20000000E+01  1.20000000E+01
  1.20000000E+01  1.20000000E+01  1.00782504E+00  1.00782504E+00  1.00782504E+00
  1.00782504E+00  1.00782504E+00  1.00782504E+00  1.00782504E+00  1.00782504E+00
  1.00782504E+00  1.00782504E+00
Atom fragment info                         I   N=          22
           0           0           0           0           0           0
           0           0           0           0           0           0
           0           0           0           0           0           0
           0           0           0           0
Atom residue num                           I   N=          22
           0           0           0           0           0           0
           0           0           0           0           0           0
           0           0           0           0           0           0
           0           0           0           0
Nuclear spins                              I   N=          22
           0           0           0           0           0           0
           0           0           0           0           0           0
           1           1           1           1           1           1
           1           1           1           1
Nuclear ZEff                               R   N=          22
 -5.60000000E+00 -5.60000000E+00 -5.60000000E+00 -5.60000000E+00 -5.60000000E+00
 -5.60000000E+00 -3.60000000E+00 -3.60000000E+00 -3.60000000E+00 -3.60000000E+00
 -3.60000000E+00 -3.60000000E+00 -1.00000000E+00 -1.00000000E+00 -1.00000000E+00
 -1.00000000E+00 -1.00000000E+00 -1.00000000E+00 -1.00000000E+00 -1.00000000E+00
 -1.00000000E+00 -1.00000000E+00
Nuclear QMom                               R   N=          22
  0.00000000E+00  0.00000000E+00  0.00000000E+00  0.00000000E+00  0.00000000E+00
  0.00000000E+00  0.00000000E+00  0.00000000E+00  0.00000000E+00  0.00000000E+00
  0.00000000E+00  0.00000000E+00  0.00000000E+00  0.00000000E+00  0.00000000E+00
  0.00000000E+00  0.00000000E+00  0.00000000E+00  0.00000000E+00  0.00000000E+00
  0.00000000E+00  0.00000000E+00
Nuclear GFac                               R   N=          22
  0.00000000E+00  0.00000000E+00  0.00000000E+00  0.00000000E+00  0.00000000E+00
  0.00000000E+00  0.00000000E+00  0.00000000E+00  0.00000000E+00  0.00000000E+00
  0.00000000E+00  0.00000000E+00  2.79284600E+00  2.79284600E+00  2.79284600E+00
  2.79284600E+00  2.79284600E+00  2.79284600E+00  2.79284600E+00  2.79284600E+00
  2.79284600E+00  2.79284600E+00
MicOpt                                     I   N=          22
          -1          -1          -1          -1          -1          -1
          -1          -1          -1          -1          -1          -1
          -1          -1          -1          -1          -1          -1
          -1          -1          -1          -1
Number of contracted shells                I               68
Number of primitive shells                 I              172
Pure/Cartesian d shells                    I                1
Pure/Cartesian f shells                    I                0
Highest angular momentum                   I                2
Largest degree of contraction              I                6
Shell types                                I   N=          68
           0          -1          -1           2           0          -1
          -1           2           0          -1          -1           2
           0          -1          -1           2           0          -1
          -1           2           0          -1          -1           2
           0          -1          -1           2           0          -1
          -1           2           0          -1          -1           2
           0          -1          -1           2           0          -1
          -1           2           0          -1          -1           2
           0           0           0           0           0           0
           0           0           0           0           0           0
           0           0           0           0           0           0
           0           0
Number of primitives per shell             I   N=          68
           6           3           1           1           6           3
           1           1           6           3           1           1
           6           3           1           1           6           3
           1           1           6           3           1           1
           6           3           1           1           6           3
           1           1           6           3           1           1
           6           3           1           1           6           3
           1           1           6           3           1           1
           3           1           3           1           3           1
           3           1           3           1           3           1
           3           1           3           1           3           1
           3           1
Shell to atom map                          I   N=          68
           1           1           1           1           2           2
           2           2           3           3           3           3
           4           4           4           4           5           5
           5           5           6           6           6           6
           7           7           7           7           8           8
           8           8           9           9           9           9
          10          10          10          10          11          11
          11          11          12          12          12          12
          13          13          14          14          15          15
          16          16          17          17          18          18
          19          19          20          20          21          21
          22          22
Primitive exponents                        R   N=         172
  5.48467166E+03  8.25234946E+02  1.88046958E+02  5.29645000E+01  1.68975704E+01
  5.79963534E+00  1.55396162E+01  3.59993359E+00  1.01376175E+00  2.70005823E-01
  8.00000000E-01  5.48467166E+03  8.25234946E+02  1.88046958E+02  5.29645000E+01
  1.68975704E+01  5.79963534E+00  1.55396162E+01  3.59993359E+00  1.01376175E+00
  2.70005823E-01  8.00000000E-01  5.48467166E+03  8.25234946E+02  1.88046958E+02
  5.29645000E+01  1.68975704E+01  5.79963534E+00  1.55396162E+01  3.59993359E+00
  1.01376175E+00  2.70005823E-01  8.00000000E-01  5.48467166E+03  8.25234946E+02
  1.88046958E+02  5.29645000E+01  1.68975704E+01  5.79963534E+00  1.55396162E+01
  3.59993359E+00  1.01376175E+00  2.70005823E-01  8.00000000E-01  5.48467166E+03
  8.25234946E+02  1.88046958E+02  5.29645000E+01  1.68975704E+01  5.79963534E+00
  1.55396162E+01  3.59993359E+00  1.01376175E+00  2.70005823E-01  8.00000000E-01
  5.48467166E+03  8.25234946E+02  1.88046958E+02  5.29645000E+01  1.68975704E+01
  5.79963534E+00  1.55396162E+01  3.59993359E+00  1.01376175E+00  2.70005823E-01
  8.00000000E-01  3.04752488E+03  4.57369518E+02  1.03948685E+02  2.92101553E+01
  9.28666296E+00  3.16392696E+00  7.86827235E+00  1.88128854E+00  5.44249258E-01
  1.68714478E-01  8.00000000E-01  3.04752488E+03  4.57369518E+02  1.03948685E+02
  2.92101553E+01  9.28666296E+00  3.16392696E+00  7.86827235E+00  1.88128854E+00
  5.44249258E-01  1.68714478E-01  8.00000000E-01  3.04752488E+03  4.57369518E+02
  1.03948685E+02  2.92101553E+01  9.28666296E+00  3.16392696E+00  7.86827235E+00
  1.88128854E+00  5.44249258E-01  1.68714478E-01  8.00000000E-01  3.04752488E+03
  4.57369518E+02  1.03948685E+02  2.92101553E+01  9.28666296E+00  3.16392696E+00
  7.86827235E+00  1.88128854E+00  5.44249258E-01  1.68714478E-01  8.00000000E-01
  3.04752488E+03  4.57369518E+02  1.03948685E+02  2.92101553E+01  9.28666296E+00
  3.16392696E+00  7.86827235E+00  1.88128854E+00  5.44249258E-01  1.68714478E-01
  8.00000000E-01  3.04752488E+03  4.57369518E+02  1.03948685E+02  2.92101553E+01
  9.28666296E+00  3.16392696E+00  7.86827235E+00  1.88128854E+00  5.44249258E-01
  1.68714478E-01  8.00000000E-01  1.87311370E+01  2.82539436E+00  6.40121692E-01
  1.61277759E-01  1.87311370E+01  2.82539436E+00  6.40121692E-01  1.61277759E-01
  1.87311370E+01  2.82539436E+00  6.40121692E-01  1.61277759E-01  1.87311370E+01
  2.82539436E+00  6.40121692E-01  1.61277759E-01  1.87311370E+01  2.82539436E+00
  6.40121692E-01  1.61277759E-01  1.87311370E+01  2.82539436E+00  6.40121692E-01
  1.61277759E-01  1.87311370E+01  2.82539436E+00  6.40121692E-01  1.61277759E-01
  1.87311370E+01  2.82539436E+00  6.40121692E-01  1.61277759E-01  1.87311370E+01
  2.82539436E+00  6.40121692E-01  1.61277759E-01  1.87311370E+01  2.82539436E+00
  6.40121692E-01  1.61277759E-01
Contraction coefficients                   R   N=         172
  1.83107443E-03  1.39501722E-02  6.84450781E-02  2.32714336E-01  4.70192898E-01
  3.58520853E-01 -1.10777550E-01 -1.48026263E-01  1.13076702E+00  1.00000000E+00
  1.00000000E+00  1.83107443E-03  1.39501722E-02  6.84450781E-02  2.32714336E-01
  4.70192898E-01  3.58520853E-01 -1.10777550E-01 -1.48026263E-01  1.13076702E+00
  1.00000000E+00  1.00000000E+00  1.83107443E-03  1.39501722E-02  6.84450781E-02
  2.32714336E-01  4.70192898E-01  3.58520853E-01 -1.10777550E-01 -1.48026263E-01
  1.13076702E+00  1.00000000E+00  1.00000000E+00  1.83107443E-03  1.39501722E-02
  6.84450781E-02  2.32714336E-01  4.70192898E-01  3.58520853E-01 -1.10777550E-01
 -1.48026263E-01  1.13076702E+00  1.00000000E+00  1.00000000E+00  1.83107443E-03
  1.39501722E-02  6.84450781E-02  2.32714336E-01  4.70192898E-01  3.58520853E-01
 -1.10777550E-01 -1.48026263E-01  1.13076702E+00  1.00000000E+00  1.00000000E+00
  1.83107443E-03  1.39501722E-02  6.84450781E-02  2.32714336E-01  4.70192898E-01
  3.58520853E-01 -1.10777550E-01 -1.48026263E-01  1.13076702E+00  1.00000000E+00
  1.00000000E+00  1.83473713E-03  1.40373228E-02  6.88426223E-02  2.32184443E-01
  4.67941348E-01  3.62311985E-01 -1.19332420E-01 -1.60854152E-01  1.14345644E+00
  1.00000000E+00  1.00000000E+00  1.83473713E-03  1.40373228E-02  6.88426223E-02
  2.32184443E-01  4.67941348E-01  3.62311985E-01 -1.19332420E-01 -1.60854152E-01
  1.14345644E+00  1.00000000E+00  1.00000000E+00  1.83473713E-03  1.40373228E-02
  6.88426223E-02  2.32184443E-01  4.67941348E-01  3.62311985E-01 -1.19332420E-01
 -1.60854152E-01  1.14345644E+00  1.00000000E+00  1.00000000E+00  1.83473713E-03
  1.40373228E-02  6.88426223E-02  2.32184443E-01  4.67941348E-01  3.62311985E-01
 -1.19332420E-01 -1.60854152E-01  1.14345644E+00  1.00000000E+00  1.00000000E+00
  1.83473713E-03  1.40373228E-02  6.88426223E-02  2.32184443E-01  4.67941348E-01
  3.62311985E-01 -1.19332420E-01 -1.60854152E-01  1.14345644E+00  1.00000000E+00
  1.00000000E+00  1.83473713E-03  1.40373228E-02  6.88426223E-02  2.32184443E-01
  4.67941348E-01  3.62311985E-01 -1.19332420E-01 -1.60854152E-01  1.14345644E+00
  1.00000000E+00  1.00000000E+00  3.34946043E-02  2.34726953E-01  8.13757326E-01
  1.00000000E+00  3.34946043E-02  2.34726953E-01  8.13757326E-01  1.00000000E+00
  3.34946043E-02  2.34726953E-01  8.13757326E-01  1.00000000E+00  3.34946043E-02
  2.34726953E-01  8.13757326E-01  1.00000000E+00  3.34946043E-02  2.34726953E-01
  8.13757326E-01  1.00000000E+00  3.34946043E-02  2.34726953E-01  8.13757326E-01
  1.00000000E+00  3.34946043E-02  2.34726953E-01  8.13757326E-01  1.00000000E+00
  3.34946043E-02  2.34726953E-01  8.13757326E-01  1.00000000E+00  3.34946043E-02
  2.34726953E-01  8.13757326E-01  1.00000000E+00  3.34946043E-02  2.34726953E-01
  8.13757326E-01  1.00000000E+00
P(S=P) Contraction coefficients            R   N=         172
  0.00000000E+00  0.00000000E+00  0.00000000E+00  0.00000000E+00  0.00000000E+00
  0.00000000E+00  7.08742682E-02  3.39752839E-01  7.27158577E-01  1.00000000E+00
  0.00000000E+00  0.00000000E+00  0.00000000E+00  0.00000000E+00  0.00000000E+00
  0.00000000E+00  0.00000000E+00  7.08742682E-02  3.39752839E-01  7.27158577E-01
  1.00000000E+00  0.00000000E+00  0.00000000E+00  0.00000000E+00  0.00000000E+00
  0.00000000E+00  0.00000000E+00  0.00000000E+00  7.08742682E-02  3.39752839E-01
  7.27158577E-01  1.00000000E+00  0.00000000E+00  0.00000000E+00  0.00000000E+00
  0.00000000E+00  0.00000000E+00  0.00000000E+00  0.00000000E+00  7.08742682E-02
  3.39752839E-01  7.27158577E-01  1.00000000E+00  0.00000000E+00  0.00000000E+00
  0.00000000E+00  0.00000000E+00  0.00000000E+00  0.00000000E+00  0.00000000E+00
  7.08742682E-02  3.39752839E-01  7.27158577E-01  1.00000000E+00  0.00000000E+00
  0.00000000E+00  0.00000000E+00  0.00000000E+00  0.00000000E+00  0.00000000E+00
  0.00000000E+00  7.08742682E-02  3.39752839E-01  7.27158577E-01  1.00000000E+00
  0.00000000E+00  0.00000000E+00  0.00000000E+00  0.00000000E+00  0.00000000E+00
  0.00000000E+00  0.00000000E+00  6.89990666E-02  3.16423961E-01  7.44308291E-01
  1.00000000E+00  0.00000000E+00  0.00000000E+00  0.00000000E+00  0.00000000E+00
  0.00000000E+00  0.00000000E+00  0.00000000E+00  6.89990666E-02  3.16423961E-01
  7.44308291E-01  1.00000000E+00  0.00000000E+00  0.00000000E+00  0.00000000E+00
  0.00000000E+00  0.00000000E+00  0.00000000E+00  0.00000000E+00  6.89990666E-02
  3.16423961E-01  7.44308291E-01  1.00000000E+00  0.00000000E+00  0.00000000E+00
  0.00000000E+00  0.00000000E+00  0.00000000E+00  0.00000000E+00  0.00000000E+00
  6.89990666E-02  3.16423961E-01  7.44308291E-01  1.00000000E+00  0.00000000E+00
  0.00000000E+00  0.00000000E+00  0.00000000E+00  0.00000000E+00  0.00000000E+00
  0.00000000E+00  6.89990666E-02  3.16423961E-01  7.44308291E-01  1.00000000E+00
  0.00000000E+00  0.00000000E+00  0.00000000E+00  0.00000000E+00  0.00000000E+00
  0.00000000E+00  0.00000000E+00  6.89990666E-02  3.16423961E-01  7.44308291E-01
  1.00000000E+00  0.00000000E+00  0.00000000E+00  0.00000000E+00  0.00000000E+00
  0.00000000E+00  0.00000000E+00  0.00000000E+00  0.00000000E+00  0.00000000E+00
  0.00000000E+00  0.00000000E+00  0.00000000E+00  0.00000000E+00  0.00000000E+00
  0.00000000E+00  0.00000000E+00  0.00000000E+00  0.00000000E+00  0.00000000E+00
  0.00000000E+00  0.00000000E+00  0.00000000E+00  0.00000000E+00  0.00000000E+00
  0.00000000E+00  0.00000000E+00  0.00000000E+00  0.00000000E+00  0.00000000E+00
  0.00000000E+00  0.00000000E+00  0.00000000E+00  0.00000000E+00  0.00000000E+00
  0.00000000E+00  0.00000000E+00  0.00000000E+00  0.00000000E+00  0.00000000E+00
  0.00000000E+00  0.00000000E+00
Coordinates of each shell                  R   N=         204
  6.51059302E-01 -2.81855181E+00 -2.42774436E-01  6.51059302E-01 -2.81855181E+00
 -2.42774436E-01  6.51059302E-01 -2.81855181E+00 -2.42774436E-01  6.51059302E-01
 -2.81855181E+00 -2.42774436E-01  2.57392411E+00  3.87311854E+00 -7.90830299E-01
  2.57392411E+00  3.87311854E+00 -7.90830299E-01  2.57392411E+00  3.87311854E+00
 -7.90830299E-01  2.57392411E+00  3.87311854E+00 -7.90830299E-01 -2.39009943E+00
  4.41159449E+00  8.83560086E-01 -2.39009943E+00  4.41159449E+00  8.83560086E-01
 -2.39009943E+00  4.41159449E+00  8.83560086E-01 -2.39009943E+00  4.41159449E+00
  8.83560086E-01 -5.55399541E+00  8.03787183E-02 -3.16364781E-01 -5.55399541E+00
  8.03787183E-02 -3.16364781E-01 -5.55399541E+00  8.03787183E-02 -3.16364781E-01
 -5.55399541E+00  8.03787183E-02 -3.16364781E-01  5.44112865E+00 -1.32529069E+00
  1.80969572E+00  5.44112865E+00 -1.32529069E+00  1.80969572E+00  5.44112865E+00
 -1.32529069E+00  1.80969572E+00  5.44112865E+00 -1.32529069E+00  1.80969572E+00
 -3.22567941E+00 -4.48188633E+00  1.25968239E-02 -3.22567941E+00 -4.48188633E+00
  1.25968239E-02 -3.22567941E+00 -4.48188633E+00  1.25968239E-02 -3.22567941E+00
 -4.48188633E+00  1.25968239E-02  1.22015288E+00  1.72803077E+00  1.34510904E-01
  1.22015288E+00  1.72803077E+00  1.34510904E-01  1.22015288E+00  1.72803077E+00
  1.34510904E-01  1.22015288E+00  1.72803077E+00  1.34510904E-01 -1.55737203E+00
  2.20351519E+00 -3.79707503E-01 -1.55737203E+00  2.20351519E+00 -3.79707503E-01
 -1.55737203E+00  2.20351519E+00 -3.79707503E-01 -1.55737203E+00  2.20351519E+00
 -3.79707503E-01  2.05411151E+00 -6.61240014E-01 -1.21622551E+00  2.05411151E+00
 -6.61240014E-01 -1.21622551E+00  2.05411151E+00 -6.61240014E-01 -1.21622551E+00
  2.05411151E+00 -6.61240014E-01 -1.21622551E+00 -3.06057706E+00 -1.17696132E-02
  6.24542249E-01 -3.06057706E+00 -1.17696132E-02  6.24542249E-01 -3.06057706E+00
 -1.17696132E-02  6.24542249E-01 -3.06057706E+00 -1.17696132E-02  6.24542249E-01
  4.81210031E+00 -1.30352804E+00 -8.04378692E-01  4.81210031E+00 -1.30352804E+00
 -8.04378692E-01  4.81210031E+00 -1.30352804E+00 -8.04378692E-01  4.81210031E+00
 -1.30352804E+00 -8.04378692E-01 -1.90579385E+00 -2.59965819E+00  2.47655777E-02
 -1.90579385E+00 -2.59965819E+00  2.47655777E-02 -1.90579385E+00 -2.59965819E+00
  2.47655777E-02 -1.90579385E+00 -2.59965819E+00  2.47655777E-02  1.50654660E+00
  1.49609430E+00  2.17459112E+00  1.50654660E+00  1.49609430E+00  2.17459112E+00
 -1.86104475E+00  2.35583534E+00 -2.43455196E+00 -1.86104475E+00  2.35583534E+00
 -2.43455196E+00  1.67401017E+00 -4.87148575E-01 -3.25027847E+00  1.67401017E+00
 -4.87148575E-01 -3.25027847E+00 -3.03592498E+00  1.41392532E-01  2.70697623E+00
 -3.03592498E+00  1.41392532E-01  2.70697623E+00  5.98608707E+00  1.47967025E-01
 -1.68658424E+00  5.98608707E+00  1.47967025E-01 -1.68658424E+00  5.23260633E+00
 -3.11989553E+00 -1.71341144E+00  5.23260633E+00 -3.11989553E+00 -1.71341144E+00
  4.11605763E+00  4.01386429E+00  2.02183113E-01  4.11605763E+00  4.01386429E+00
  2.02183113E-01 -1.21447112E+00  5.73257070E+00  3.60210556E-01 -1.21447112E+00
  5.73257070E+00  3.60210556E-01 -6.23818584E+00 -1.61696450E+00 -6.54824782E-02
 -6.23818584E+00 -1.61696450E+00 -6.54824782E-02  4.48788591E+00 -2.71071951E+00
  2.55824048E+00  4.48788591E+00 -2.71071951E+00  2.55824048E+00
Constraint Structure                       R   N=          66
  6.51059302E-01 -2.81855181E+00 -2.42774436E-01  2.57392411E+00  3.87311854E+00
 -7.90830299E-01 -2.39009943E+00  4.41159449E+00  8.83560086E-01 -5.55399541E+00
  8.03787183E-02 -3.16364781E-01  5.44112865E+00 -1.32529069E+00  1.80969572E+00
 -3.22567941E+00 -4.48188633E+00  1.25968239E-02  1.22015288E+00  1.72803077E+00
  1.34510904E-01 -1.55737203E+00  2.20351519E+00 -3.79707503E-01  2.05411151E+00
 -6.61240014E-01 -1.21622551E+00 -3.06057706E+00 -1.17696132E-02  6.24542249E-01
  4.81210031E+00 -1.30352804E+00 -8.04378692E-01 -1.90579385E+00 -2.59965819E+00
  2.47655777E-02  1.50654660E+00  1.49609430E+00  2.17459112E+00 -1.86104475E+00
  2.35583534E+00 -2.43455196E+00  1.67401017E+00 -4.87148575E-01 -3.25027847E+00
 -3.03592498E+00  1.41392532E-01  2.70697623E+00  5.98608707E+00  1.47967025E-01
 -1.68658424E+00  5.23260633E+00 -3.11989553E+00 -1.71341144E+00  4.11605763E+00
  4.01386429E+00  2.02183113E-01 -1.21447112E+00  5.73257070E+00  3.60210556E-01
 -6.23818584E+00 -1.61696450E+00 -6.54824782E-02  4.48788591E+00 -2.71071951E+00
  2.55824048E+00
Num ILSW                                   I              100
ILSW                                       I   N=         100
           0           1           0           0           2           0
           0           0           0           0           0          -1
           0           0           0           0           0           0
           0           0           0           0           1           0
           1           0           0           0           0           0
           0           0      100000           0          -1           0
           0           0           0           0           0           0
           0           0           0           1           1           0
           0           0           1           0           0           0
           0           0           4          40           0           0
           0           0           0           0           0           0
           0           0           0           0           0           0
           0           0           0           0           0           0
           0           0           0           0           0           0
           0           0           0           0           0           0
           0           0           0           0           0           0
           0           0           0           0
Num RLSW                                   I               40
RLSW                                       R   N=          40
  1.00000000E+00  1.00000000E+00  1.00000000E+00  1.00000000E+00  1.00000000E+00
  0.00000000E+00  0.00000000E+00  1.00000000E+00  0.00000000E+00  0.00000000E+00
  0.00000000E+00  0.00000000E+00  1.00000000E+00  0.00000000E+00  0.00000000E+00
  0.00000000E+00  0.00000000E+00  1.00000000E+00  0.00000000E+00  0.00000000E+00
  0.00000000E+00  0.00000000E+00  1.00000000E+00  0.00000000E+00  0.00000000E+00
  0.00000000E+00  0.00000000E+00  1.00000000E+00  0.00000000E+00  0.00000000E+00
  0.00000000E+00  0.00000000E+00  0.00000000E+00  0.00000000E+00  0.00000000E+00
  0.00000000E+00  0.00000000E+00  0.00000000E+00  1.00000000E+00  1.00000000E+00
MxBond                                     I                4
NBond                                      I   N=          22
           2           2           2           2           2           1
           4           4           4           4           4           3
           1           1           1           1           1           1
           1           1           1           1
IBond                                      I   N=          88
           9          12           0           0           7          19
           0           0           8          20           0           0
          10          21           0           0          11          22
           0           0          12           0           0           0
           2           8           9          13           3           7
          10          14           1           7          11          15
           4           8          12          16           5           9
          17          18           1           6          10           0
           7           0           0           0           8           0
           0           0           9           0           0           0
          10           0           0           0          11           0
           0           0          11           0           0           0
           2           0           0           0           3           0
           0           0           4           0           0           0
           5           0           0           0
RBond                                      R   N=          88
  1.00000000E+00  1.50000000E+00  0.00000000E+00  0.00000000E+00  1.00000000E+00
  1.00000000E+00  0.00000000E+00  0.00000000E+00  1.00000000E+00  1.00000000E+00
  0.00000000E+00  0.00000000E+00  1.00000000E+00  1.00000000E+00  0.00000000E+00
  0.00000000E+00  1.00000000E+00  1.00000000E+00  0.00000000E+00  0.00000000E+00
  2.00000000E+00  0.00000000E+00  0.00000000E+00  0.00000000E+00  1.00000000E+00
  1.00000000E+00  1.00000000E+00  1.00000000E+00  1.00000000E+00  1.00000000E+00
  1.00000000E+00  1.00000000E+00  1.00000000E+00  1.00000000E+00  1.00000000E+00
  1.00000000E+00  1.00000000E+00  1.00000000E+00  1.00000000E+00  1.00000000E+00
  1.00000000E+00  1.00000000E+00  1.00000000E+00  1.00000000E+00  1.50000000E+00
  2.00000000E+00  1.00000000E+00  0.00000000E+00  1.00000000E+00  0.00000000E+00
  0.00000000E+00  0.00000000E+00  1.00000000E+00  0.00000000E+00  0.00000000E+00
  0.00000000E+00  1.00000000E+00  0.00000000E+00  0.00000000E+00  0.00000000E+00
  1.00000000E+00  0.00000000E+00  0.00000000E+00  0.00000000E+00  1.00000000E+00
  0.00000000E+00  0.00000000E+00  0.00000000E+00  1.00000000E+00  0.00000000E+00
  0.00000000E+00  0.00000000E+00  1.00000000E+00  0.00000000E+00  0.00000000E+00
  0.00000000E+00  1.00000000E+00  0.00000000E+00  0.00000000E+00  0.00000000E+00
  1.00000000E+00  0.00000000E+00  0.00000000E+00  0.00000000E+00  1.00000000E+00
  0.00000000E+00  0.00000000E+00  0.00000000E+00
Virial Ratio                               R      2.002740396828692E+00
SCF Energy                                 R     -6.821689968060655E+02
MP2 Energy                                 R     -6.840130889937778E+02
Total Energy                               R     -6.840130889937778E+02
Post-SCF wavefunction norm                 R      1.756565643860086E+00
RMS Force                                  R      6.128412518289845E-07
RMS Density                                R      2.706851796449578E-09
External E-field                           R   N=          35
  0.00000000E+00  0.00000000E+00  0.00000000E+00  0.00000000E+00  0.00000000E+00
  0.00000000E+00  0.00000000E+00  0.00000000E+00  0.00000000E+00  0.00000000E+00
  0.00000000E+00  0.00000000E+00  0.00000000E+00  0.00000000E+00  0.00000000E+00
  0.00000000E+00  0.00000000E+00  0.00000000E+00  0.00000000E+00  0.00000000E+00
  0.00000000E+00  0.00000000E+00  0.00000000E+00  0.00000000E+00  0.00000000E+00
  0.00000000E+00  0.00000000E+00  0.00000000E+00  0.00000000E+00  0.00000000E+00
  0.00000000E+00  0.00000000E+00  0.00000000E+00  0.00000000E+00  0.00000000E+00
IOpCl                                      I                0
IROHF                                      I                0
Alpha Orbital Energies                     R   N=         200
 -2.06357766E+01 -2.06056713E+01 -2.05910040E+01 -2.05778869E+01 -2.05776039E+01
 -2.05759457E+01 -1.14092802E+01 -1.13252119E+01 -1.13184391E+01 -1.13132798E+01
 -1.13071708E+01 -1.13048349E+01 -1.47672353E+00 -1.40605932E+00 -1.39600970E+00
 -1.37978695E+00 -1.37129953E+00 -1.35825350E+00 -1.09697354E+00 -1.05712863E+00
 -9.55011416E-01 -8.73967603E-01 -8.66334184E-01 -7.99370121E-01 -7.59193551E-01
 -7.38616603E-01 -7.17243072E-01 -7.04662399E-01 -6.91297448E-01 -6.82384269E-01