105_Ethanamine Gaussian SP Calculation on node142.bme.utexas.edu        
Freq      RMP2-FC                                                     6-31G(d)            
Number of atoms                            I               23
Info1-9                                    I   N=           9
          34          33        1002           0           0         100
           6           2           1
Charge                                     I                0
Multiplicity                               I                1
Number of electrons                        I               64
Number of alpha electrons                  I               32
Number of beta electrons                   I               32
Number of basis functions                  I              150
Number of independent functions            I              150
Number of point charges in /Mol/           I                0
Number of translation vectors              I                0
Atomic numbers                             I   N=          23
           7           6           6           6           6           6
           6           6           1           1           1           1
           1           1           1           1           1           1
           1           1           1           1           1
Nuclear charges                            R   N=          23
  7.00000000E+00  6.00000000E+00  6.00000000E+00  6.00000000E+00  6.00000000E+00
  6.00000000E+00  6.00000000E+00  6.00000000E+00  1.00000000E+00  1.00000000E+00
  1.00000000E+00  1.00000000E+00  1.00000000E+00  1.00000000E+00  1.00000000E+00
  1.00000000E+00  1.00000000E+00  1.00000000E+00  1.00000000E+00  1.00000000E+00
  1.00000000E+00  1.00000000E+00  1.00000000E+00
Current cartesian coordinates              R   N=          69
 -9.65542815E-01 -1.79872215E+00 -5.08828217E-02  8.63273067E-01 -1.90136630E-01
 -3.99577742E-02  3.25750856E+00 -9.61036874E-01 -1.38749320E+00  8.82668956E-01
  2.41471991E+00  1.15987506E+00  5.27138166E+00 -1.88797358E+00  4.74504863E-01
 -3.10043757E-01  4.38680843E+00 -5.97268003E-01 -3.35687066E+00 -1.22845535E+00
  1.19360886E+00 -5.47542548E+00 -1.35671027E+00 -7.56954322E-01  3.99276091E+00
  6.44335497E-01 -2.47766589E+00  2.77855344E+00 -2.47078450E+00 -2.71392819E+00
 -9.69674021E-02  2.40430392E+00  2.98054124E+00  2.84406801E+00  2.94504830E+00
  1.55387688E+00  5.77451594E+00 -4.25231928E-01  1.84678112E+00  4.56623453E+00
 -3.52989189E+00  1.51152161E+00  6.99730878E+00 -2.44037869E+00 -5.20217248E-01
  6.56918536E-01  4.42060965E+00 -2.42407278E+00 -1.88849528E-01  6.27950738E+00
  2.25775360E-01 -2.30088383E+00  3.95797957E+00 -9.43026854E-01 -3.65579927E+00
 -2.69465306E+00  2.62716738E+00 -3.40572688E+00  6.03602633E-01  2.16671722E+00
 -7.31957924E+00 -1.09187886E+00  1.40368769E-01 -5.22845810E+00  1.13648613E-01
 -2.18812666E+00 -5.45025030E+00 -3.18845542E+00 -1.70742507E+00
Force Field                                I                0
Int Atom Types                             I   N=          23
           0           0           0           0           0           0
           0           0           0           0           0           0
           0           0           0           0           0           0
           0           0           0           0           0
MM charges                                 R   N=          23
  0.00000000E+00  0.00000000E+00  0.00000000E+00  0.00000000E+00  0.00000000E+00
  0.00000000E+00  0.00000000E+00  0.00000000E+00  0.00000000E+00  0.00000000E+00
  0.00000000E+00  0.00000000E+00  0.00000000E+00  0.00000000E+00  0.00000000E+00
  0.00000000E+00  0.00000000E+00  0.00000000E+00  0.00000000E+00  0.00000000E+00
  0.00000000E+00  0.00000000E+00  0.00000000E+00
Integer atomic weights                     I   N=          23
          14          12          12          12          12          12
          12          12           1           1           1           1
           1           1           1           1           1           1
           1           1           1           1           1
Real atomic weights                        R   N=          23
  1.40030740E+01  1.20000000E+01  1.20000000E+01  1.20000000E+01  1.20000000E+01
  1.20000000E+01  1.20000000E+01  1.20000000E+01  1.00782504E+00  1.00782504E+00
  1.00782504E+00  1.00782504E+00  1.00782504E+00  1.00782504E+00  1.00782504E+00
  1.00782504E+00  1.00782504E+00  1.00782504E+00  1.00782504E+00  1.00782504E+00
  1.00782504E+00  1.00782504E+00  1.00782504E+00
Atom fragment info                         I   N=          23
           0           0           0           0           0           0
           0           0           0           0           0           0
           0           0           0           0           0           0
           0           0           0           0           0
Atom residue num                           I   N=          23
           0           0           0           0           0           0
           0           0           0           0           0           0
           0           0           0           0           0           0
           0           0           0           0           0
Nuclear spins                              I   N=          23
           2           0           0           0           0           0
           0           0           1           1           1           1
           1           1           1           1           1           1
           1           1           1           1           1
Nuclear ZEff                               R   N=          23
 -4.55000000E+00 -3.60000000E+00 -3.60000000E+00 -3.60000000E+00 -3.60000000E+00
 -3.60000000E+00 -3.60000000E+00 -3.60000000E+00 -1.00000000E+00 -1.00000000E+00
 -1.00000000E+00 -1.00000000E+00 -1.00000000E+00 -1.00000000E+00 -1.00000000E+00
 -1.00000000E+00 -1.00000000E+00 -1.00000000E+00 -1.00000000E+00 -1.00000000E+00
 -1.00000000E+00 -1.00000000E+00 -1.00000000E+00
Nuclear QMom                               R   N=          23
  2.04400000E+00  0.00000000E+00  0.00000000E+00  0.00000000E+00  0.00000000E+00
  0.00000000E+00  0.00000000E+00  0.00000000E+00  0.00000000E+00  0.00000000E+00
  0.00000000E+00  0.00000000E+00  0.00000000E+00  0.00000000E+00  0.00000000E+00
  0.00000000E+00  0.00000000E+00  0.00000000E+00  0.00000000E+00  0.00000000E+00
  0.00000000E+00  0.00000000E+00  0.00000000E+00
Nuclear GFac                               R   N=          23
  4.03761000E-01  0.00000000E+00  0.00000000E+00  0.00000000E+00  0.00000000E+00
  0.00000000E+00  0.00000000E+00  0.00000000E+00  2.79284600E+00  2.79284600E+00
  2.79284600E+00  2.79284600E+00  2.79284600E+00  2.79284600E+00  2.79284600E+00
  2.79284600E+00  2.79284600E+00  2.79284600E+00  2.79284600E+00  2.79284600E+00
  2.79284600E+00  2.79284600E+00  2.79284600E+00
MicOpt                                     I   N=          23
          -1          -1          -1          -1          -1          -1
          -1          -1          -1          -1          -1          -1
          -1          -1          -1          -1          -1          -1
          -1          -1          -1          -1          -1
Number of contracted shells                I               62
Number of primitive shells                 I              148
Pure/Cartesian d shells                    I                1
Pure/Cartesian f shells                    I                0
Highest angular momentum                   I                2
Largest degree of contraction              I                6
Shell types                                I   N=          62
           0          -1          -1           2           0          -1
          -1           2           0          -1          -1           2
           0          -1          -1           2           0          -1
          -1           2           0          -1          -1           2
           0          -1          -1           2           0          -1
          -1           2           0           0           0           0
           0           0           0           0           0           0
           0           0           0           0           0           0
           0           0           0           0           0           0
           0           0           0           0           0           0
           0           0
Number of primitives per shell             I   N=          62
           6           3           1           1           6           3
           1           1           6           3           1           1
           6           3           1           1           6           3
           1           1           6           3           1           1
           6           3           1           1           6           3
           1           1           3           1           3           1
           3           1           3           1           3           1
           3           1           3           1           3           1
           3           1           3           1           3           1
           3           1           3           1           3           1
           3           1
Shell to atom map                          I   N=          62
           1           1           1           1           2           2
           2           2           3           3           3           3
           4           4           4           4           5           5
           5           5           6           6           6           6
           7           7           7           7           8           8
           8           8           9           9          10          10
          11          11          12          12          13          13
          14          14          15          15          16          16
          17          17          18          18          19          19
          20          20          21          21          22          22
          23          23
Primitive exponents                        R   N=         148
  4.17351146E+03  6.27457911E+02  1.42902093E+02  4.02343293E+01  1.28202129E+01
  4.39043701E+00  1.16263619E+01  2.71627981E+00  7.72218397E-01  2.12031498E-01
  8.00000000E-01  3.04752488E+03  4.57369518E+02  1.03948685E+02  2.92101553E+01
  9.28666296E+00  3.16392696E+00  7.86827235E+00  1.88128854E+00  5.44249258E-01
  1.68714478E-01  8.00000000E-01  3.04752488E+03  4.57369518E+02  1.03948685E+02
  2.92101553E+01  9.28666296E+00  3.16392696E+00  7.86827235E+00  1.88128854E+00
  5.44249258E-01  1.68714478E-01  8.00000000E-01  3.04752488E+03  4.57369518E+02
  1.03948685E+02  2.92101553E+01  9.28666296E+00  3.16392696E+00  7.86827235E+00
  1.88128854E+00  5.44249258E-01  1.68714478E-01  8.00000000E-01  3.04752488E+03
  4.57369518E+02  1.03948685E+02  2.92101553E+01  9.28666296E+00  3.16392696E+00
  7.86827235E+00  1.88128854E+00  5.44249258E-01  1.68714478E-01  8.00000000E-01
  3.04752488E+03  4.57369518E+02  1.03948685E+02  2.92101553E+01  9.28666296E+00
  3.16392696E+00  7.86827235E+00  1.88128854E+00  5.44249258E-01  1.68714478E-01
  8.00000000E-01  3.04752488E+03  4.57369518E+02  1.03948685E+02  2.92101553E+01
  9.28666296E+00  3.16392696E+00  7.86827235E+00  1.88128854E+00  5.44249258E-01
  1.68714478E-01  8.00000000E-01  3.04752488E+03  4.57369518E+02  1.03948685E+02
  2.92101553E+01  9.28666296E+00  3.16392696E+00  7.86827235E+00  1.88128854E+00
  5.44249258E-01  1.68714478E-01  8.00000000E-01  1.87311370E+01  2.82539436E+00
  6.40121692E-01  1.61277759E-01  1.87311370E+01  2.82539436E+00  6.40121692E-01
  1.61277759E-01  1.87311370E+01  2.82539436E+00  6.40121692E-01  1.61277759E-01
  1.87311370E+01  2.82539436E+00  6.40121692E-01  1.61277759E-01  1.87311370E+01
  2.82539436E+00  6.40121692E-01  1.61277759E-01  1.87311370E+01  2.82539436E+00
  6.40121692E-01  1.61277759E-01  1.87311370E+01  2.82539436E+00  6.40121692E-01
  1.61277759E-01  1.87311370E+01  2.82539436E+00  6.40121692E-01  1.61277759E-01
  1.87311370E+01  2.82539436E+00  6.40121692E-01  1.61277759E-01  1.87311370E+01
  2.82539436E+00  6.40121692E-01  1.61277759E-01  1.87311370E+01  2.82539436E+00
  6.40121692E-01  1.61277759E-01  1.87311370E+01  2.82539436E+00  6.40121692E-01
  1.61277759E-01  1.87311370E+01  2.82539436E+00  6.40121692E-01  1.61277759E-01
  1.87311370E+01  2.82539436E+00  6.40121692E-01  1.61277759E-01  1.87311370E+01
  2.82539436E+00  6.40121692E-01  1.61277759E-01
Contraction coefficients                   R   N=         148
  1.83477216E-03  1.39946270E-02  6.85865518E-02  2.32240873E-01  4.69069948E-01
  3.60455199E-01 -1.14961182E-01 -1.69117479E-01  1.14585195E+00  1.00000000E+00
  1.00000000E+00  1.83473713E-03  1.40373228E-02  6.88426223E-02  2.32184443E-01
  4.67941348E-01  3.62311985E-01 -1.19332420E-01 -1.60854152E-01  1.14345644E+00
  1.00000000E+00  1.00000000E+00  1.83473713E-03  1.40373228E-02  6.88426223E-02
  2.32184443E-01  4.67941348E-01  3.62311985E-01 -1.19332420E-01 -1.60854152E-01
  1.14345644E+00  1.00000000E+00  1.00000000E+00  1.83473713E-03  1.40373228E-02
  6.88426223E-02  2.32184443E-01  4.67941348E-01  3.62311985E-01 -1.19332420E-01
 -1.60854152E-01  1.14345644E+00  1.00000000E+00  1.00000000E+00  1.83473713E-03
  1.40373228E-02  6.88426223E-02  2.32184443E-01  4.67941348E-01  3.62311985E-01
 -1.19332420E-01 -1.60854152E-01  1.14345644E+00  1.00000000E+00  1.00000000E+00
  1.83473713E-03  1.40373228E-02  6.88426223E-02  2.32184443E-01  4.67941348E-01
  3.62311985E-01 -1.19332420E-01 -1.60854152E-01  1.14345644E+00  1.00000000E+00
  1.00000000E+00  1.83473713E-03  1.40373228E-02  6.88426223E-02  2.32184443E-01
  4.67941348E-01  3.62311985E-01 -1.19332420E-01 -1.60854152E-01  1.14345644E+00
  1.00000000E+00  1.00000000E+00  1.83473713E-03  1.40373228E-02  6.88426223E-02
  2.32184443E-01  4.67941348E-01  3.62311985E-01 -1.19332420E-01 -1.60854152E-01
  1.14345644E+00  1.00000000E+00  1.00000000E+00  3.34946043E-02  2.34726953E-01
  8.13757326E-01  1.00000000E+00  3.34946043E-02  2.34726953E-01  8.13757326E-01
  1.00000000E+00  3.34946043E-02  2.34726953E-01  8.13757326E-01  1.00000000E+00
  3.34946043E-02  2.34726953E-01  8.13757326E-01  1.00000000E+00  3.34946043E-02
  2.34726953E-01  8.13757326E-01  1.00000000E+00  3.34946043E-02  2.34726953E-01
  8.13757326E-01  1.00000000E+00  3.34946043E-02  2.34726953E-01  8.13757326E-01
  1.00000000E+00  3.34946043E-02  2.34726953E-01  8.13757326E-01  1.00000000E+00
  3.34946043E-02  2.34726953E-01  8.13757326E-01  1.00000000E+00  3.34946043E-02
  2.34726953E-01  8.13757326E-01  1.00000000E+00  3.34946043E-02  2.34726953E-01
  8.13757326E-01  1.00000000E+00  3.34946043E-02  2.34726953E-01  8.13757326E-01
  1.00000000E+00  3.34946043E-02  2.34726953E-01  8.13757326E-01  1.00000000E+00
  3.34946043E-02  2.34726953E-01  8.13757326E-01  1.00000000E+00  3.34946043E-02
  2.34726953E-01  8.13757326E-01  1.00000000E+00
P(S=P) Contraction coefficients            R   N=         148
  0.00000000E+00  0.00000000E+00  0.00000000E+00  0.00000000E+00  0.00000000E+00
  0.00000000E+00  6.75797439E-02  3.23907296E-01  7.40895140E-01  1.00000000E+00
  0.00000000E+00  0.00000000E+00  0.00000000E+00  0.00000000E+00  0.00000000E+00
  0.00000000E+00  0.00000000E+00  6.89990666E-02  3.16423961E-01  7.44308291E-01
  1.00000000E+00  0.00000000E+00  0.00000000E+00  0.00000000E+00  0.00000000E+00
  0.00000000E+00  0.00000000E+00  0.00000000E+00  6.89990666E-02  3.16423961E-01
  7.44308291E-01  1.00000000E+00  0.00000000E+00  0.00000000E+00  0.00000000E+00
  0.00000000E+00  0.00000000E+00  0.00000000E+00  0.00000000E+00  6.89990666E-02
  3.16423961E-01  7.44308291E-01  1.00000000E+00  0.00000000E+00  0.00000000E+00
  0.00000000E+00  0.00000000E+00  0.00000000E+00  0.00000000E+00  0.00000000E+00
  6.89990666E-02  3.16423961E-01  7.44308291E-01  1.00000000E+00  0.00000000E+00
  0.00000000E+00  0.00000000E+00  0.00000000E+00  0.00000000E+00  0.00000000E+00
  0.00000000E+00  6.89990666E-02  3.16423961E-01  7.44308291E-01  1.00000000E+00
  0.00000000E+00  0.00000000E+00  0.00000000E+00  0.00000000E+00  0.00000000E+00
  0.00000000E+00  0.00000000E+00  6.89990666E-02  3.16423961E-01  7.44308291E-01
  1.00000000E+00  0.00000000E+00  0.00000000E+00  0.00000000E+00  0.00000000E+00
  0.00000000E+00  0.00000000E+00  0.00000000E+00  6.89990666E-02  3.16423961E-01
  7.44308291E-01  1.00000000E+00  0.00000000E+00  0.00000000E+00  0.00000000E+00
  0.00000000E+00  0.00000000E+00  0.00000000E+00  0.00000000E+00  0.00000000E+00
  0.00000000E+00  0.00000000E+00  0.00000000E+00  0.00000000E+00  0.00000000E+00
  0.00000000E+00  0.00000000E+00  0.00000000E+00  0.00000000E+00  0.00000000E+00
  0.00000000E+00  0.00000000E+00  0.00000000E+00  0.00000000E+00  0.00000000E+00
  0.00000000E+00  0.00000000E+00  0.00000000E+00  0.00000000E+00  0.00000000E+00
  0.00000000E+00  0.00000000E+00  0.00000000E+00  0.00000000E+00  0.00000000E+00
  0.00000000E+00  0.00000000E+00  0.00000000E+00  0.00000000E+00  0.00000000E+00
  0.00000000E+00  0.00000000E+00  0.00000000E+00  0.00000000E+00  0.00000000E+00
  0.00000000E+00  0.00000000E+00  0.00000000E+00  0.00000000E+00  0.00000000E+00
  0.00000000E+00  0.00000000E+00  0.00000000E+00  0.00000000E+00  0.00000000E+00
  0.00000000E+00  0.00000000E+00  0.00000000E+00  0.00000000E+00  0.00000000E+00
  0.00000000E+00  0.00000000E+00  0.00000000E+00
Coordinates of each shell                  R   N=         186
 -9.65542815E-01 -1.79872215E+00 -5.08828217E-02 -9.65542815E-01 -1.79872215E+00
 -5.08828217E-02 -9.65542815E-01 -1.79872215E+00 -5.08828217E-02 -9.65542815E-01
 -1.79872215E+00 -5.08828217E-02  8.63273067E-01 -1.90136630E-01 -3.99577742E-02
  8.63273067E-01 -1.90136630E-01 -3.99577742E-02  8.63273067E-01 -1.90136630E-01
 -3.99577742E-02  8.63273067E-01 -1.90136630E-01 -3.99577742E-02  3.25750856E+00
 -9.61036874E-01 -1.38749320E+00  3.25750856E+00 -9.61036874E-01 -1.38749320E+00
  3.25750856E+00 -9.61036874E-01 -1.38749320E+00  3.25750856E+00 -9.61036874E-01
 -1.38749320E+00  8.82668956E-01  2.41471991E+00  1.15987506E+00  8.82668956E-01
  2.41471991E+00  1.15987506E+00  8.82668956E-01  2.41471991E+00  1.15987506E+00
  8.82668956E-01  2.41471991E+00  1.15987506E+00  5.27138166E+00 -1.88797358E+00
  4.74504863E-01  5.27138166E+00 -1.88797358E+00  4.74504863E-01  5.27138166E+00
 -1.88797358E+00  4.74504863E-01  5.27138166E+00 -1.88797358E+00  4.74504863E-01
 -3.10043757E-01  4.38680843E+00 -5.97268003E-01 -3.10043757E-01  4.38680843E+00
 -5.97268003E-01 -3.10043757E-01  4.38680843E+00 -5.97268003E-01 -3.10043757E-01
  4.38680843E+00 -5.97268003E-01 -3.35687066E+00 -1.22845535E+00  1.19360886E+00
 -3.35687066E+00 -1.22845535E+00  1.19360886E+00 -3.35687066E+00 -1.22845535E+00
  1.19360886E+00 -3.35687066E+00 -1.22845535E+00  1.19360886E+00 -5.47542548E+00
 -1.35671027E+00 -7.56954322E-01 -5.47542548E+00 -1.35671027E+00 -7.56954322E-01
 -5.47542548E+00 -1.35671027E+00 -7.56954322E-01 -5.47542548E+00 -1.35671027E+00
 -7.56954322E-01  3.99276091E+00  6.44335497E-01 -2.47766589E+00  3.99276091E+00
  6.44335497E-01 -2.47766589E+00  2.77855344E+00 -2.47078450E+00 -2.71392819E+00
  2.77855344E+00 -2.47078450E+00 -2.71392819E+00 -9.69674021E-02  2.40430392E+00
  2.98054124E+00 -9.69674021E-02  2.40430392E+00  2.98054124E+00  2.84406801E+00
  2.94504830E+00  1.55387688E+00  2.84406801E+00  2.94504830E+00  1.55387688E+00
  5.77451594E+00 -4.25231928E-01  1.84678112E+00  5.77451594E+00 -4.25231928E-01
  1.84678112E+00  4.56623453E+00 -3.52989189E+00  1.51152161E+00  4.56623453E+00
 -3.52989189E+00  1.51152161E+00  6.99730878E+00 -2.44037869E+00 -5.20217248E-01
  6.99730878E+00 -2.44037869E+00 -5.20217248E-01  6.56918536E-01  4.42060965E+00
 -2.42407278E+00  6.56918536E-01  4.42060965E+00 -2.42407278E+00 -1.88849528E-01
  6.27950738E+00  2.25775360E-01 -1.88849528E-01  6.27950738E+00  2.25775360E-01
 -2.30088383E+00  3.95797957E+00 -9.43026854E-01 -2.30088383E+00  3.95797957E+00
 -9.43026854E-01 -3.65579927E+00 -2.69465306E+00  2.62716738E+00 -3.65579927E+00
 -2.69465306E+00  2.62716738E+00 -3.40572688E+00  6.03602633E-01  2.16671722E+00
 -3.40572688E+00  6.03602633E-01  2.16671722E+00 -7.31957924E+00 -1.09187886E+00
  1.40368769E-01 -7.31957924E+00 -1.09187886E+00  1.40368769E-01 -5.22845810E+00
  1.13648613E-01 -2.18812666E+00 -5.22845810E+00  1.13648613E-01 -2.18812666E+00
 -5.45025030E+00 -3.18845542E+00 -1.70742507E+00 -5.45025030E+00 -3.18845542E+00
 -1.70742507E+00
Constraint Structure                       R   N=          69
 -9.65542815E-01 -1.79872215E+00 -5.08828217E-02  8.63273067E-01 -1.90136630E-01
 -3.99577742E-02  3.25750856E+00 -9.61036874E-01 -1.38749320E+00  8.82668956E-01
  2.41471991E+00  1.15987506E+00  5.27138166E+00 -1.88797358E+00  4.74504863E-01
 -3.10043757E-01  4.38680843E+00 -5.97268003E-01 -3.35687066E+00 -1.22845535E+00
  1.19360886E+00 -5.47542548E+00 -1.35671027E+00 -7.56954322E-01  3.99276091E+00
  6.44335497E-01 -2.47766589E+00  2.77855344E+00 -2.47078450E+00 -2.71392819E+00
 -9.69674021E-02  2.40430392E+00  2.98054124E+00  2.84406801E+00  2.94504830E+00
  1.55387688E+00  5.77451594E+00 -4.25231928E-01  1.84678112E+00  4.56623453E+00
 -3.52989189E+00  1.51152161E+00  6.99730878E+00 -2.44037869E+00 -5.20217248E-01
  6.56918536E-01  4.42060965E+00 -2.42407278E+00 -1.88849528E-01  6.27950738E+00
  2.25775360E-01 -2.30088383E+00  3.95797957E+00 -9.43026854E-01 -3.65579927E+00
 -2.69465306E+00  2.62716738E+00 -3.40572688E+00  6.03602633E-01  2.16671722E+00
 -7.31957924E+00 -1.09187886E+00  1.40368769E-01 -5.22845810E+00  1.13648613E-01
 -2.18812666E+00 -5.45025030E+00 -3.18845542E+00 -1.70742507E+00
Num ILSW                                   I              100
ILSW                                       I   N=         100
           0           1           0           0           2           0
           0           0           0           0           0          -1
           0           0           0           0           0           0
           0           0           0           0           1           0
           1           0           0           0           0           0
           0           0      100000           0          -1           0
           0           0           0           0           0           0
           0           0           0           1           1           0
           0           0           1           0           0           0
           0           0           4          40           0           0
           0           0           0           0           0           0
           0           0           0           0           0           0
           0           0           0           0           0           0
           0           0           0           0           0           0
           0           0           0           0           0           0
           0           0           0           0           0           0
           0           0           0           0
Num RLSW                                   I               40
RLSW                                       R   N=          40
  1.00000000E+00  1.00000000E+00  1.00000000E+00  1.00000000E+00  1.00000000E+00
  0.00000000E+00  0.00000000E+00  1.00000000E+00  0.00000000E+00  0.00000000E+00
  0.00000000E+00  0.00000000E+00  1.00000000E+00  0.00000000E+00  0.00000000E+00
  0.00000000E+00  0.00000000E+00  1.00000000E+00  0.00000000E+00  0.00000000E+00
  0.00000000E+00  0.00000000E+00  1.00000000E+00  0.00000000E+00  0.00000000E+00
  0.00000000E+00  0.00000000E+00  1.00000000E+00  0.00000000E+00  0.00000000E+00
  0.00000000E+00  0.00000000E+00  0.00000000E+00  0.00000000E+00  0.00000000E+00
  0.00000000E+00  0.00000000E+00  0.00000000E+00  1.00000000E+00  1.00000000E+00
MxBond                                     I                4
NBond                                      I   N=          23
           2           3           4           4           4           4
           4           4           1           1           1           1
           1           1           1           1           1           1
           1           1           1           1           1
IBond                                      I   N=          92
           2           7           0           0           1           3
           4           0           2           5           9          10
           2           6          11          12           3          13
          14          15           4          16          17          18
           1           8          19          20           7          21
          22          23           3           0           0           0
           3           0           0           0           4           0
           0           0           4           0           0           0
           5           0           0           0           5           0
           0           0           5           0           0           0
           6           0           0           0           6           0
           0           0           6           0           0           0
           7           0           0           0           7           0
           0           0           8           0           0           0
           8           0           0           0           8           0
           0           0
RBond                                      R   N=          92
  2.00000000E+00  1.00000000E+00  0.00000000E+00  0.00000000E+00  2.00000000E+00
  1.00000000E+00  1.00000000E+00  0.00000000E+00  1.00000000E+00  1.00000000E+00
  1.00000000E+00  1.00000000E+00  1.00000000E+00  1.00000000E+00  1.00000000E+00
  1.00000000E+00  1.00000000E+00  1.00000000E+00  1.00000000E+00  1.00000000E+00
  1.00000000E+00  1.00000000E+00  1.00000000E+00  1.00000000E+00  1.00000000E+00
  1.00000000E+00  1.00000000E+00  1.00000000E+00  1.00000000E+00  1.00000000E+00
  1.00000000E+00  1.00000000E+00  1.00000000E+00  0.00000000E+00  0.00000000E+00
  0.00000000E+00  1.00000000E+00  0.00000000E+00  0.00000000E+00  0.00000000E+00
  1.00000000E+00  0.00000000E+00  0.00000000E+00  0.00000000E+00  1.00000000E+00
  0.00000000E+00  0.00000000E+00  0.00000000E+00  1.00000000E+00  0.00000000E+00
  0.00000000E+00  0.00000000E+00  1.00000000E+00  0.00000000E+00  0.00000000E+00
  0.00000000E+00  1.00000000E+00  0.00000000E+00  0.00000000E+00  0.00000000E+00
  1.00000000E+00  0.00000000E+00  0.00000000E+00  0.00000000E+00  1.00000000E+00
  0.00000000E+00  0.00000000E+00  0.00000000E+00  1.00000000E+00  0.00000000E+00
  0.00000000E+00  0.00000000E+00  1.00000000E+00  0.00000000E+00  0.00000000E+00
  0.00000000E+00  1.00000000E+00  0.00000000E+00  0.00000000E+00  0.00000000E+00
  1.00000000E+00  0.00000000E+00  0.00000000E+00  0.00000000E+00  1.00000000E+00
  0.00000000E+00  0.00000000E+00  0.00000000E+00  1.00000000E+00  0.00000000E+00
  0.00000000E+00  0.00000000E+00
Virial Ratio                               R      2.001517700545672E+00
SCF Energy                                 R     -3.282420700632484E+02
MP2 Energy                                 R     -3.293224915704594E+02
Total Energy                               R     -3.293224915704594E+02
Post-SCF wavefunction norm                 R      1.652309406840864E+00
RMS Force                                  R      1.069025134494574E-07
RMS Density                                R      7.539736072683341E-10
External E-field                           R   N=          35
  0.00000000E+00  0.00000000E+00  0.00000000E+00  0.00000000E+00  0.00000000E+00
  0.00000000E+00  0.00000000E+00  0.00000000E+00  0.00000000E+00  0.00000000E+00
  0.00000000E+00  0.00000000E+00  0.00000000E+00  0.00000000E+00  0.00000000E+00
  0.00000000E+00  0.00000000E+00  0.00000000E+00  0.00000000E+00  0.00000000E+00
  0.00000000E+00  0.00000000E+00  0.00000000E+00  0.00000000E+00  0.00000000E+00
  0.00000000E+00  0.00000000E+00  0.00000000E+00  0.00000000E+00  0.00000000E+00
  0.00000000E+00  0.00000000E+00  0.00000000E+00  0.00000000E+00  0.00000000E+00
IOpCl                                      I                0
IROHF                                      I                0
Alpha Orbital Energies                     R   N=         150
 -1.55422620E+01 -1.12724387E+01 -1.12415038E+01 -1.12335858E+01 -1.12270674E+01
 -1.12209053E+01 -1.12175236E+01 -1.12079934E+01 -1.21466199E+00 -1.06612264E+00
 -1.02631239E+00 -9.92948190E-01 -8.90991346E-01 -8.57479732E-01 -8.21051296E-01
 -7.03905515E-01 -6.61832364E-01 -6.42124367E-01 -5.98791583E-01 -5.91184252E-01
 -5.89630972E-01 -5.57162668E-01 -5.39691818E-01 -5.22080778E-01 -5.19473750E-01
 -5.11478940E-01 -5.08354136E-01 -4.87710282E-01 -4.81074948E-01 -4.69761188E-01
 -3.76738263E-01 -3.74781646E-01  1.69366681E-01  2.17732212E-01  2.42427909E-01
  2.71726876E-01  2.80891588E-01  2.94629586E-01  3.02576007E-01  3.08848642E-01
  3.20290162E-01  3.25593840E-01  3.27877516E-01  3.38029890E-01  3.41882598E-01
  3.57113176E-01  3.64639869E-01  3.81666704E-01  3.96933878E-01  4.11924910E-01
  4.20204554E-01  4.41009544E-01  4.43555919E-01  4.98085642E-01  6.06020045E-01
  7.08295909E-01  7.27908468E-01  7.33476754E-01  7.48854327E-01  7.50677568E-01
  7.65936105E-01  7.81994388E-01  7.95523405E-01  8.15345059E-01  8.34699454E-01
  8.68106214E-01  9.07059132E-01  9.24453125E-01  9.39177204E-01  9.41103484E-01
  9.69275262E-01  1.03139871E+00  1.04294791E+00  1.05921699E+00  1.09909008E+00
  1.10365126E+00  1.10741107E+00  1.13219872E+00  1.14561376E+00  1.15451969E+00
  1.16507488E+00  1.17114674E+00  1.18071065E+00  1.18106552E+00  1.20286087E+00
  1.20937145E+00  1.22280791E+00  1.24855689E+00  1.24988158E+00  1.25383863E+00
  1.26614248E+00  1.28780606E+00  1.30035736E+00  1.31057644E+00  1.35274027E+00
  1.41924870E+00  1.46568365E+00  1.54866561E+00  1.64438207E+00  1.68358243E+00
  1.70471216E+00  1.78901333E+00  1.81566699E+00  1.85591212E+00  1.89733007E+00