
    -----------------------------------------------------------------------
          Psi4: An Open-Source Ab Initio Electronic Structure Package
                               Psi4 1.3.2 release

                         Git: Rev {HEAD} ecbda83 


    R. M. Parrish, L. A. Burns, D. G. A. Smith, A. C. Simmonett,
    A. E. DePrince III, E. G. Hohenstein, U. Bozkaya, A. Yu. Sokolov,
    R. Di Remigio, R. M. Richard, J. F. Gonthier, A. M. James,
    H. R. McAlexander, A. Kumar, M. Saitow, X. Wang, B. P. Pritchard,
    P. Verma, H. F. Schaefer III, K. Patkowski, R. A. King, E. F. Valeev,
    F. A. Evangelista, J. M. Turney, T. D. Crawford, and C. D. Sherrill,
    J. Chem. Theory Comput. 13(7) pp 3185--3197 (2017).
    (doi: 10.1021/acs.jctc.7b00174)


                         Additional Contributions by
    P. Kraus, H. Kruse, M. H. Lechner, M. C. Schieber, R. A. Shaw,
    A. Alenaizan, R. Galvelis, Z. L. Glick, S. Lehtola, and J. P. Misiewicz

    -----------------------------------------------------------------------


    Psi4 started on: Thursday, 05 November 2020 03:03PM

    Process ID: 82086
    Host:       node142.bme.utexas.edu
    PSIDATADIR: /home/xy3866/psi4conda/share/psi4
    Memory:     500.0 MiB
    Threads:    8
    
  ==> Input File <==

--------------------------------------------------------------------------
#psi4
#
memory 32 gb

molecule  {
0 1
  C        0.7029120     0.3173470    -0.3805850
  C       -0.7029620    -0.3173540    -0.3804860
  C        0.9826470     1.1914400     0.8430940
  C        1.8037460    -0.7325620    -0.5400470
  C       -1.1142671    -1.1032311     0.8656719
  C       -1.8038160     0.7325530    -0.5398170
  H        0.7436150     0.9671320    -1.2674360
  H       -0.7437850    -0.9671540    -1.2673200
  H        1.0211370     0.5905480     1.7569780
  H        1.9518370     1.6894640     0.7370170
  H        0.2251830     1.9685050     0.9782860
  H        2.7795120    -0.2525090    -0.6673740
  H        1.8684660    -1.3795410     0.3401940
  H        1.6230310    -1.3663620    -1.4145870
  H       -0.2250570    -1.9684910     0.9783510
  H       -1.0209040    -0.5905180     1.7571240
  H       -1.9517420    -1.6894490     0.7373050
  H       -1.8684140     1.3795480     0.3404210
  H       -2.7795990     0.2525000    -0.6670030
  H       -1.6232180     1.3663380    -1.4143930
units angstrom
no_reorient  #important for SAPT in psi4, default
symmetry c1  #important for SAPT in psi4, default
}

set PROPERTIES_ORIGIN ["COM"]
properties('MP2/aug-cc-pvtz', properties = ['dipole'])
--------------------------------------------------------------------------

  Memory set to  29.802 GiB by Python driver.
    SCF Algorithm Type (re)set to DF.

*** tstart() called on node142.bme.utexas.edu
*** at Thu Nov  5 15:03:58 2020

   => Loading Basis Set <=

    Name: AUG-CC-PVTZ
    Role: ORBITAL
    Keyword: BASIS
    atoms 1-6  entry C          line   235 file /home/xy3866/psi4conda/share/psi4/basis/aug-cc-pvtz.gbs 
    atoms 7-20 entry H          line    36 file /home/xy3866/psi4conda/share/psi4/basis/aug-cc-pvtz.gbs 


         ---------------------------------------------------------
                                   SCF
               by Justin Turney, Rob Parrish, Andy Simmonett
                          and Daniel G. A. Smith
                              RHF Reference
                        8 Threads,  30517 MiB Core
         ---------------------------------------------------------

  ==> Geometry <==

    Molecular point group: c1
    Full point group: C1

    Geometry (in Angstrom), charge = 0, multiplicity = 1:

       Center              X                  Y                   Z               Mass       
    ------------   -----------------  -----------------  -----------------  -----------------
         C            0.721270227474     0.305056541154    -0.373022447574    12.000000000000
         C           -0.684603772526    -0.329644458846    -0.372923447574    12.000000000000
         C            1.001005227474     1.179149541154     0.850656552426    12.000000000000
         C            1.822104227474    -0.744852458846    -0.532484447574    12.000000000000
         C           -1.095908872526    -1.115521558846     0.873234452426    12.000000000000
         C           -1.785457772526     0.720262541154    -0.532254447574    12.000000000000
         H            0.761973227474     0.954841541154    -1.259873447574     1.007825032230
         H           -0.725426772526    -0.979444458846    -1.259757447574     1.007825032230
         H            1.039495227474     0.578257541154     1.764540552426     1.007825032230
         H            1.970195227474     1.677173541154     0.744579552426     1.007825032230
         H            0.243541227474     1.956214541154     0.985848552426     1.007825032230
         H            2.797870227474    -0.264799458846    -0.659811447574     1.007825032230
         H            1.886824227474    -1.391831458846     0.347756552426     1.007825032230
         H            1.641389227474    -1.378652458846    -1.407024447574     1.007825032230
         H           -0.206698772526    -1.980781458846     0.985913552426     1.007825032230
         H           -1.002545772526    -0.602808458846     1.764686552426     1.007825032230
         H           -1.933383772526    -1.701739458846     0.744867552426     1.007825032230
         H           -1.850055772526     1.367257541154     0.347983552426     1.007825032230
         H           -2.761240772526     0.240209541154    -0.659440447574     1.007825032230
         H           -1.604859772526     1.354047541154    -1.406830447574     1.007825032230

  Running in c1 symmetry.

  Rotational constants: A =      0.14484  B =      0.08388  C =      0.07454 [cm^-1]
  Rotational constants: A =   4342.24470  B =   2514.68026  C =   2234.57626 [MHz]
  Nuclear repulsion =  263.936343965615549

  Charge       = 0
  Multiplicity = 1
  Electrons    = 50
  Nalpha       = 25
  Nbeta        = 25

  ==> Algorithm <==

  SCF Algorithm Type is DF.
  DIIS enabled.
  MOM disabled.
  Fractional occupation disabled.
  Guess Type is SAD.
  Energy threshold   = 1.00e-10
  Density threshold  = 1.00e-10
  Integral threshold = 0.00e+00

  ==> Primary Basis <==

  Basis Set: AUG-CC-PVTZ
    Blend: AUG-CC-PVTZ
    Number of shells: 210
    Number of basis function: 598
    Number of Cartesian functions: 680
    Spherical Harmonics?: true
    Max angular momentum: 3

   => Loading Basis Set <=

    Name: (AUG-CC-PVTZ AUX)
    Role: JKFIT
    Keyword: DF_BASIS_SCF
    atoms 1-6  entry C          line   162 file /home/xy3866/psi4conda/share/psi4/basis/aug-cc-pvtz-jkfit.gbs 
    atoms 7-20 entry H          line    70 file /home/xy3866/psi4conda/share/psi4/basis/aug-cc-pvtz-jkfit.gbs 

  ==> Pre-Iterations <==

   -------------------------------------------------------
    Irrep   Nso     Nmo     Nalpha   Nbeta   Ndocc  Nsocc
   -------------------------------------------------------
     A        598     598       0       0       0       0
   -------------------------------------------------------
    Total     598     598      25      25      25       0
   -------------------------------------------------------

  ==> Integral Setup <==

  DFHelper Memory: AOs need 3.419 GiB; user supplied 22.352 GiB. Using in-core AOs.

  ==> MemDFJK: Density-Fitted J/K Matrices <==

    J tasked:                   Yes
    K tasked:                   Yes
    wK tasked:                   No
    OpenMP threads:               8
    Memory [MiB]:             22888
    Algorithm:                 Disk
    Schwarz Cutoff:           1E-12
    Mask sparsity (%):       1.9267
    Fitting Condition:        1E-10

   => Auxiliary Basis Set <=

  Basis Set: (AUG-CC-PVTZ AUX)
    Blend: AUG-CC-PVTZ-JKFIT
    Number of shells: 376
    Number of basis function: 1268
    Number of Cartesian functions: 1556
    Spherical Harmonics?: true
    Max angular momentum: 4

  Minimum eigenvalue in the overlap matrix is 1.9642352558E-06.
  Using Symmetric Orthogonalization.

  SCF Guess: Superposition of Atomic Densities via on-the-fly atomic UHF.

  ==> Iterations <==

                           Total Energy        Delta E     RMS |[F,P]|

   @DF-RHF iter SAD:  -235.10556964210636   -2.35106e+02   0.00000e+00 
   @DF-RHF iter   1:  -235.08199095780108    2.35787e-02   1.22637e-03 DIIS
   @DF-RHF iter   2:  -235.34587855319364   -2.63888e-01   6.24963e-04 DIIS
   @DF-RHF iter   3:  -235.41833257152120   -7.24540e-02   1.11627e-04 DIIS
   @DF-RHF iter   4:  -235.42250530664163   -4.17274e-03   3.41488e-05 DIIS
   @DF-RHF iter   5:  -235.42280101807455   -2.95711e-04   6.83603e-06 DIIS
   @DF-RHF iter   6:  -235.42281720295071   -1.61849e-05   1.41111e-06 DIIS
   @DF-RHF iter   7:  -235.42281794903801   -7.46087e-07   3.75023e-07 DIIS
   @DF-RHF iter   8:  -235.42281801026954   -6.12315e-08   1.06016e-07 DIIS
   @DF-RHF iter   9:  -235.42281801485393   -4.58439e-09   3.50760e-08 DIIS
   @DF-RHF iter  10:  -235.42281801539343   -5.39501e-10   7.55437e-09 DIIS
   @DF-RHF iter  11:  -235.42281801542120   -2.77680e-11   2.22190e-09 DIIS
   @DF-RHF iter  12:  -235.42281801542271   -1.50635e-12   6.80566e-10 DIIS
   @DF-RHF iter  13:  -235.42281801542293   -2.27374e-13   1.75861e-10 DIIS
   @DF-RHF iter  14:  -235.42281801542339   -4.54747e-13   4.31235e-11 DIIS
  Energy and wave function converged.


  ==> Post-Iterations <==

    Orbital Energies [Eh]
    ---------------------

    Doubly Occupied:                                                      

       1A    -11.222724     2A    -11.221856     3A    -11.211084  
       4A    -11.208477     5A    -11.207171     6A    -11.205558  
       7A     -1.102808     8A     -1.013544     9A     -0.927590  
      10A     -0.919557    11A     -0.836819    12A     -0.735180  
      13A     -0.649270    14A     -0.609012    15A     -0.597830  
      16A     -0.567187    17A     -0.559008    18A     -0.536456  
      19A     -0.527925    20A     -0.516652    21A     -0.491883  
      22A     -0.469892    23A     -0.452685    24A     -0.441961  
      25A     -0.421559  

    Virtual:                                                              

      26A      0.030151    27A      0.035463    28A      0.037374  
      29A      0.038148    30A      0.053305    31A      0.053795  
      32A      0.053906    33A      0.057359    34A      0.058058  
      35A      0.074946    36A      0.078179    37A      0.081107  
      38A      0.082383    39A      0.084660    40A      0.117208  
      41A      0.119287    42A      0.121447    43A      0.123491  
      44A      0.126486    45A      0.133869    46A      0.139152  
      47A      0.146408    48A      0.149019    49A      0.152831  
      50A      0.153571    51A      0.154856    52A      0.155811  
      53A      0.160748    54A      0.163647    55A      0.176374  
      56A      0.178813    57A      0.185093    58A      0.189966  
      59A      0.207295    60A      0.211302    61A      0.212391  
      62A      0.241562    63A      0.243883    64A      0.250604  
      65A      0.260699    66A      0.266120    67A      0.274811  
      68A      0.278922    69A      0.280927    70A      0.285009  
      71A      0.303597    72A      0.305954    73A      0.313807  
      74A      0.317352    75A      0.323756    76A      0.332157  
      77A      0.339058    78A      0.342804    79A      0.344639  
      80A      0.354262    81A      0.355101    82A      0.358328  
      83A      0.360384    84A      0.361660    85A      0.367191  
      86A      0.376644    87A      0.380900    88A      0.381190  
      89A      0.388937    90A      0.391582    91A      0.394048  
      92A      0.397392    93A      0.413635    94A      0.420037  
      95A      0.426775    96A      0.429674    97A      0.435708  
      98A      0.440597    99A      0.444228   100A      0.445827  
     101A      0.454204   102A      0.454481   103A      0.458546  
     104A      0.465241   105A      0.473078   106A      0.473675  
     107A      0.475088   108A      0.484301   109A      0.488066  
     110A      0.491755   111A      0.493813   112A      0.498218  
     113A      0.501681   114A      0.509538   115A      0.514674  
     116A      0.522965   117A      0.526135   118A      0.528545  
     119A      0.533452   120A      0.539162   121A      0.546126  
     122A      0.547277   123A      0.554707   124A      0.559624  
     125A      0.564286   126A      0.567096   127A      0.570518  
     128A      0.586301   129A      0.594156   130A      0.602484  
     131A      0.605073   132A      0.614338   133A      0.617567  
     134A      0.628045   135A      0.630999   136A      0.637946  
     137A      0.642270   138A      0.646444   139A      0.653859  
     140A      0.656201   141A      0.663107   142A      0.664956  
     143A      0.685913   144A      0.691345   145A      0.699884  
     146A      0.707891   147A      0.711655   148A      0.715490  
     149A      0.729056   150A      0.740160   151A      0.744037  
     152A      0.756560   153A      0.767114   154A      0.775440  
     155A      0.806962   156A      0.808933   157A      0.813776  
     158A      0.819131   159A      0.831072   160A      0.842074  
     161A      0.852147   162A      0.854593   163A      0.858382  
     164A      0.861553   165A      0.873830   166A      0.875334  
     167A      0.883210   168A      0.889221   169A      0.894591  
     170A      0.898317   171A      0.909176   172A      0.916449  
     173A      0.919107   174A      0.925174   175A      0.928472  
     176A      0.932354   177A      0.940755   178A      0.945844  
     179A      0.953490   180A      0.956303   181A      0.962038  
     182A      0.971434   183A      0.977341   184A      0.980988  
     185A      0.989086   186A      0.995609   187A      1.000328  
     188A      1.001507   189A      1.005456   190A      1.020836  
     191A      1.028912   192A      1.034842   193A      1.053395  
     194A      1.062758   195A      1.066130   196A      1.067910  
     197A      1.073459   198A      1.080781   199A      1.087477  
     200A      1.097772   201A      1.103466   202A      1.117374  
     203A      1.120864   204A      1.123867   205A      1.137195  
     206A      1.146443   207A      1.159291   208A      1.162847  
     209A      1.170717   210A      1.175943   211A      1.192118  
     212A      1.195566   213A      1.201062   214A      1.203885  
     215A      1.209467   216A      1.216534   217A      1.217211  
     218A      1.232092   219A      1.238204   220A      1.243666  
     221A      1.253744   222A      1.255483   223A      1.268647  
     224A      1.281825   225A      1.286541   226A      1.297190  
     227A      1.307380   228A      1.310396   229A      1.315988  
     230A      1.318559   231A      1.326426   232A      1.341117  
     233A      1.354739   234A      1.362165   235A      1.369587  
     236A      1.371293   237A      1.394683   238A      1.395841  
     239A      1.419149   240A      1.430761   241A      1.431926  
     242A      1.438139   243A      1.439136   244A      1.447156  
     245A      1.461057   246A      1.468494   247A      1.475741  
     248A      1.481607   249A      1.492741   250A      1.498660  
     251A      1.519579   252A      1.523565   253A      1.526211  
     254A      1.531139   255A      1.540189   256A      1.543541  
     257A      1.554775   258A      1.556836   259A      1.576052  
     260A      1.589914   261A      1.596017   262A      1.605911  
     263A      1.614330   264A      1.619192   265A      1.631683  
     266A      1.636572   267A      1.644303   268A      1.651363  
     269A      1.668458   270A      1.670916   271A      1.683790  
     272A      1.699356   273A      1.704959   274A      1.717237  
     275A      1.722298   276A      1.727806   277A      1.733115  
     278A      1.744950   279A      1.748491   280A      1.755985  
     281A      1.759213   282A      1.769478   283A      1.780244  
     284A      1.784054   285A      1.786650   286A      1.796172  
     287A      1.801230   288A      1.802524   289A      1.809780  
     290A      1.818378   291A      1.828625   292A      1.843800  
     293A      1.855160   294A      1.860816   295A      1.880058  
     296A      1.884698   297A      1.899375   298A      1.916206  
     299A      1.923335   300A      1.932983   301A      1.939694  
     302A      1.949440   303A      1.952179   304A      1.962222  
     305A      1.967313   306A      1.977286   307A      1.979177  
     308A      1.987265   309A      2.000094   310A      2.008834  
     311A      2.022137   312A      2.031651   313A      2.044222  
     314A      2.056664   315A      2.063434   316A      2.069930  
     317A      2.071265   318A      2.099701   319A      2.103656  
     320A      2.106631   321A      2.118771   322A      2.131624  
     323A      2.142087   324A      2.150331   325A      2.164188  
     326A      2.171108   327A      2.190817   328A      2.204226  
     329A      2.205436   330A      2.218257   331A      2.227008  
     332A      2.241701   333A      2.251946   334A      2.255073  
     335A      2.268695   336A      2.290980   337A      2.296944  
     338A      2.302999   339A      2.307321   340A      2.311938  
     341A      2.326333   342A      2.333232   343A      2.346267  
     344A      2.368810   345A      2.373374   346A      2.400838  
     347A      2.416975   348A      2.418027   349A      2.428868  
     350A      2.445338   351A      2.464060   352A      2.470809  
     353A      2.482100   354A      2.487988   355A      2.503995  
     356A      2.509310   357A      2.517315   358A      2.547585  
     359A      2.563764   360A      2.582395   361A      2.588047  
     362A      2.599924   363A      2.636035   364A      2.643999  
     365A      2.676918   366A      2.694250   367A      2.701608  
     368A      2.733545   369A      2.758514   370A      2.831830  
     371A      2.944499   372A      2.977032   373A      2.980805  
     374A      3.020575   375A      3.090505   376A      3.225035  
     377A      3.329142   378A      3.354259   379A      3.367900  
     380A      3.403708   381A      3.425082   382A      3.447316  
     383A      3.484391   384A      3.488288   385A      3.499043  
     386A      3.525970   387A      3.544322   388A      3.553691  
     389A      3.558111   390A      3.572124   391A      3.598582  
     392A      3.626926   393A      3.637524   394A      3.645409  
     395A      3.666282   396A      3.672319   397A      3.693869  
     398A      3.700326   399A      3.709749   400A      3.724283  
     401A      3.736776   402A      3.739981   403A      3.756422  
     404A      3.774593   405A      3.780699   406A      3.791662  
     407A      3.795275   408A      3.797048   409A      3.802226  
     410A      3.822132   411A      3.824422   412A      3.839901  
     413A      3.852597   414A      3.861122   415A      3.866451  
     416A      3.872419   417A      3.879930   418A      3.898968  
     419A      3.912716   420A      3.926400   421A      3.940175  
     422A      3.944845   423A      3.958295   424A      3.960519  
     425A      3.978084   426A      3.992842   427A      3.996609  
     428A      4.009146   429A      4.012487   430A      4.022283  
     431A      4.032983   432A      4.042713   433A      4.056930  
     434A      4.063836   435A      4.072257   436A      4.085711  
     437A      4.088719   438A      4.106386   439A      4.111546  
     440A      4.118080   441A      4.126560   442A      4.141230  
     443A      4.150721   444A      4.165152   445A      4.174273  
     446A      4.181206   447A      4.201187   448A      4.215872  
     449A      4.257452   450A      4.270851   451A      4.274999  
     452A      4.281768   453A      4.294977   454A      4.296499  
     455A      4.321713   456A      4.326745   457A      4.335775  
     458A      4.340665   459A      4.350488   460A      4.372874  
     461A      4.376684   462A      4.403130   463A      4.412548  
     464A      4.421827   465A      4.435774   466A      4.448801  
     467A      4.475227   468A      4.487704   469A      4.491650  
     470A      4.509000   471A      4.518596   472A      4.519980  
     473A      4.543014   474A      4.558629   475A      4.572431  
     476A      4.618035   477A      4.636512   478A      4.656054  
     479A      4.669279   480A      4.674417   481A      4.689327  
     482A      4.694722   483A      4.718811   484A      4.730367  
     485A      4.743126   486A      4.751920   487A      4.762766  
     488A      4.768555   489A      4.784274   490A      4.810102  
     491A      4.816024   492A      4.841541   493A      4.865593  
     494A      4.872420   495A      4.892248   496A      4.904010  
     497A      4.911505   498A      4.928040   499A      4.938714  
     500A      4.948779   501A      4.981954   502A      4.986185  
     503A      5.002501   504A      5.015608   505A      5.029917  
     506A      5.038791   507A      5.050073   508A      5.079797  
     509A      5.101513   510A      5.110228   511A      5.128767  
     512A      5.148605   513A      5.162064   514A      5.168340  
     515A      5.185601   516A      5.204534   517A      5.225966  
     518A      5.251214   519A      5.253408   520A      5.269838  
     521A      5.289800   522A      5.297665   523A      5.320359  
     524A      5.330283   525A      5.340697   526A      5.352493  
     527A      5.385244   528A      5.406864   529A      5.407469  
     530A      5.415691   531A      5.433866   532A      5.436730  
     533A      5.454430   534A      5.475071   535A      5.490626  
     536A      5.495924   537A      5.509919   538A      5.527926  
     539A      5.536132   540A      5.537946   541A      5.551153  
     542A      5.577629   543A      5.597558   544A      5.622492  
     545A      5.625336   546A      5.650105   547A      5.667516  
     548A      5.691813   549A      5.707016   550A      5.748746  
     551A      5.758671   552A      5.768522   553A      5.781144  
     554A      5.806729   555A      5.830807   556A      5.841602  
     557A      5.857288   558A      5.873203   559A      5.902802  
     560A      5.935515   561A      5.945095   562A      5.961376  
     563A      5.990256   564A      6.021056   565A      6.051180  
     566A      6.086703   567A      6.135427   568A      6.176781  
     569A      6.202650   570A      6.231389   571A      6.237657  
     572A      6.247278   573A      6.265467   574A      6.273901  
     575A      6.329683   576A      6.350697   577A      6.366848  
     578A      6.405213   579A      6.432448   580A      6.450622  
     581A      6.459936   582A      6.567326   583A      6.784316  
     584A      6.811214   585A      6.840036   586A      6.896756  
     587A      6.920509   588A      6.942299   589A      6.952720  
     590A      6.980004   591A      7.015189   592A      7.041689  
     593A     18.057119   594A     18.134216   595A     18.444008  
     596A     18.718348   597A     19.230015   598A     19.919004  

    Final Occupation by Irrep:
              A 
    DOCC [    25 ]

  @DF-RHF Final Energy:  -235.42281801542339

   => Energetics <=

    Nuclear Repulsion Energy =            263.9363439656155492
    One-Electron Energy =                -839.4109498708044157
    Two-Electron Energy =                 340.0517878897654214
    Total Energy =                       -235.4228180154233883

Computation Completed

*** tstop() called on node142.bme.utexas.edu at Thu Nov  5 15:05:15 2020
Module time:
	user time   =     353.63 seconds =       5.89 minutes
	system time =      37.28 seconds =       0.62 minutes
	total time  =         77 seconds =       1.28 minutes
Total time:
	user time   =     353.63 seconds =       5.89 minutes
	system time =      37.28 seconds =       0.62 minutes
	total time  =         77 seconds =       1.28 minutes
   => Loading Basis Set <=

    Name: (AUG-CC-PVTZ AUX)
    Role: RIFIT
    Keyword: DF_BASIS_MP2
    atoms 1-6  entry C          line   148 file /home/xy3866/psi4conda/share/psi4/basis/aug-cc-pvtz-ri.gbs 
    atoms 7-20 entry H          line    30 file /home/xy3866/psi4conda/share/psi4/basis/aug-cc-pvtz-ri.gbs 


*** tstart() called on node142.bme.utexas.edu
*** at Thu Nov  5 15:05:15 2020


  //>>>>>>>>>>>>>>>>>>>>>>>>>>>>>>>>>>>//
  //               DFMP2               //
  //<<<<<<<<<<<<<<<<<<<<<<<<<<<<<<<<<<<//

	 --------------------------------------------------------
	                          DF-MP2                         
	      2nd-Order Density-Fitted Moller-Plesset Theory     
	              RMP2 Wavefunction,   8 Threads             
	                                                         
	        Rob Parrish, Justin Turney, Andy Simmonett,      
	           Ed Hohenstein, and C. David Sherrill          
	 --------------------------------------------------------

   => Auxiliary Basis Set <=

  Basis Set: (AUG-CC-PVTZ AUX)
    Blend: AUG-CC-PVTZ-RI
    Number of shells: 364
    Number of basis function: 1280
    Number of Cartesian functions: 1586
    Spherical Harmonics?: true
    Max angular momentum: 4

	 --------------------------------------------------------
	                 NBF =   598, NAUX =  1280
	 --------------------------------------------------------
	   CLASS    FOCC     OCC    AOCC    AVIR     VIR    FVIR
	   PAIRS       0      25      25     573     573       0
	 --------------------------------------------------------

  DFHelper Memory: AOs need 3.419 GiB; user supplied 22.352 GiB. Using in-core AOs.


         ------------------------------------------------------------
                                     CPHF                           
                                  Rob Parrish                       
         ------------------------------------------------------------

  ==> Geometry <==

    Molecular point group: c1
    Full point group: C1

    Geometry (in Angstrom), charge = 0, multiplicity = 1:

       Center              X                  Y                   Z               Mass       
    ------------   -----------------  -----------------  -----------------  -----------------
         C            0.721270227474     0.305056541154    -0.373022447574    12.000000000000
         C           -0.684603772526    -0.329644458846    -0.372923447574    12.000000000000
         C            1.001005227474     1.179149541154     0.850656552426    12.000000000000
         C            1.822104227474    -0.744852458846    -0.532484447574    12.000000000000
         C           -1.095908872526    -1.115521558846     0.873234452426    12.000000000000
         C           -1.785457772526     0.720262541154    -0.532254447574    12.000000000000
         H            0.761973227474     0.954841541154    -1.259873447574     1.007825032230
         H           -0.725426772526    -0.979444458846    -1.259757447574     1.007825032230
         H            1.039495227474     0.578257541154     1.764540552426     1.007825032230
         H            1.970195227474     1.677173541154     0.744579552426     1.007825032230
         H            0.243541227474     1.956214541154     0.985848552426     1.007825032230
         H            2.797870227474    -0.264799458846    -0.659811447574     1.007825032230
         H            1.886824227474    -1.391831458846     0.347756552426     1.007825032230
         H            1.641389227474    -1.378652458846    -1.407024447574     1.007825032230
         H           -0.206698772526    -1.980781458846     0.985913552426     1.007825032230
         H           -1.002545772526    -0.602808458846     1.764686552426     1.007825032230
         H           -1.933383772526    -1.701739458846     0.744867552426     1.007825032230
         H           -1.850055772526     1.367257541154     0.347983552426     1.007825032230
         H           -2.761240772526     0.240209541154    -0.659440447574     1.007825032230
         H           -1.604859772526     1.354047541154    -1.406830447574     1.007825032230

  Nuclear repulsion =  263.936343965615549
  Reference energy  = -235.422818015423388

  ==> Basis Set <==

  Basis Set: AUG-CC-PVTZ
    Blend: AUG-CC-PVTZ
    Number of shells: 210
    Number of basis function: 598
    Number of Cartesian functions: 680
    Spherical Harmonics?: true
    Max angular momentum: 3

  ==> CGRSolver (by Rob Parrish) <==

   Number of roots    =         1
   Preconditioning    =    JACOBI
   Convergence cutoff =     1E-06
   Maximum iterations =       100

  ==> CPHFRHamiltonian (by Rob Parrish) <== 

  ==> MemDFJK: Density-Fitted J/K Matrices <==

    J tasked:                   Yes
    K tasked:                   Yes
    wK tasked:                   No
    OpenMP threads:               8
    Memory [MiB]:             22888
    Algorithm:                 Disk
    Schwarz Cutoff:           1E-12
    Mask sparsity (%):       1.9267
    Fitting Condition:        1E-10

   => Auxiliary Basis Set <=

  Basis Set: (AUG-CC-PVTZ AUX)
    Blend: AUG-CC-PVTZ-JKFIT
    Number of shells: 376
    Number of basis function: 1268
    Number of Cartesian functions: 1556
    Spherical Harmonics?: true
    Max angular momentum: 4

  ==> CPHF Iterations <==

  => Iterations <=

             Iter  Converged  Remaining    Residual
  CGR           1          0          1   8.960E-02
  CGR           2          0          1   1.503E-02
  CGR           3          0          1   4.735E-03
  CGR           4          0          1   1.173E-03
  CGR           5          0          1   2.977E-04
  CGR           6          0          1   8.910E-05
  CGR           7          0          1   2.365E-05
  CGR           8          0          1   6.185E-06
  CGR           9          0          1   1.401E-06
  CGR          10          1          0   3.513E-07

    CGRSolver converged.

	-----------------------------------------------------------
	 ==================> DF-MP2 Energies <==================== 
	-----------------------------------------------------------
	 Reference Energy          =    -235.4228180154233883 [Eh]
	 Singles Energy            =      -0.0000000000000000 [Eh]
	 Same-Spin Energy          =      -0.2547762851818212 [Eh]
	 Opposite-Spin Energy      =      -0.9541374058363296 [Eh]
	 Correlation Energy        =      -1.2089136910181506 [Eh]
	 Total Energy              =    -236.6317317064415420 [Eh]
	-----------------------------------------------------------
	 ================> DF-SCS-MP2 Energies <================== 
	-----------------------------------------------------------
	 SCS Same-Spin Scale       =       0.3333333333333333 [-]
	 SCS Opposite-Spin Scale   =       1.2000000000000000 [-]
	 SCS Same-Spin Energy      =      -0.0849254283939404 [Eh]
	 SCS Opposite-Spin Energy  =      -1.1449648870035953 [Eh]
	 SCS Correlation Energy    =      -1.2298903153975358 [Eh]
	 SCS Total Energy          =    -236.6527083308209285 [Eh]
	-----------------------------------------------------------



Properties will be evaluated at   0.000000,   0.000000,  -0.000000 [a0]

Properties computed using the MP2 density matrix

  Nuclear Dipole Moment: [e a0]
     X:     0.2410      Y:    -0.1613      Z:     0.9688

  Electronic Dipole Moment: [e a0]
     X:    -0.2487      Y:     0.1857      Z:    -1.0257

  Dipole Moment: [e a0]
     X:    -0.0077      Y:     0.0244      Z:    -0.0569     Total:     0.0624

  Dipole Moment: [D]
     X:    -0.0195      Y:     0.0621      Z:    -0.1446     Total:     0.1586


*** tstop() called on node142.bme.utexas.edu at Thu Nov  5 15:13:22 2020
Module time:
	user time   =     842.58 seconds =      14.04 minutes
	system time =      37.89 seconds =       0.63 minutes
	total time  =        487 seconds =       8.12 minutes
Total time:
	user time   =    1197.52 seconds =      19.96 minutes
	system time =      75.27 seconds =       1.25 minutes
	total time  =        564 seconds =       9.40 minutes

    Psi4 stopped on: Thursday, 05 November 2020 03:13PM
    Psi4 wall time for execution: 0:09:24.52

*** Psi4 exiting successfully. Buy a developer a beer!
