70933                                                                   
Freq      RMP2-FC                                                     6-31G(d)            
Number of atoms                            I               15
Info1-9                                    I   N=           9
          27          25        1002           0           0         100
           6           2           1
Charge                                     I                0
Multiplicity                               I                1
Number of electrons                        I               40
Number of alpha electrons                  I               20
Number of beta electrons                   I               20
Number of basis functions                  I               95
Number of independent functions            I               95
Number of point charges in /Mol/           I                0
Number of translation vectors              I                0
Atomic numbers                             I   N=          15
           6           6           6           6           6           1
           1           1           1           1           1           1
           1           1           1
Nuclear charges                            R   N=          15
  6.00000000E+00  6.00000000E+00  6.00000000E+00  6.00000000E+00  6.00000000E+00
  1.00000000E+00  1.00000000E+00  1.00000000E+00  1.00000000E+00  1.00000000E+00
  1.00000000E+00  1.00000000E+00  1.00000000E+00  1.00000000E+00  1.00000000E+00
Current cartesian coordinates              R   N=          45
  6.81718945E-01 -2.60415730E-01  9.03924959E-01  3.23990730E+00 -9.57537423E-01
 -1.15299214E-01  2.29098012E+00  1.71586119E+00 -3.57175285E-01 -1.69303806E+00
 -1.18334474E+00 -3.79423130E-01 -3.93508603E+00  5.80919923E-01  5.81658863E-02
  5.45029214E-01 -1.20122029E-01  2.95281046E+00  3.30198364E+00 -2.10694630E+00
 -1.81422559E+00  4.75726855E+00 -1.33474522E+00  1.21168792E+00  3.16214109E+00
  3.16698843E+00  8.00574920E-01  1.71387129E+00  2.35784306E+00 -2.21970854E+00
 -2.14999636E+00 -3.09034203E+00  2.95373830E-01 -1.32547661E+00 -1.35612929E+00
 -2.41375646E+00 -4.35148560E+00  7.52081084E-01  2.07657873E+00 -3.52143939E+00
  2.47240994E+00 -6.65292095E-01 -5.63878954E+00 -1.13937006E-01 -8.85202481E-01
Force Field                                I                0
Int Atom Types                             I   N=          15
           0           0           0           0           0           0
           0           0           0           0           0           0
           0           0           0
MM charges                                 R   N=          15
  0.00000000E+00  0.00000000E+00  0.00000000E+00  0.00000000E+00  0.00000000E+00
  0.00000000E+00  0.00000000E+00  0.00000000E+00  0.00000000E+00  0.00000000E+00
  0.00000000E+00  0.00000000E+00  0.00000000E+00  0.00000000E+00  0.00000000E+00
Integer atomic weights                     I   N=          15
          12          12          12          12          12           1
           1           1           1           1           1           1
           1           1           1
Real atomic weights                        R   N=          15
  1.20000000E+01  1.20000000E+01  1.20000000E+01  1.20000000E+01  1.20000000E+01
  1.00782504E+00  1.00782504E+00  1.00782504E+00  1.00782504E+00  1.00782504E+00
  1.00782504E+00  1.00782504E+00  1.00782504E+00  1.00782504E+00  1.00782504E+00
Atom fragment info                         I   N=          15
           0           0           0           0           0           0
           0           0           0           0           0           0
           0           0           0
Atom residue num                           I   N=          15
           0           0           0           0           0           0
           0           0           0           0           0           0
           0           0           0
Nuclear spins                              I   N=          15
           0           0           0           0           0           1
           1           1           1           1           1           1
           1           1           1
Nuclear ZEff                               R   N=          15
 -3.60000000E+00 -3.60000000E+00 -3.60000000E+00 -3.60000000E+00 -3.60000000E+00
 -1.00000000E+00 -1.00000000E+00 -1.00000000E+00 -1.00000000E+00 -1.00000000E+00
 -1.00000000E+00 -1.00000000E+00 -1.00000000E+00 -1.00000000E+00 -1.00000000E+00
Nuclear QMom                               R   N=          15
  0.00000000E+00  0.00000000E+00  0.00000000E+00  0.00000000E+00  0.00000000E+00
  0.00000000E+00  0.00000000E+00  0.00000000E+00  0.00000000E+00  0.00000000E+00
  0.00000000E+00  0.00000000E+00  0.00000000E+00  0.00000000E+00  0.00000000E+00
Nuclear GFac                               R   N=          15
  0.00000000E+00  0.00000000E+00  0.00000000E+00  0.00000000E+00  0.00000000E+00
  2.79284600E+00  2.79284600E+00  2.79284600E+00  2.79284600E+00  2.79284600E+00
  2.79284600E+00  2.79284600E+00  2.79284600E+00  2.79284600E+00  2.79284600E+00
MicOpt                                     I   N=          15
          -1          -1          -1          -1          -1          -1
          -1          -1          -1          -1          -1          -1
          -1          -1          -1
Number of contracted shells                I               40
Number of primitive shells                 I               95
Pure/Cartesian d shells                    I                1
Pure/Cartesian f shells                    I                0
Highest angular momentum                   I                2
Largest degree of contraction              I                6
Shell types                                I   N=          40
           0          -1          -1           2           0          -1
          -1           2           0          -1          -1           2
           0          -1          -1           2           0          -1
          -1           2           0           0           0           0
           0           0           0           0           0           0
           0           0           0           0           0           0
           0           0           0           0
Number of primitives per shell             I   N=          40
           6           3           1           1           6           3
           1           1           6           3           1           1
           6           3           1           1           6           3
           1           1           3           1           3           1
           3           1           3           1           3           1
           3           1           3           1           3           1
           3           1           3           1
Shell to atom map                          I   N=          40
           1           1           1           1           2           2
           2           2           3           3           3           3
           4           4           4           4           5           5
           5           5           6           6           7           7
           8           8           9           9          10          10
          11          11          12          12          13          13
          14          14          15          15
Primitive exponents                        R   N=          95
  3.04752488E+03  4.57369518E+02  1.03948685E+02  2.92101553E+01  9.28666296E+00
  3.16392696E+00  7.86827235E+00  1.88128854E+00  5.44249258E-01  1.68714478E-01
  8.00000000E-01  3.04752488E+03  4.57369518E+02  1.03948685E+02  2.92101553E+01
  9.28666296E+00  3.16392696E+00  7.86827235E+00  1.88128854E+00  5.44249258E-01
  1.68714478E-01  8.00000000E-01  3.04752488E+03  4.57369518E+02  1.03948685E+02
  2.92101553E+01  9.28666296E+00  3.16392696E+00  7.86827235E+00  1.88128854E+00
  5.44249258E-01  1.68714478E-01  8.00000000E-01  3.04752488E+03  4.57369518E+02
  1.03948685E+02  2.92101553E+01  9.28666296E+00  3.16392696E+00  7.86827235E+00
  1.88128854E+00  5.44249258E-01  1.68714478E-01  8.00000000E-01  3.04752488E+03
  4.57369518E+02  1.03948685E+02  2.92101553E+01  9.28666296E+00  3.16392696E+00
  7.86827235E+00  1.88128854E+00  5.44249258E-01  1.68714478E-01  8.00000000E-01
  1.87311370E+01  2.82539436E+00  6.40121692E-01  1.61277759E-01  1.87311370E+01
  2.82539436E+00  6.40121692E-01  1.61277759E-01  1.87311370E+01  2.82539436E+00
  6.40121692E-01  1.61277759E-01  1.87311370E+01  2.82539436E+00  6.40121692E-01
  1.61277759E-01  1.87311370E+01  2.82539436E+00  6.40121692E-01  1.61277759E-01
  1.87311370E+01  2.82539436E+00  6.40121692E-01  1.61277759E-01  1.87311370E+01
  2.82539436E+00  6.40121692E-01  1.61277759E-01  1.87311370E+01  2.82539436E+00
  6.40121692E-01  1.61277759E-01  1.87311370E+01  2.82539436E+00  6.40121692E-01
  1.61277759E-01  1.87311370E+01  2.82539436E+00  6.40121692E-01  1.61277759E-01
Contraction coefficients                   R   N=          95
  1.83473713E-03  1.40373228E-02  6.88426223E-02  2.32184443E-01  4.67941348E-01
  3.62311985E-01 -1.19332420E-01 -1.60854152E-01  1.14345644E+00  1.00000000E+00
  1.00000000E+00  1.83473713E-03  1.40373228E-02  6.88426223E-02  2.32184443E-01
  4.67941348E-01  3.62311985E-01 -1.19332420E-01 -1.60854152E-01  1.14345644E+00
  1.00000000E+00  1.00000000E+00  1.83473713E-03  1.40373228E-02  6.88426223E-02
  2.32184443E-01  4.67941348E-01  3.62311985E-01 -1.19332420E-01 -1.60854152E-01
  1.14345644E+00  1.00000000E+00  1.00000000E+00  1.83473713E-03  1.40373228E-02
  6.88426223E-02  2.32184443E-01  4.67941348E-01  3.62311985E-01 -1.19332420E-01
 -1.60854152E-01  1.14345644E+00  1.00000000E+00  1.00000000E+00  1.83473713E-03
  1.40373228E-02  6.88426223E-02  2.32184443E-01  4.67941348E-01  3.62311985E-01
 -1.19332420E-01 -1.60854152E-01  1.14345644E+00  1.00000000E+00  1.00000000E+00
  3.34946043E-02  2.34726953E-01  8.13757326E-01  1.00000000E+00  3.34946043E-02
  2.34726953E-01  8.13757326E-01  1.00000000E+00  3.34946043E-02  2.34726953E-01
  8.13757326E-01  1.00000000E+00  3.34946043E-02  2.34726953E-01  8.13757326E-01
  1.00000000E+00  3.34946043E-02  2.34726953E-01  8.13757326E-01  1.00000000E+00
  3.34946043E-02  2.34726953E-01  8.13757326E-01  1.00000000E+00  3.34946043E-02
  2.34726953E-01  8.13757326E-01  1.00000000E+00  3.34946043E-02  2.34726953E-01
  8.13757326E-01  1.00000000E+00  3.34946043E-02  2.34726953E-01  8.13757326E-01
  1.00000000E+00  3.34946043E-02  2.34726953E-01  8.13757326E-01  1.00000000E+00
P(S=P) Contraction coefficients            R   N=          95
  0.00000000E+00  0.00000000E+00  0.00000000E+00  0.00000000E+00  0.00000000E+00
  0.00000000E+00  6.89990666E-02  3.16423961E-01  7.44308291E-01  1.00000000E+00
  0.00000000E+00  0.00000000E+00  0.00000000E+00  0.00000000E+00  0.00000000E+00
  0.00000000E+00  0.00000000E+00  6.89990666E-02  3.16423961E-01  7.44308291E-01
  1.00000000E+00  0.00000000E+00  0.00000000E+00  0.00000000E+00  0.00000000E+00
  0.00000000E+00  0.00000000E+00  0.00000000E+00  6.89990666E-02  3.16423961E-01
  7.44308291E-01  1.00000000E+00  0.00000000E+00  0.00000000E+00  0.00000000E+00
  0.00000000E+00  0.00000000E+00  0.00000000E+00  0.00000000E+00  6.89990666E-02
  3.16423961E-01  7.44308291E-01  1.00000000E+00  0.00000000E+00  0.00000000E+00
  0.00000000E+00  0.00000000E+00  0.00000000E+00  0.00000000E+00  0.00000000E+00
  6.89990666E-02  3.16423961E-01  7.44308291E-01  1.00000000E+00  0.00000000E+00
  0.00000000E+00  0.00000000E+00  0.00000000E+00  0.00000000E+00  0.00000000E+00
  0.00000000E+00  0.00000000E+00  0.00000000E+00  0.00000000E+00  0.00000000E+00
  0.00000000E+00  0.00000000E+00  0.00000000E+00  0.00000000E+00  0.00000000E+00
  0.00000000E+00  0.00000000E+00  0.00000000E+00  0.00000000E+00  0.00000000E+00
  0.00000000E+00  0.00000000E+00  0.00000000E+00  0.00000000E+00  0.00000000E+00
  0.00000000E+00  0.00000000E+00  0.00000000E+00  0.00000000E+00  0.00000000E+00
  0.00000000E+00  0.00000000E+00  0.00000000E+00  0.00000000E+00  0.00000000E+00
  0.00000000E+00  0.00000000E+00  0.00000000E+00  0.00000000E+00  0.00000000E+00
Coordinates of each shell                  R   N=         120
  6.81718945E-01 -2.60415730E-01  9.03924959E-01  6.81718945E-01 -2.60415730E-01
  9.03924959E-01  6.81718945E-01 -2.60415730E-01  9.03924959E-01  6.81718945E-01
 -2.60415730E-01  9.03924959E-01  3.23990730E+00 -9.57537423E-01 -1.15299214E-01
  3.23990730E+00 -9.57537423E-01 -1.15299214E-01  3.23990730E+00 -9.57537423E-01
 -1.15299214E-01  3.23990730E+00 -9.57537423E-01 -1.15299214E-01  2.29098012E+00
  1.71586119E+00 -3.57175285E-01  2.29098012E+00  1.71586119E+00 -3.57175285E-01
  2.29098012E+00  1.71586119E+00 -3.57175285E-01  2.29098012E+00  1.71586119E+00
 -3.57175285E-01 -1.69303806E+00 -1.18334474E+00 -3.79423130E-01 -1.69303806E+00
 -1.18334474E+00 -3.79423130E-01 -1.69303806E+00 -1.18334474E+00 -3.79423130E-01
 -1.69303806E+00 -1.18334474E+00 -3.79423130E-01 -3.93508603E+00  5.80919923E-01
  5.81658863E-02 -3.93508603E+00  5.80919923E-01  5.81658863E-02 -3.93508603E+00
  5.80919923E-01  5.81658863E-02 -3.93508603E+00  5.80919923E-01  5.81658863E-02
  5.45029214E-01 -1.20122029E-01  2.95281046E+00  5.45029214E-01 -1.20122029E-01
  2.95281046E+00  3.30198364E+00 -2.10694630E+00 -1.81422559E+00  3.30198364E+00
 -2.10694630E+00 -1.81422559E+00  4.75726855E+00 -1.33474522E+00  1.21168792E+00
  4.75726855E+00 -1.33474522E+00  1.21168792E+00  3.16214109E+00  3.16698843E+00
  8.00574920E-01  3.16214109E+00  3.16698843E+00  8.00574920E-01  1.71387129E+00
  2.35784306E+00 -2.21970854E+00  1.71387129E+00  2.35784306E+00 -2.21970854E+00
 -2.14999636E+00 -3.09034203E+00  2.95373830E-01 -2.14999636E+00 -3.09034203E+00
  2.95373830E-01 -1.32547661E+00 -1.35612929E+00 -2.41375646E+00 -1.32547661E+00
 -1.35612929E+00 -2.41375646E+00 -4.35148560E+00  7.52081084E-01  2.07657873E+00
 -4.35148560E+00  7.52081084E-01  2.07657873E+00 -3.52143939E+00  2.47240994E+00
 -6.65292095E-01 -3.52143939E+00  2.47240994E+00 -6.65292095E-01 -5.63878954E+00
 -1.13937006E-01 -8.85202481E-01 -5.63878954E+00 -1.13937006E-01 -8.85202481E-01
Constraint Structure                       R   N=          45
  6.81718945E-01 -2.60415730E-01  9.03924959E-01  3.23990730E+00 -9.57537423E-01
 -1.15299214E-01  2.29098012E+00  1.71586119E+00 -3.57175285E-01 -1.69303806E+00
 -1.18334474E+00 -3.79423130E-01 -3.93508603E+00  5.80919923E-01  5.81658863E-02
  5.45029214E-01 -1.20122029E-01  2.95281046E+00  3.30198364E+00 -2.10694630E+00
 -1.81422559E+00  4.75726855E+00 -1.33474522E+00  1.21168792E+00  3.16214109E+00
  3.16698843E+00  8.00574920E-01  1.71387129E+00  2.35784306E+00 -2.21970854E+00
 -2.14999636E+00 -3.09034203E+00  2.95373830E-01 -1.32547661E+00 -1.35612929E+00
 -2.41375646E+00 -4.35148560E+00  7.52081084E-01  2.07657873E+00 -3.52143939E+00
  2.47240994E+00 -6.65292095E-01 -5.63878954E+00 -1.13937006E-01 -8.85202481E-01
Num ILSW                                   I              100
ILSW                                       I   N=         100
           0           1           0           0           2           0
           0           0           0           0           0          -1
           0           0           0           0           0           0
           0           0           0           0           1           0
           1           0           0           0           0           0
           0           0      100000           0          -1           0
           0           0           0           0           0           0
           0           0           0           1           1           0
           0           0           1           0           0           0
           0           0           4          40           0           0
           0           0           0           0           0           0
           0           0           0           0           0           0
           0           0           0           0           0           0
           0           0           0           0           0           0
           0           0           0           0           0           0
           0           0           0           0           0           0
           0           0           0           0
Num RLSW                                   I               40
RLSW                                       R   N=          40
  1.00000000E+00  1.00000000E+00  1.00000000E+00  1.00000000E+00  1.00000000E+00
  0.00000000E+00  0.00000000E+00  1.00000000E+00  0.00000000E+00  0.00000000E+00
  0.00000000E+00  0.00000000E+00  1.00000000E+00  0.00000000E+00  0.00000000E+00
  0.00000000E+00  0.00000000E+00  1.00000000E+00  0.00000000E+00  0.00000000E+00
  0.00000000E+00  0.00000000E+00  1.00000000E+00  0.00000000E+00  0.00000000E+00
  0.00000000E+00  0.00000000E+00  1.00000000E+00  0.00000000E+00  0.00000000E+00
  0.00000000E+00  0.00000000E+00  0.00000000E+00  0.00000000E+00  0.00000000E+00
  0.00000000E+00  0.00000000E+00  0.00000000E+00  1.00000000E+00  1.00000000E+00
MxBond                                     I                4
NBond                                      I   N=          15
           4           4           4           4           4           1
           1           1           1           1           1           1
           1           1           1
IBond                                      I   N=          60
           2           3           4           6           1           3
           7           8           1           2           9          10
           1           5          11          12           4          13
          14          15           1           0           0           0
           2           0           0           0           2           0
           0           0           3           0           0           0
           3           0           0           0           4           0
           0           0           4           0           0           0
           5           0           0           0           5           0
           0           0           5           0           0           0
RBond                                      R   N=          60
  1.00000000E+00  1.00000000E+00  1.00000000E+00  1.00000000E+00  1.00000000E+00
  1.00000000E+00  1.00000000E+00  1.00000000E+00  1.00000000E+00  1.00000000E+00
  1.00000000E+00  1.00000000E+00  1.00000000E+00  1.00000000E+00  1.00000000E+00
  1.00000000E+00  1.00000000E+00  1.00000000E+00  1.00000000E+00  1.00000000E+00
  1.00000000E+00  0.00000000E+00  0.00000000E+00  0.00000000E+00  1.00000000E+00
  0.00000000E+00  0.00000000E+00  0.00000000E+00  1.00000000E+00  0.00000000E+00
  0.00000000E+00  0.00000000E+00  1.00000000E+00  0.00000000E+00  0.00000000E+00
  0.00000000E+00  1.00000000E+00  0.00000000E+00  0.00000000E+00  0.00000000E+00
  1.00000000E+00  0.00000000E+00  0.00000000E+00  0.00000000E+00  1.00000000E+00
  0.00000000E+00  0.00000000E+00  0.00000000E+00  1.00000000E+00  0.00000000E+00
  0.00000000E+00  0.00000000E+00  1.00000000E+00  0.00000000E+00  0.00000000E+00
  0.00000000E+00  1.00000000E+00  0.00000000E+00  0.00000000E+00  0.00000000E+00
Virial Ratio                               R      2.001175588237123E+00
SCF Energy                                 R     -1.951301217839554E+02
MP2 Energy                                 R     -1.957837274702479E+02
Total Energy                               R     -1.957837274702479E+02
Post-SCF wavefunction norm                 R      1.562311710093119E+00
RMS Force                                  R      2.575715795007038E-07
RMS Density                                R      1.407625320973079E-09
External E-field                           R   N=          35
  0.00000000E+00  0.00000000E+00  0.00000000E+00  0.00000000E+00  0.00000000E+00
  0.00000000E+00  0.00000000E+00  0.00000000E+00  0.00000000E+00  0.00000000E+00
  0.00000000E+00  0.00000000E+00  0.00000000E+00  0.00000000E+00  0.00000000E+00
  0.00000000E+00  0.00000000E+00  0.00000000E+00  0.00000000E+00  0.00000000E+00
  0.00000000E+00  0.00000000E+00  0.00000000E+00  0.00000000E+00  0.00000000E+00
  0.00000000E+00  0.00000000E+00  0.00000000E+00  0.00000000E+00  0.00000000E+00
  0.00000000E+00  0.00000000E+00  0.00000000E+00  0.00000000E+00  0.00000000E+00
IOpCl                                      I                0
IROHF                                      I                0
Alpha Orbital Energies                     R   N=          95
 -1.12243386E+01 -1.12197405E+01 -1.12192893E+01 -1.12186834E+01 -1.12101765E+01
 -1.14137324E+00 -1.01888667E+00 -8.64567983E-01 -8.14744057E-01 -7.65359916E-01
 -6.61253914E-01 -6.22410556E-01 -5.92251459E-01 -5.51325640E-01 -5.18992524E-01
 -5.05462547E-01 -4.89120842E-01 -4.70257160E-01 -4.06792756E-01 -3.96810488E-01
  2.38664063E-01  2.53146218E-01  2.62701554E-01  2.89201992E-01  3.13503612E-01
  3.20250079E-01  3.25442073E-01  3.40851027E-01  3.47113276E-01  3.54536524E-01
  3.85028185E-01  4.07752833E-01  4.37560148E-01  4.45926193E-01  4.99016529E-01
  6.72625092E-01  7.12269644E-01  7.35129287E-01  7.53064479E-01  7.65205515E-01
  8.12121756E-01  8.79418562E-01  9.03204808E-01  9.14637187E-01  9.31010601E-01
  9.49823689E-01  9.97039556E-01  1.02006483E+00  1.06334194E+00  1.12021023E+00
  1.14235908E+00  1.15252634E+00  1.16099910E+00  1.18190706E+00  1.20210046E+00
  1.20913179E+00  1.22805721E+00  1.23733525E+00  1.24967042E+00  1.29922020E+00
  1.35613995E+00  1.38705855E+00  1.53266449E+00  1.63809669E+00  1.78407428E+00
  1.82278851E+00  1.93519701E+00  1.99729540E+00  2.08835404E+00  2.14385576E+00
  2.17930042E+00  2.19225367E+00  2.21138597E+00  2.26386179E+00  2.31612550E+00
  2.36063607E+00  2.46309394E+00  2.46432953E+00  2.55697962E+00  2.61640824E+00
  2.64475381E+00  2.65768076E+00  2.68768272E+00  2.79358890E+00  2.85773351E+00
  2.90192372E+00  2.96370479E+00  3.01366936E+00  3.11324648E+00  3.18037802E+00
  4.55334846E+00  4.64160678E+00  4.81902847E+00  4.86072878E+00  4.97347729E+00
Alpha MO coefficients                      R   N=        9025
  9.89070772E-01  2.83162472E-02  6.34561742E-04  2.31591353E-04 -5.85930127E-04
 -1.73229686E-02 -1.46670569E-03 -5.71767637E-04  3.04845882E-03 -1.36405691E-03
 -1.62141343E-03 -1.45521051E-03  7.99826308E-05 -1.01454118E-04 -7.08748694E-06
  6.66127492E-02  2.03229720E-03 -8.11431487E-05 -5.60731898E-05  3.90840921E-05
  3.32702545E-03 -1.64855849E-03 -2.75813369E-04  3.57570006E-04 -5.56384761E-04
 -3.44577475E-04 -2.81260023E-04  2.22397864E-04  2.32727296E-04 -3.63794793E-05
  6.54365880E-02  1.89646777E-03 -1.03153348E-04 -1.01719675E-05  3.00888213E-05
  4.16612618E-03 -1.59572804E-03 -1.06268270E-03  5.70658231E-04 -3.13776800E-04
 -5.77194531E-04 -3.47994298E-04 -1.35424466E-04  1.71633077E-04  2.09450399E-04
  6.85458487E-02  2.01783055E-03  2.97122175E-05 -3.36863942E-06  9.59654346E-05
  2.36541060E-03  2.63850441E-03  5.07629652E-04 -5.59871122E-04 -3.70572801E-04
 -2.79763115E-04 -3.36157785E-04 -2.90626428E-05 -2.10004908E-04 -1.17684613E-04
  8.43937697E-04 -2.97187929E-04 -1.14795719E-04 -9.10683976E-06 -5.53636731E-05
  1.71186239E-03  7.48269837E-04 -3.84264682E-04  4.99901519E-04 -7.07693867E-05
 -8.17068777E-05 -1.34298783E-04 -1.94091521E-05  5.13690399E-05  1.42891271E-06
 -1.50365256E-05  1.63267759E-03 -1.72176885E-04 -1.87379141E-04 -1.45155578E-04
  1.87662466E-04 -1.77288554E-04  1.68613366E-04 -1.98586685E-04 -1.74628313E-04
 -6.35727311E-05  5.47421185E-04 -2.15479811E-04 -4.86359024E-04 -1.02838937E-04
 -4.67426595E-04 -1.05402368E-04  1.07748868E-05 -4.45463441E-05  3.49487299E-04
 -5.98689056E-02 -1.66055558E-03 -1.00263626E-04 -9.37878690E-06  8.46115750E-05
  4.58270730E-03 -2.07840900E-03 -8.74649111E-04 -1.39813032E-03 -2.04426282E-04
 -8.22860633E-05 -6.50451218E-05 -1.16217450E-04 -1.92674649E-04 -7.31904931E-05
 -6.85443352E-02 -2.06916197E-03  1.39907407E-04 -5.61422649E-05 -1.81818898E-05
  4.25351743E-04  1.21373692E-04  4.71240146E-05  3.48188814E-04  1.06693241E-04
  1.24052502E-04  1.02602437E-04 -1.83878175E-05 -3.77771460E-05  3.95668882E-05
 -6.57196568E-02 -2.11919742E-03  1.33253934E-04  1.44637376E-04  2.56841431E-06
  1.12823815E-03 -2.34757329E-04 -4.73789384E-04  5.99571173E-05  5.49019454E-05
  1.05210663E-04  7.34198981E-05  9.61403080E-06 -6.75267577E-06 -8.20169330E-05
  9.89067309E-01  2.83671311E-02  5.16492560E-05  1.39451017E-04  3.27363336E-05
 -1.79176708E-02 -6.24153845E-04 -1.15692770E-03 -4.07859902E-04 -1.57831596E-03
 -1.55090341E-03 -1.53506962E-03  1.47044453E-05 -4.08310781E-07 -3.09010553E-05
  3.07201509E-02  9.19063072E-04  9.61411464E-05 -2.47672612E-05  2.11886062E-05
  3.86346812E-03  1.49461535E-03 -1.04893937E-03 -3.99676140E-04 -3.70315433E-04
 -3.50166906E-04 -1.74421060E-04  2.20850887E-04  4.00596368E-05 -7.30775603E-05
 -7.40157128E-05  1.51966442E-04  3.59454579E-05 -7.00365425E-05  1.36798214E-05
 -2.37652880E-04  4.99560872E-05  2.41299495E-05 -8.12445854E-05 -9.90878252E-05
  2.18563824E-04  2.45790618E-03  3.03915824E-04  2.76105193E-03 -1.53106143E-04
  1.43674182E-04 -1.53366540E-04 -1.65598101E-05 -1.39890199E-04 -9.97726743E-05
 -9.96711065E-02 -2.46555008E-03 -1.26219793E-04 -4.12486701E-05  5.61910779E-05
  5.46721104E-03  9.05649486E-04  2.44963143E-04  1.10870485E-04 -5.38846254E-04
 -1.10160677E-04 -1.09903973E-04 -1.44902601E-04  2.84813664E-04  9.22938069E-05
  7.30804911E-01  2.06767038E-02 -4.14174157E-04  3.86072926E-04  7.87373232E-05
 -8.29484558E-03  8.95130936E-04  7.52319972E-05 -5.00754900E-04 -1.29014872E-03
 -1.62514371E-03 -1.35533739E-03 -3.08815528E-05  1.75433204E-05  1.02590469E-04
  6.62877472E-01  1.87652539E-02 -8.37386095E-05 -4.79857844E-04  1.35682561E-04
 -7.04133754E-03  8.54515629E-04  2.29883977E-04 -4.75333969E-04 -1.33412375E-03
 -1.41598005E-03 -1.22633660E-03  2.07352168E-04  3.53715256E-05 -1.55704660E-05
  8.85692115E-02  2.25716190E-03 -1.50812110E-04 -5.22625077E-05  6.58406704E-05
 -1.12285247E-03  6.49125480E-04  2.10391366E-04 -6.59716581E-04 -1.25641258E-04
 -2.59337055E-04 -1.73928390E-04  7.52480324E-05  1.87615675E-05  2.03210956E-05
  2.97234998E-03  1.18491351E-04  8.96778055E-06  1.23301929E-05 -2.04699609E-05
  2.68270677E-04  6.42175163E-05 -4.91304638E-04  1.96808117E-04 -5.18906708E-05
  1.16584755E-05 -4.45013993E-06 -2.14830383E-05  1.98958787E-05 -5.65295854E-06
 -2.64775097E-04 -5.80467495E-04 -4.69994615E-05  1.55969061E-03 -6.08330350E-05
  1.61440190E-03 -7.99787373E-05  1.43649967E-03 -4.80740233E-05  1.38945464E-03
  7.16199899E-05  4.35136855E-04 -1.34495125E-04 -1.22577110E-04 -1.60100830E-05
 -7.31040855E-05 -2.08280413E-05  3.79857252E-04 -1.87481738E-05 -1.64013851E-06
 -3.87921435E-03 -6.98968716E-05  4.78294556E-05 -3.27083737E-05 -6.40368139E-06
 -9.32537734E-05 -6.72161007E-04  1.92102099E-03  6.33832728E-05  7.87439935E-05
 -1.33216257E-04 -3.32885947E-05 -2.05213603E-04  3.53047933E-06  1.23608264E-04
 -6.69547258E-01 -1.88863897E-02  4.22260327E-04 -4.28343976E-04 -8.76534331E-05
  1.29627670E-02 -1.19423469E-03  2.01668187E-03 -5.99192173E-05  9.70722842E-04
  7.33410974E-04  1.10033010E-03  3.24216765E-04 -2.21838814E-05 -4.73789108E-05
  7.37224886E-01  2.07879831E-02 -9.03323990E-05 -6.49141513E-04  1.93428910E-04
 -1.34653161E-02 -3.45934995E-04  2.27148723E-03 -3.63407560E-04 -1.28124102E-03
 -7.02021091E-04 -1.19923546E-03 -1.79255012E-05  5.51264290E-05 -1.29849058E-04
  2.30850087E-03 -6.03574838E-05 -7.13977345E-06 -9.86758802E-05 -1.01352474E-06
  7.30196177E-04  1.95616684E-05  4.43091380E-04  8.92033824E-05 -1.30400254E-05
 -3.13754111E-05 -3.76542756E-05 -1.54893034E-05  2.28567022E-05 -5.29019105E-05
  1.26830151E-05  1.67398104E-04  6.27306762E-06  7.80129032E-06  3.35177387E-05
 -9.60953523E-04 -5.33712440E-04 -4.30834020E-07 -1.51842096E-04 -3.84906699E-06
  7.43343348E-05  4.22946267E-05  1.55228009E-05  4.12123467E-06  6.23190618E-06
 -2.99400498E-05 -1.02535849E-04 -1.76065382E-04 -1.58268646E-03 -1.54048081E-04
 -1.53008168E-03  1.39506198E-04  1.67515237E-03  1.66134646E-04  1.69681950E-03
 -2.65129682E-05  3.26083680E-04 -2.06983710E-05 -4.58597720E-05  9.56504345E-05
  5.90715903E-05  2.16759172E-05  1.98210163E-04  8.46608348E-06 -1.34314623E-04
  1.18546935E-03 -2.62490067E-04  1.18854780E-04 -4.69001075E-05  5.58610626E-06
  9.12751226E-04 -5.67326495E-04  4.45106740E-04  1.40890647E-05 -4.27811626E-05
 -8.04017764E-05 -1.04408216E-04 -1.22185335E-06  4.28534667E-05  9.97152957E-06
 -1.62261001E-04 -1.00352386E-04  1.06939826E-05  2.19164253E-05 -1.41680468E-05
  8.07903741E-04 -3.67147221E-04  1.33724765E-04  1.00830822E-04 -6.04445091E-06
 -3.64524011E-05 -3.40257372E-05 -1.11928713E-05 -7.77086942E-06  3.28441241E-06
  3.73119801E-05  1.26689647E-04 -3.95332030E-06 -4.26024414E-06 -7.88189019E-06
 -8.67819101E-04  2.92826712E-04  3.38006416E-04 -7.56837305E-05  3.80675355E-06
  4.32435953E-05  3.83903124E-05 -1.12894232E-05  1.18977282E-06  5.14374244E-06
 -3.11475495E-02 -7.59088592E-04 -5.38497507E-05 -2.47345996E-05 -4.70068189E-06
  3.67887810E-03 -1.53356193E-03  1.05439600E-03  9.15363172E-05 -3.02775634E-04
 -2.12460612E-04 -7.02940126E-05  1.77320584E-04  2.76814843E-05 -6.64204750E-05
  9.95279728E-01  2.84091958E-02  6.87531921E-05 -6.48914552E-06  3.48385480E-05
 -1.52661955E-02 -7.94987821E-04  2.81314782E-04 -3.27453295E-05 -1.81169174E-03
 -1.80237561E-03 -1.79376771E-03  2.42858575E-05  1.52426921E-05 -2.76088152E-06
 -6.03534540E-05 -2.64625658E-04 -4.21060736E-05  5.61263685E-05 -2.43149596E-05
  2.40149488E-05  2.19069332E-05 -4.75260374E-05  7.82361501E-05 -4.88078025E-05
 -1.31625338E-04  5.00258393E-05 -1.46281046E-04 -5.55138562E-05  1.64744201E-04
  2.62612144E-03  1.56535246E-04  2.67757902E-03  1.13767762E-04  2.37453825E-03
 -1.28658347E-01  2.41725626E-01  6.81310433E-02  2.07805269E-02 -5.53348231E-02
  1.64861679E-01  1.00488701E-02  4.01890484E-03 -8.24279170E-03  1.23733344E-02