011_Ethene Gaussian SP Calculation on node142.bme.utexas.edu            
Freq      RMP2-FC                                                     6-31G(d)            
Number of atoms                            I                6
Info1-9                                    I   N=           9
          17          16        1002           0           0         100
           6           2           1
Charge                                     I                0
Multiplicity                               I                1
Number of electrons                        I               16
Number of alpha electrons                  I                8
Number of beta electrons                   I                8
Number of basis functions                  I               38
Number of independent functions            I               38
Number of point charges in /Mol/           I                0
Number of translation vectors              I                0
Atomic numbers                             I   N=           6
           6           1           1           6           1           1
Nuclear charges                            R   N=           6
  6.00000000E+00  1.00000000E+00  1.00000000E+00  6.00000000E+00  1.00000000E+00
  1.00000000E+00
Current cartesian coordinates              R   N=          18
 -1.26269090E+00 -1.35238722E-06 -4.14011452E-06 -2.34003053E+00  1.74473023E+00
  1.27242951E-05 -2.34005073E+00 -1.74471337E+00  1.10334778E-05  1.26269426E+00
  4.30206426E-07 -3.35611448E-06  2.34003548E+00  1.74472365E+00  9.76436542E-06
  2.34002562E+00 -1.74473498E+00  1.14552357E-05
Force Field                                I                0
Int Atom Types                             I   N=           6
           0           0           0           0           0           0
MM charges                                 R   N=           6
  0.00000000E+00  0.00000000E+00  0.00000000E+00  0.00000000E+00  0.00000000E+00
  0.00000000E+00
Integer atomic weights                     I   N=           6
          12           1           1          12           1           1
Real atomic weights                        R   N=           6
  1.20000000E+01  1.00782504E+00  1.00782504E+00  1.20000000E+01  1.00782504E+00
  1.00782504E+00
Atom fragment info                         I   N=           6
           0           0           0           0           0           0
Atom residue num                           I   N=           6
           0           0           0           0           0           0
Nuclear spins                              I   N=           6
           0           1           1           0           1           1
Nuclear ZEff                               R   N=           6
 -3.60000000E+00 -1.00000000E+00 -1.00000000E+00 -3.60000000E+00 -1.00000000E+00
 -1.00000000E+00
Nuclear QMom                               R   N=           6
  0.00000000E+00  0.00000000E+00  0.00000000E+00  0.00000000E+00  0.00000000E+00
  0.00000000E+00
Nuclear GFac                               R   N=           6
  0.00000000E+00  2.79284600E+00  2.79284600E+00  0.00000000E+00  2.79284600E+00
  2.79284600E+00
MicOpt                                     I   N=           6
          -1          -1          -1          -1          -1          -1
Number of contracted shells                I               16
Number of primitive shells                 I               38
Pure/Cartesian d shells                    I                1
Pure/Cartesian f shells                    I                0
Highest angular momentum                   I                2
Largest degree of contraction              I                6
Shell types                                I   N=          16
           0          -1          -1           2           0           0
           0           0           0          -1          -1           2
           0           0           0           0
Number of primitives per shell             I   N=          16
           6           3           1           1           3           1
           3           1           6           3           1           1
           3           1           3           1
Shell to atom map                          I   N=          16
           1           1           1           1           2           2
           3           3           4           4           4           4
           5           5           6           6
Primitive exponents                        R   N=          38
  3.04752488E+03  4.57369518E+02  1.03948685E+02  2.92101553E+01  9.28666296E+00
  3.16392696E+00  7.86827235E+00  1.88128854E+00  5.44249258E-01  1.68714478E-01
  8.00000000E-01  1.87311370E+01  2.82539436E+00  6.40121692E-01  1.61277759E-01
  1.87311370E+01  2.82539436E+00  6.40121692E-01  1.61277759E-01  3.04752488E+03
  4.57369518E+02  1.03948685E+02  2.92101553E+01  9.28666296E+00  3.16392696E+00
  7.86827235E+00  1.88128854E+00  5.44249258E-01  1.68714478E-01  8.00000000E-01
  1.87311370E+01  2.82539436E+00  6.40121692E-01  1.61277759E-01  1.87311370E+01
  2.82539436E+00  6.40121692E-01  1.61277759E-01
Contraction coefficients                   R   N=          38
  1.83473713E-03  1.40373228E-02  6.88426223E-02  2.32184443E-01  4.67941348E-01
  3.62311985E-01 -1.19332420E-01 -1.60854152E-01  1.14345644E+00  1.00000000E+00
  1.00000000E+00  3.34946043E-02  2.34726953E-01  8.13757326E-01  1.00000000E+00
  3.34946043E-02  2.34726953E-01  8.13757326E-01  1.00000000E+00  1.83473713E-03
  1.40373228E-02  6.88426223E-02  2.32184443E-01  4.67941348E-01  3.62311985E-01
 -1.19332420E-01 -1.60854152E-01  1.14345644E+00  1.00000000E+00  1.00000000E+00
  3.34946043E-02  2.34726953E-01  8.13757326E-01  1.00000000E+00  3.34946043E-02
  2.34726953E-01  8.13757326E-01  1.00000000E+00
P(S=P) Contraction coefficients            R   N=          38
  0.00000000E+00  0.00000000E+00  0.00000000E+00  0.00000000E+00  0.00000000E+00
  0.00000000E+00  6.89990666E-02  3.16423961E-01  7.44308291E-01  1.00000000E+00
  0.00000000E+00  0.00000000E+00  0.00000000E+00  0.00000000E+00  0.00000000E+00
  0.00000000E+00  0.00000000E+00  0.00000000E+00  0.00000000E+00  0.00000000E+00
  0.00000000E+00  0.00000000E+00  0.00000000E+00  0.00000000E+00  0.00000000E+00
  6.89990666E-02  3.16423961E-01  7.44308291E-01  1.00000000E+00  0.00000000E+00
  0.00000000E+00  0.00000000E+00  0.00000000E+00  0.00000000E+00  0.00000000E+00
  0.00000000E+00  0.00000000E+00  0.00000000E+00
Coordinates of each shell                  R   N=          48
 -1.26269090E+00 -1.35238722E-06 -4.14011452E-06 -1.26269090E+00 -1.35238722E-06
 -4.14011452E-06 -1.26269090E+00 -1.35238722E-06 -4.14011452E-06 -1.26269090E+00
 -1.35238722E-06 -4.14011452E-06 -2.34003053E+00  1.74473023E+00  1.27242951E-05
 -2.34003053E+00  1.74473023E+00  1.27242951E-05 -2.34005073E+00 -1.74471337E+00
  1.10334778E-05 -2.34005073E+00 -1.74471337E+00  1.10334778E-05  1.26269426E+00
  4.30206426E-07 -3.35611448E-06  1.26269426E+00  4.30206426E-07 -3.35611448E-06
  1.26269426E+00  4.30206426E-07 -3.35611448E-06  1.26269426E+00  4.30206426E-07
 -3.35611448E-06  2.34003548E+00  1.74472365E+00  9.76436542E-06  2.34003548E+00
  1.74472365E+00  9.76436542E-06  2.34002562E+00 -1.74473498E+00  1.14552357E-05
  2.34002562E+00 -1.74473498E+00  1.14552357E-05
Constraint Structure                       R   N=          18
 -1.26269090E+00 -1.35238722E-06 -4.14011452E-06 -2.34003053E+00  1.74473023E+00
  1.27242951E-05 -2.34005073E+00 -1.74471337E+00  1.10334778E-05  1.26269426E+00
  4.30206426E-07 -3.35611448E-06  2.34003548E+00  1.74472365E+00  9.76436542E-06
  2.34002562E+00 -1.74473498E+00  1.14552357E-05
Num ILSW                                   I              100
ILSW                                       I   N=         100
           0           1           0           0           2           0
           0           0           0           0           0          -1
           0           0           0           0           0           0
           0           0           0           0           1           0
           1           0           0           0           0           0
           0           0      100000           0          -1           0
           0           0           0           0           0           0
           0           0           0           1           1           0
           0           0           1           0           0           0
           0           0           4          40           0           0
           0           0           0           0           0           0
           0           0           0           0           0           0
           0           0           0           0           0           0
           0           0           0           0           0           0
           0           0           0           0           0           0
           0           0           0           0           0           0
           0           0           0           0
Num RLSW                                   I               40
RLSW                                       R   N=          40
  1.00000000E+00  1.00000000E+00  1.00000000E+00  1.00000000E+00  1.00000000E+00
  0.00000000E+00  0.00000000E+00  1.00000000E+00  0.00000000E+00  0.00000000E+00
  0.00000000E+00  0.00000000E+00  1.00000000E+00  0.00000000E+00  0.00000000E+00
  0.00000000E+00  0.00000000E+00  1.00000000E+00  0.00000000E+00  0.00000000E+00
  0.00000000E+00  0.00000000E+00  1.00000000E+00  0.00000000E+00  0.00000000E+00
  0.00000000E+00  0.00000000E+00  1.00000000E+00  0.00000000E+00  0.00000000E+00
  0.00000000E+00  0.00000000E+00  0.00000000E+00  0.00000000E+00  0.00000000E+00
  0.00000000E+00  0.00000000E+00  0.00000000E+00  1.00000000E+00  1.00000000E+00
MxBond                                     I                3
NBond                                      I   N=           6
           3           1           1           3           1           1
IBond                                      I   N=          18
           2           3           4           1           0           0
           1           0           0           1           5           6
           4           0           0           4           0           0
RBond                                      R   N=          18
  1.00000000E+00  1.00000000E+00  2.00000000E+00  1.00000000E+00  0.00000000E+00
  0.00000000E+00  1.00000000E+00  0.00000000E+00  0.00000000E+00  2.00000000E+00
  1.00000000E+00  1.00000000E+00  1.00000000E+00  0.00000000E+00  0.00000000E+00
  1.00000000E+00  0.00000000E+00  0.00000000E+00
Virial Ratio                               R      2.002127969524306E+00
SCF Energy                                 R     -7.803098145962861E+01
MP2 Energy                                 R     -7.828502781848053E+01
Total Energy                               R     -7.828502781848053E+01
Post-SCF wavefunction norm                 R      1.477794993414820E+00
RMS Force                                  R      1.543230159954333E-06
RMS Density                                R      5.893776173848461E-10
External E-field                           R   N=          35
  0.00000000E+00  0.00000000E+00  0.00000000E+00  0.00000000E+00  0.00000000E+00
  0.00000000E+00  0.00000000E+00  0.00000000E+00  0.00000000E+00  0.00000000E+00
  0.00000000E+00  0.00000000E+00  0.00000000E+00  0.00000000E+00  0.00000000E+00
  0.00000000E+00  0.00000000E+00  0.00000000E+00  0.00000000E+00  0.00000000E+00
  0.00000000E+00  0.00000000E+00  0.00000000E+00  0.00000000E+00  0.00000000E+00
  0.00000000E+00  0.00000000E+00  0.00000000E+00  0.00000000E+00  0.00000000E+00
  0.00000000E+00  0.00000000E+00  0.00000000E+00  0.00000000E+00  0.00000000E+00
IOpCl                                      I                0
IROHF                                      I                0
Alpha Orbital Energies                     R   N=          38
 -1.12298443E+01 -1.12282135E+01 -1.02612282E+00 -7.88028782E-01 -6.35967090E-01
 -5.81758163E-01 -5.02589298E-01 -3.70054440E-01  1.79074260E-01  2.64454333E-01
  2.91441569E-01  3.06941552E-01  3.90579302E-01  4.90807538E-01  6.68461027E-01
  7.66374379E-01  7.76085396E-01  8.52485277E-01  8.89936192E-01  9.52054741E-01
  1.10940408E+00  1.15599781E+00  1.20129869E+00  1.21039596E+00  1.33143515E+00
  1.47318062E+00  1.74016381E+00  1.82204298E+00  2.12968983E+00  2.19903388E+00
  2.31989269E+00  2.40010382E+00  2.61748166E+00  2.71042436E+00  3.05172007E+00
  3.06455356E+00  4.51890736E+00  4.66999072E+00
Alpha MO coefficients                      R   N=        1444
  7.03764747E-01  1.91345731E-02 -1.59376336E-04 -8.02327523E-10  3.00628764E-09
 -5.28548362E-03  7.29255362E-04 -5.17168016E-09 -1.04365198E-08 -1.32846175E-03
 -1.60115359E-03 -1.83646702E-03  7.46672718E-09 -7.56569932E-10  2.15570892E-10
 -1.46087293E-04  1.46382285E-03 -1.46095909E-04  1.46382636E-03  7.03794193E-01
  1.91353966E-02  1.59364769E-04  1.34713211E-09  1.89550801E-09 -5.28598418E-03
 -7.29150060E-04  5.90970904E-10 -7.53028902E-09 -1.32850756E-03 -1.60120123E-03
 -1.83653926E-03  6.22941763E-09  2.52771044E-10 -2.15601389E-10 -1.46096495E-04
  1.46388791E-03 -1.46091005E-04  1.46388317E-03  7.04254132E-01  1.95959482E-02
  1.76792230E-04  7.96168598E-10  1.46721194E-09 -1.09377831E-02 -1.61059608E-03
 -1.23600292E-08 -1.76265235E-08 -9.23491541E-04 -1.24572689E-03 -1.73647085E-03
  5.46835637E-09 -3.51934283E-09  1.18505922E-10 -5.86150137E-05  1.52166810E-03
 -5.86233787E-05  1.52166609E-03 -7.04224705E-01 -1.95951542E-02  1.76808047E-04
 -8.68971988E-10  3.08322035E-10  1.09375515E-02 -1.61064965E-03 -5.96089074E-09
  1.44165361E-08  9.23441186E-04  1.24565624E-03  1.73639376E-03 -2.90508347E-09
 -3.66403586E-09  1.18526144E-10  5.86172122E-05 -1.52160103E-03  5.86113141E-05
 -1.52159828E-03 -1.56774581E-01  2.97549388E-01  1.04370236E-01  8.71532818E-08
  6.79981563E-07  2.31532137E-01  6.61752244E-03  4.13557497E-08  2.30440746E-07
  1.71197838E-02  4.89093958E-03 -1.27563845E-02  1.37581515E-07 -9.19394554E-08
  1.07379819E-08  8.28335166E-02  1.65005682E-02  8.28336181E-02  1.65004665E-02
 -1.56774669E-01  2.97549563E-01 -1.04370353E-01  9.74664034E-08  5.48174153E-07
  2.31532283E-01 -6.61769333E-03  4.49032360E-08  1.96188610E-07  1.71195786E-02
  4.89117489E-03 -1.27563891E-02  1.13520375E-07  9.20162867E-08 -1.07377100E-08
  8.28339906E-02  1.65006084E-02  8.28337086E-02  1.65006547E-02 -1.19686473E-01
  2.32171695E-01 -1.66746719E-01 -1.22254832E-06  1.20872218E-06  2.36007956E-01
 -6.69542394E-02 -3.10825504E-07  4.89677258E-07  8.72385007E-04  2.38047891E-02
 -1.09716819E-02  3.03748614E-07 -2.54094423E-07  1.71628942E-08  1.45979409E-01
  6.68861582E-02  1.45981762E-01  6.68870839E-02  1.19686405E-01 -2.32171607E-01
 -1.66744036E-01 -1.17225521E-06 -1.01104239E-06 -2.36007323E-01 -6.69533354E-02
 -1.99107396E-07 -4.33285547E-07 -8.72148847E-04 -2.38048913E-02  1.09716509E-02
 -1.87551641E-07 -2.29648985E-07  1.71638235E-08 -1.45980592E-01 -6.68866506E-02
 -1.45978757E-01 -6.68858523E-02 -3.12188370E-07  4.88260350E-07  1.13210957E-06
  3.20817637E-01  8.87688317E-08  9.92496642E-07  1.24597086E-07  1.29558556E-01
  3.10313223E-08 -2.31165282E-07  3.53972261E-07 -2.69514263E-08 -1.34162981E-02
 -1.18129083E-08  3.74963907E-07  1.57528460E-01  1.08911810E-01 -1.57527465E-01
 -1.08911020E-01  4.41978211E-07 -7.93866413E-07 -1.32550368E-06  3.20821521E-01
 -8.87860272E-08 -1.55819600E-06 -8.03922666E-07  1.29560686E-01 -3.10377168E-08
  1.64920041E-07 -3.41152289E-07  2.26881968E-08  1.34165453E-02 -1.18146025E-08
  3.20417253E-07  1.57529297E-01  1.08911808E-01 -1.57531526E-01 -1.08913378E-01
 -1.20199823E-02  2.88538118E-02  4.06548065E-01  4.14155964E-06 -2.50082689E-06
 -1.35103158E-02  1.55582145E-01  2.37113286E-06 -1.09644507E-06  1.16046380E-02
 -2.64016020E-02  1.49649985E-03 -7.80967718E-07  1.01286755E-07 -1.22107323E-08
 -1.24618807E-01 -1.01101699E-01 -1.24625769E-01 -1.01106101E-01 -1.20188166E-02
  2.88514122E-02 -4.06549000E-01 -6.32543468E-06 -2.47104241E-06 -1.35133581E-02
 -1.55582496E-01 -3.35340810E-06 -1.05701356E-06  1.16050960E-02 -2.64019347E-02
  1.49653355E-03 -7.38589127E-07 -4.38362980E-08  1.22104046E-08 -1.24627076E-01
 -1.01107410E-01 -1.24618936E-01 -1.01101955E-01  3.95081506E-07 -1.16189165E-06
 -6.91094278E-06  3.03530309E-01  3.38715336E-07  6.30002502E-08 -2.88212134E-06
  1.96301009E-01  1.96155164E-07 -4.89782112E-07  8.53121329E-07 -4.80697597E-08
 -3.67839417E-02  5.56851380E-09  4.13497500E-07  1.88645260E-01  1.55304120E-01
 -1.88640032E-01 -1.55298424E-01  5.18149671E-07 -1.39040843E-06  7.23405076E-06
 -3.03526506E-01  3.38717438E-07 -7.10013118E-07  3.20308185E-06 -1.96299340E-01
  1.96156944E-07 -3.10261212E-07  6.52558112E-07 -3.70643513E-08 -3.67835598E-02
 -5.56853779E-09 -3.56121793E-07 -1.88638257E-01 -1.55296268E-01  1.88642932E-01
  1.55301416E-01  4.55019024E-07 -8.14772351E-07  3.14919774E-06 -3.14060341E-07
  3.73866244E-01 -2.09743976E-06  1.94740292E-06 -2.38655370E-07  3.07183641E-01
  2.64108008E-08 -8.74557132E-08  6.46539262E-08  3.21737303E-08  2.51613910E-02
  4.37315259E-11 -1.32021790E-07 -6.34962730E-07  1.39224648E-07 -3.00331409E-07
  3.07264976E-07 -4.76425047E-07 -3.20795930E-06  3.14055188E-07  3.73866442E-01
 -1.82688980E-06 -1.82886308E-06  2.38652954E-07  3.07183783E-01  5.09626464E-08
 -7.69628810E-08  2.20207903E-08  3.21735100E-08 -2.51614593E-02  1.76234597E-08
  8.46314594E-08 -3.24229617E-07 -1.86613265E-07 -6.58859359E-07  1.33573728E-06
 -2.27388624E-06  1.77631141E-06 -2.14077879E-07  3.42303187E-01 -7.58063267E-06
  8.34083465E-06 -4.93210890E-07  7.34675699E-01  1.15908381E-07  2.93534884E-08
  1.00766629E-07 -2.20402340E-08 -2.38019756E-02 -5.93196868E-08  1.71861147E-06
  7.48710567E-06  1.53181331E-06  6.63513674E-06 -1.16591556E-06  2.12949009E-06
  1.41605808E-06 -2.14079235E-07 -3.42303101E-01  5.26587808E-06  7.59226667E-06
 -4.93258014E-07 -7.34675564E-01 -8.93048391E-08  5.99073086E-11 -9.83975120E-08
  2.20398370E-08 -2.38019047E-02 -7.08423380E-08 -1.27704271E-06 -5.49574256E-06
 -1.46384575E-06 -6.34778918E-06 -7.81094126E-02  8.07438986E-02 -1.46392741E-01
  3.17495665E-06  1.89232881E-06  1.47705612E+00 -6.42131093E-01  1.21378241E-05
  7.52188821E-06  4.01315176E-03 -1.09560984E-02 -4.65751042E-03  1.08008262E-07
 -6.63876056E-08  7.52603973E-09 -1.45183707E-02 -1.02883807E+00 -1.45172484E-02
 -1.02882430E+00 -7.81100105E-02  8.07440061E-02  1.46393929E-01 -1.05269531E-08
  1.35904698E-06  1.47707352E+00  6.42122315E-01 -1.55884415E-06  4.91770566E-06
  4.01311817E-03 -1.09562702E-02 -4.65756687E-03 -1.10499569E-07  1.11191205E-08
 -7.52748980E-09 -1.45190351E-02 -1.02883914E+00 -1.45189654E-02 -1.02883059E+00
  9.16355634E-07 -1.50024216E-06  8.18232925E-07  2.53376897E-01  2.46551415E-07
 -1.24459985E-05  1.12030949E-05  7.99471888E-01  1.02726371E-06  2.96170756E-07
 -8.77973248E-08 -3.78434616E-08  2.23974794E-02 -1.28192640E-08 -1.71200413E-07
 -4.24086121E-02 -1.08455419E+00  4.24085368E-02  1.08457218E+00 -5.11336518E-08
  7.23076223E-07 -1.82117614E-06  2.53375957E-01 -2.46576870E-07 -6.98199828E-06
  7.50381863E-07  7.99481654E-01 -1.02735227E-06 -2.43313808E-07  1.36187361E-07
  4.95787736E-08 -2.23976582E-02 -1.28189130E-08 -1.96613667E-07 -4.24080030E-02
 -1.08456697E+00  4.24084675E-02  1.08457469E+00 -1.08854632E-01  1.04323775E-01
 -9.81885964E-02  1.14163526E-06  3.56587050E-06  1.90914935E+00 -1.57846589E-01
  1.31721428E-06  1.62932178E-05 -4.53248635E-03  8.81504416E-04 -1.08475343E-02
  9.70793991E-08 -2.67635820E-07 -6.25894911E-09 -1.86435695E-02 -1.06591829E+00
 -1.86433798E-02 -1.06592226E+00  1.08854335E-01 -1.04324262E-01 -9.81859500E-02
  1.63573718E-06 -3.25819691E-06 -1.90913635E+00 -1.57836681E-01  6.33554688E-06
 -1.52690348E-05  4.53228361E-03 -8.81339410E-04  1.08474312E-02 -2.98699613E-09
 -2.83753453E-07 -6.25828260E-09  1.86440303E-02  1.06590844E+00  1.86439783E-02
  1.06591468E+00 -8.80582689E-08  2.80361988E-08 -2.62075175E-06 -2.49713623E-01
 -1.62227316E-07  9.39577431E-06 -1.28251020E-05 -1.86372751E+00 -4.55148113E-07
 -2.78773488E-07  1.85868587E-07  1.37764995E-08  1.76379343E-02 -5.71184811E-09
 -2.64991280E-07 -3.97037968E-02  1.60813887E+00  3.97053695E-02 -1.60815586E+00
 -4.44194263E-07 -2.60304439E-07  2.99289051E-06  2.49713854E-01 -1.62226946E-07
  2.40049013E-05  4.65052891E-06  1.86373496E+00 -4.55175641E-07 -2.12142388E-07
  2.09113105E-07 -1.00762884E-07  1.76384902E-02  5.71106369E-09  2.96458357E-07
  3.97069156E-02 -1.60816363E+00 -3.97057951E-02  1.60813995E+00  6.75818973E-02
 -3.56495959E-03 -1.35206115E-01 -5.12669443E-07  1.91677403E-06 -3.03072806E+00
 -2.95540186E+00 -6.09269609E-06  8.25889984E-06 -8.74308834E-04 -2.33275980E-02
  1.13589347E-02  7.17891178E-08 -1.90369119E-07 -3.11076186E-08 -7.85746157E-02
 -5.74887850E-01 -7.85709763E-02 -5.74913581E-01 -6.75821183E-02  3.56517194E-03
 -1.35202441E-01 -5.17615616E-07 -1.59026792E-06  3.03073873E+00 -2.95540034E+00
 -4.30626262E-06 -9.58678690E-06  8.74079409E-04  2.33285882E-02 -1.13593244E-02
 -6.89252646E-08 -2.28331201E-07 -3.11066927E-08  7.85757832E-02  5.74896390E-01
  7.85780402E-02  5.74880141E-01 -2.22660265E-02 -2.10755265E-01 -5.55284142E-01
  7.35137942E-06 -1.97520173E-07 -1.93088551E-01  1.02860269E+00 -2.86068034E-06
 -1.09885021E-06 -7.97678123E-02  3.31907722E-02 -3.83761554E-04 -4.56116628E-07
 -1.20899431E-07  1.40504788E-08  9.53234845E-02  6.18165367E-02  9.53168150E-02
  6.18392135E-02 -2.22650232E-02 -2.10751709E-01  5.55289195E-01 -4.03769127E-06
 -7.96845093E-09 -1.93134601E-01 -1.02855502E+00 -1.60953776E-07 -9.55789420E-07
 -7.97665089E-02  3.31909618E-02 -3.83540788E-04 -3.77327530E-07  7.30783364E-08
 -1.40458855E-08  9.53209344E-02  6.18177722E-02  9.53234369E-02  6.18012721E-02
  9.51531661E-07  6.09220749E-06 -9.04641449E-06 -4.00911536E-01  3.68166694E-08
 -6.70662757E-06  3.10581754E-05  7.62599222E-01  5.48023163E-07  2.84700186E-06
  5.85199116E-07 -4.75223304E-07  9.38626076E-02  9.84820895E-09 -1.50997742E-06
 -3.88941240E-01 -5.37332258E-02  3.88954477E-01  5.37458276E-02 -8.00713583E-07
 -5.82933971E-07 -5.38684316E-06 -4.00905645E-01 -3.71982623E-08 -9.60652578E-06
  1.85650150E-05  7.62593916E-01 -5.47752651E-07 -2.37950528E-06  4.30709721E-07
  5.01754256E-07 -9.38617377E-02  9.89941969E-09 -1.37164945E-06 -3.88945862E-01
 -5.37524177E-02  3.88940110E-01  5.37462053E-02  1.25947768E-07 -6.56492393E-06
  1.26565266E-06 -3.97170315E-07  7.39915275E-01  6.57168245E-06  8.48529898E-07
  3.17730698E-07 -6.39702728E-01 -9.72484017E-07 -4.99137186E-07 -4.11091119E-07
  1.80776024E-08  6.86712630E-02 -2.52345927E-09 -4.67641451E-07  1.63081249E-06
 -4.12050455E-07  1.20384970E-06  9.94268310E-08 -6.11237505E-06 -1.19927471E-06
  3.96958233E-07  7.39915580E-01  4.96478568E-06  1.40320859E-06 -3.17300349E-07
 -6.39703212E-01 -7.54330592E-07 -5.42497946E-07 -4.07848319E-07  1.80208172E-08
 -6.86712539E-02 -3.43223611E-09 -7.09838887E-07  3.90698323E-07 -7.64989943E-07
  8.17760795E-07 -4.07963639E-02 -7.85430886E-01 -1.39134483E-02 -3.32765360E-06
 -3.45549879E-06  1.52945356E+00 -3.66660061E-01  5.45637624E-06  8.29376013E-06
 -9.37870810E-02 -1.56001750E-01  4.07935586E-02  1.41681021E-07  7.86601550E-07
 -7.41957773E-08 -3.83985092E-01 -2.50263185E-01 -3.83981669E-01 -2.50264540E-01
 -4.07973538E-02 -7.85432060E-01  1.39133101E-02 -2.93268117E-07 -4.02220970E-06
  1.52950755E+00  3.66605629E-01  3.44656871E-06  7.12614518E-06 -9.37865899E-02
 -1.56002293E-01  4.07936507E-02 -5.49131432E-07 -8.88304000E-07  7.41771302E-08
 -3.83986503E-01 -2.50253331E-01 -3.83982810E-01 -2.50249054E-01 -4.64878382E-07
  2.17184717E-06 -1.95112048E-06  3.15463851E-07 -8.18626301E-01 -4.70602123E-07
 -3.28717138E-06 -2.55359961E-07  1.07478622E+00  5.03457281E-07 -5.18435042E-07
  6.39208747E-07  6.37381792E-08  3.21721371E-02  6.48826038E-08 -3.03129713E-06
 -1.53769104E-06 -2.78458364E-06 -1.80166851E-06  3.93913256E-07 -2.10362220E-06
 -2.02769573E-06  3.15515652E-07  8.18625971E-01  1.07782932E-06 -2.59813635E-06
 -2.55529200E-07 -1.07478600E+00 -5.22256539E-07  4.16291515E-07 -4.81995234E-07
 -6.37374749E-08  3.21721835E-02  7.51121430E-08  2.35114005E-06  1.56049625E-06
  2.59782130E-06  1.29644268E-06 -9.55365401E-02 -6.31845422E-02  5.92907519E-01
 -1.16163946E-05  2.33324505E-06  9.92815796E-01 -4.24658859E-01  2.09725787E-05
  6.67653186E-06 -1.77694569E-01 -5.09016154E-02  9.11001795E-02  2.60467933E-07
  1.72524761E-07 -1.13743892E-07 -3.81382943E-01 -9.37344172E-02 -3.81376907E-01
 -9.37173395E-02  9.55364201E-02  6.31867663E-02  5.92903476E-01 -9.00914549E-06
 -2.03923017E-06 -9.92803948E-01 -4.24641110E-01  1.79249816E-05 -6.27478440E-06
  1.77694934E-01  5.09015809E-02 -9.11000834E-02 -5.90414034E-07  1.02924349E-07
 -1.13746141E-07  3.81372594E-01  9.37140951E-02  3.81381949E-01  9.37265244E-02
  9.60679501E-07 -5.27120688E-06  4.55392879E-06 -6.88306306E-01 -4.49032417E-07
 -5.00691884E-06 -1.57840408E-05  1.09778719E+00  8.53778194E-07 -1.30842983E-06
  2.79090100E-06 -1.97988967E-06 -1.86517433E-01 -8.00481880E-09  4.95850155E-07
  3.81148238E-01 -1.05570426E+00 -3.81127250E-01  1.05567193E+00 -9.53038027E-07
  9.23524162E-07  4.12785852E-06 -6.88289643E-01  4.49014500E-07  1.11891480E-05
 -1.76650212E-05  1.09774453E+00 -8.53758029E-07  3.58699644E-07 -2.13281389E-06
  1.58449695E-06  1.86516445E-01 -7.99623418E-09  4.11598757E-07  3.81124397E-01
 -1.05565159E+00 -3.81140861E-01  1.05567732E+00 -3.72999091E-07  1.77152461E-05
 -2.23968398E-06  9.23102430E-01  4.24316129E-07 -1.72232772E-05 -1.47133454E-05
 -2.86392340E+00 -8.45084783E-07  2.98916746E-06 -2.30094177E-06  2.03887448E-06
 -4.36346766E-03 -3.30647833E-09  8.15204503E-07 -1.64728762E-01  1.47183275E+00
  1.64706396E-01 -1.47181526E+00 -2.01559351E-07  2.07672679E-05  3.77464638E-06
 -9.23119996E-01  4.24357756E-07 -1.84842948E-05  4.00463914E-06  2.86396113E+00
 -8.45271840E-07  3.45989263E-06 -1.52027865E-06  1.84737461E-06 -4.36059107E-03
  3.30955861E-09 -3.47420816E-07  1.64712393E-01 -1.47183908E+00 -1.64731894E-01
  1.47186057E+00  1.80347979E-02 -9.28748090E-01  3.66881498E-01  2.12742595E-05
 -4.12440814E-06  1.73170296E+00 -4.91090326E-01 -7.59724566E-05  6.68153978E-06
 -1.01848103E-01  5.71983008E-02 -1.15230790E-01  1.04793098E-06 -2.20253114E-06
  1.08949633E-07  4.51359586E-01 -8.70947834E-01  4.51363472E-01 -8.71026758E-01
  1.80394443E-02 -9.28848833E-01 -3.67007426E-01 -1.89670389E-05 -3.40139438E-06
  1.73182056E+00  4.91350438E-01  7.18528027E-05  5.52772638E-06 -1.01878095E-01
  5.72212452E-02 -1.15251072E-01 -4.89772251E-07  2.17053841E-06 -1.08952393E-07
  4.51461534E-01 -8.71231546E-01  4.51461685E-01 -8.71164174E-01 -1.83159714E-02
  5.48694284E-01 -5.93717798E-01 -8.47303007E-06  6.37449497E-06 -8.71420465E-01
  1.10080628E+00  1.57606904E-05 -1.08109254E-05  1.39664472E-01 -9.66089550E-02
  9.85106678E-02 -4.36080959E-06  4.58953487E-07 -8.14049549E-08 -4.65229367E-01
  9.93445016E-01 -4.65241217E-01  9.93481426E-01  1.83119239E-02 -5.48499492E-01
 -5.93638818E-01 -8.60431491E-06 -5.95046656E-06  8.71055864E-01  1.10069764E+00
  1.23271524E-05  1.01514792E-05 -1.39644325E-01  9.65969153E-02 -9.84855327E-02
  3.93728873E-06  3.83519221E-08 -8.13774563E-08  4.65144217E-01 -9.93294200E-01
  4.65131230E-01 -9.93261256E-01  3.15300422E-02  1.45762163E+00  3.23644893E-01
  5.10350779E-06  4.38564272E-07 -5.44234870E+00 -2.01235507E+00 -1.06961224E-05
 -6.87087141E-06 -5.08853926E-02  2.06448223E-01  5.75186972E-02  5.34585809E-07
 -3.02918424E-07  1.59747981E-07  1.38635528E-01  2.81919632E-01  1.38639308E-01
  2.81904215E-01 -3.15299230E-02 -1.45763244E+00  3.23643181E-01  2.72219483E-06
 -8.22363205E-09  5.44236343E+00 -2.01235848E+00 -1.03482582E-05  4.99090694E-06
  5.08842532E-02 -2.06447547E-01 -5.75196089E-02  3.36291922E-07  5.22743916E-08
  1.59769617E-07 -1.38629221E-01 -2.81916400E-01 -1.38632702E-01 -2.81924315E-01
  3.50702119E-07  1.13718601E-05  2.03308610E-06  5.51571797E-02  3.53908503E-07
 -1.56567503E-05 -3.95941960E-05 -2.58442597E+00 -6.70924044E-07  5.87926640E-09
  4.00214017E-06 -1.18825220E-06 -1.65567521E-01 -8.08796824E-07  1.13336863E-05
  6.94462680E-01  6.78622028E-01 -6.94469021E-01 -6.78638947E-01 -3.84429120E-07
  2.20845168E-06 -3.49391453E-06 -5.51609656E-02  3.53928361E-07  4.33370945E-05
  4.09992149E-06  2.58444665E+00 -6.71083534E-07  2.69901244E-07  1.41439465E-06
 -3.45179480E-07 -1.65571863E-01  8.08819678E-07 -7.96310451E-06 -6.94475808E-01
 -6.78645391E-01  6.94467851E-01  6.78632120E-01  1.01046597E-07 -1.07830527E-06
  9.83598951E-07  1.99578872E-07 -1.91006143E-01  1.72918962E-06 -1.87338426E-06
 -4.67618549E-06  4.25057719E-02 -8.08821540E-07  6.47914060E-06 -5.32622269E-06
 -4.11528294E-07  6.18802045E-01  1.41962499E-06  2.74387051E-06 -7.39788879E-07
  5.93719698E-07 -3.65882958E-06  3.22848405E-08 -1.56864123E-06 -7.59575331E-07
 -1.99619389E-07 -1.91006212E-01  4.41082179E-06  8.85209124E-07  4.67623208E-06
  4.25055531E-02 -1.18001719E-07  5.67872752E-06 -5.31350766E-06 -4.11623375E-07
 -6.18801696E-01 -6.05469360E-07  2.41578957E-08 -3.56056657E-06  2.17428890E-06
 -6.41463395E-07 -2.57790720E-08 -3.60344899E-07  6.27334549E-10 -5.02156071E-06
  2.44104304E-07  1.36443049E-06  1.20659042E-07  1.42590295E-05  5.06193340E-08
  3.91212389E-09 -3.63727028E-07  3.36902183E-07  9.68625268E-06 -4.95055765E-07
  6.81043559E-01  1.03222924E-07 -8.15569173E-06 -4.51170899E-07  7.70899536E-06
  2.57788861E-08  3.60330660E-07  6.61637438E-10 -3.68506467E-06 -1.89964967E-08
 -1.36461121E-06  1.20466186E-07 -7.32158980E-06 -1.14989444E-07 -3.91059485E-09
  3.63649684E-07 -3.36835497E-07 -8.18433002E-06  2.44738412E-07  6.81044948E-01
  4.61860322E-06 -1.35491044E-07 -4.27061662E-06  5.82368599E-07  1.43075444E-07
  7.37202174E-07  3.27644029E-07 -3.69946944E-06  2.21551663E-07 -2.82826709E-06