opt=Tight                                                               
Freq      RMP2-FC                                                     6-31G(d)            
Number of atoms                            I               16
Info1-9                                    I   N=           9
          25          25        1002           0           0         100
           6           2           1
Charge                                     I                0
Multiplicity                               I                1
Number of electrons                        I               62
Number of alpha electrons                  I               31
Number of beta electrons                   I               31
Number of basis functions                  I              136
Number of independent functions            I              136
Number of point charges in /Mol/           I                0
Number of translation vectors              I                0
Atomic numbers                             I   N=          16
           8           8           8           6           6           6
           6           6           1           1           1           1
           1           1           1           1
Nuclear charges                            R   N=          16
  8.00000000E+00  8.00000000E+00  8.00000000E+00  6.00000000E+00  6.00000000E+00
  6.00000000E+00  6.00000000E+00  6.00000000E+00  1.00000000E+00  1.00000000E+00
  1.00000000E+00  1.00000000E+00  1.00000000E+00  1.00000000E+00  1.00000000E+00
  1.00000000E+00
Current cartesian coordinates              R   N=          48
  2.24810514E+00  2.62005048E+00 -1.49225437E+00 -5.51126343E+00  1.17263176E-01
  4.65981898E-01 -2.45562352E+00 -2.21524469E+00 -1.41977770E+00  2.88698564E+00
 -1.01858506E+00  1.16663188E+00  1.38527697E+00  1.15592091E+00  8.43592643E-02
 -1.30675129E+00  1.49845267E+00  1.04691206E+00  5.50285982E+00 -1.26040387E+00
 -1.12249732E-03 -3.07250572E+00 -4.15055668E-01 -1.20596653E-01  3.00591744E+00
 -7.40098012E-01  3.22163724E+00  1.77233635E+00 -2.74229875E+00  8.86362815E-01
 -1.40774392E+00  1.29879743E+00  3.10781714E+00 -1.95824949E+00  3.39837387E+00
  5.59693417E-01  6.60087574E+00  4.61423878E-01  2.92890543E-01  6.52562307E+00
 -2.84712753E+00  8.36925689E-01  5.36061069E+00 -1.57142255E+00 -2.03566779E+00
 -6.52430026E+00 -1.19617774E+00 -3.58365774E-01
Force Field                                I                0
Int Atom Types                             I   N=          16
           0           0           0           0           0           0
           0           0           0           0           0           0
           0           0           0           0
MM charges                                 R   N=          16
  0.00000000E+00  0.00000000E+00  0.00000000E+00  0.00000000E+00  0.00000000E+00
  0.00000000E+00  0.00000000E+00  0.00000000E+00  0.00000000E+00  0.00000000E+00
  0.00000000E+00  0.00000000E+00  0.00000000E+00  0.00000000E+00  0.00000000E+00
  0.00000000E+00
Integer atomic weights                     I   N=          16
          16          16          16          12          12          12
          12          12           1           1           1           1
           1           1           1           1
Real atomic weights                        R   N=          16
  1.59949146E+01  1.59949146E+01  1.59949146E+01  1.20000000E+01  1.20000000E+01
  1.20000000E+01  1.20000000E+01  1.20000000E+01  1.00782504E+00  1.00782504E+00
  1.00782504E+00  1.00782504E+00  1.00782504E+00  1.00782504E+00  1.00782504E+00
  1.00782504E+00
Atom fragment info                         I   N=          16
           0           0           0           0           0           0
           0           0           0           0           0           0
           0           0           0           0
Atom residue num                           I   N=          16
           0           0           0           0           0           0
           0           0           0           0           0           0
           0           0           0           0
Nuclear spins                              I   N=          16
           0           0           0           0           0           0
           0           0           1           1           1           1
           1           1           1           1
Nuclear ZEff                               R   N=          16
 -5.60000000E+00 -5.60000000E+00 -5.60000000E+00 -3.60000000E+00 -3.60000000E+00
 -3.60000000E+00 -3.60000000E+00 -3.60000000E+00 -1.00000000E+00 -1.00000000E+00
 -1.00000000E+00 -1.00000000E+00 -1.00000000E+00 -1.00000000E+00 -1.00000000E+00
 -1.00000000E+00
Nuclear QMom                               R   N=          16
  0.00000000E+00  0.00000000E+00  0.00000000E+00  0.00000000E+00  0.00000000E+00
  0.00000000E+00  0.00000000E+00  0.00000000E+00  0.00000000E+00  0.00000000E+00
  0.00000000E+00  0.00000000E+00  0.00000000E+00  0.00000000E+00  0.00000000E+00
  0.00000000E+00
Nuclear GFac                               R   N=          16
  0.00000000E+00  0.00000000E+00  0.00000000E+00  0.00000000E+00  0.00000000E+00
  0.00000000E+00  0.00000000E+00  0.00000000E+00  2.79284600E+00  2.79284600E+00
  2.79284600E+00  2.79284600E+00  2.79284600E+00  2.79284600E+00  2.79284600E+00
  2.79284600E+00
MicOpt                                     I   N=          16
          -1          -1          -1          -1          -1          -1
          -1          -1          -1          -1          -1          -1
          -1          -1          -1          -1
Number of contracted shells                I               48
Number of primitive shells                 I              120
Pure/Cartesian d shells                    I                1
Pure/Cartesian f shells                    I                0
Highest angular momentum                   I                2
Largest degree of contraction              I                6
Shell types                                I   N=          48
           0          -1          -1           2           0          -1
          -1           2           0          -1          -1           2
           0          -1          -1           2           0          -1
          -1           2           0          -1          -1           2
           0          -1          -1           2           0          -1
          -1           2           0           0           0           0
           0           0           0           0           0           0
           0           0           0           0           0           0
Number of primitives per shell             I   N=          48
           6           3           1           1           6           3
           1           1           6           3           1           1
           6           3           1           1           6           3
           1           1           6           3           1           1
           6           3           1           1           6           3
           1           1           3           1           3           1
           3           1           3           1           3           1
           3           1           3           1           3           1
Shell to atom map                          I   N=          48
           1           1           1           1           2           2
           2           2           3           3           3           3
           4           4           4           4           5           5
           5           5           6           6           6           6
           7           7           7           7           8           8
           8           8           9           9          10          10
          11          11          12          12          13          13
          14          14          15          15          16          16
Primitive exponents                        R   N=         120
  5.48467166E+03  8.25234946E+02  1.88046958E+02  5.29645000E+01  1.68975704E+01
  5.79963534E+00  1.55396162E+01  3.59993359E+00  1.01376175E+00  2.70005823E-01
  8.00000000E-01  5.48467166E+03  8.25234946E+02  1.88046958E+02  5.29645000E+01
  1.68975704E+01  5.79963534E+00  1.55396162E+01  3.59993359E+00  1.01376175E+00
  2.70005823E-01  8.00000000E-01  5.48467166E+03  8.25234946E+02  1.88046958E+02
  5.29645000E+01  1.68975704E+01  5.79963534E+00  1.55396162E+01  3.59993359E+00
  1.01376175E+00  2.70005823E-01  8.00000000E-01  3.04752488E+03  4.57369518E+02
  1.03948685E+02  2.92101553E+01  9.28666296E+00  3.16392696E+00  7.86827235E+00
  1.88128854E+00  5.44249258E-01  1.68714478E-01  8.00000000E-01  3.04752488E+03
  4.57369518E+02  1.03948685E+02  2.92101553E+01  9.28666296E+00  3.16392696E+00
  7.86827235E+00  1.88128854E+00  5.44249258E-01  1.68714478E-01  8.00000000E-01
  3.04752488E+03  4.57369518E+02  1.03948685E+02  2.92101553E+01  9.28666296E+00
  3.16392696E+00  7.86827235E+00  1.88128854E+00  5.44249258E-01  1.68714478E-01
  8.00000000E-01  3.04752488E+03  4.57369518E+02  1.03948685E+02  2.92101553E+01
  9.28666296E+00  3.16392696E+00  7.86827235E+00  1.88128854E+00  5.44249258E-01
  1.68714478E-01  8.00000000E-01  3.04752488E+03  4.57369518E+02  1.03948685E+02
  2.92101553E+01  9.28666296E+00  3.16392696E+00  7.86827235E+00  1.88128854E+00
  5.44249258E-01  1.68714478E-01  8.00000000E-01  1.87311370E+01  2.82539436E+00
  6.40121692E-01  1.61277759E-01  1.87311370E+01  2.82539436E+00  6.40121692E-01
  1.61277759E-01  1.87311370E+01  2.82539436E+00  6.40121692E-01  1.61277759E-01
  1.87311370E+01  2.82539436E+00  6.40121692E-01  1.61277759E-01  1.87311370E+01
  2.82539436E+00  6.40121692E-01  1.61277759E-01  1.87311370E+01  2.82539436E+00
  6.40121692E-01  1.61277759E-01  1.87311370E+01  2.82539436E+00  6.40121692E-01
  1.61277759E-01  1.87311370E+01  2.82539436E+00  6.40121692E-01  1.61277759E-01
Contraction coefficients                   R   N=         120
  1.83107443E-03  1.39501722E-02  6.84450781E-02  2.32714336E-01  4.70192898E-01
  3.58520853E-01 -1.10777550E-01 -1.48026263E-01  1.13076702E+00  1.00000000E+00
  1.00000000E+00  1.83107443E-03  1.39501722E-02  6.84450781E-02  2.32714336E-01
  4.70192898E-01  3.58520853E-01 -1.10777550E-01 -1.48026263E-01  1.13076702E+00
  1.00000000E+00  1.00000000E+00  1.83107443E-03  1.39501722E-02  6.84450781E-02
  2.32714336E-01  4.70192898E-01  3.58520853E-01 -1.10777550E-01 -1.48026263E-01
  1.13076702E+00  1.00000000E+00  1.00000000E+00  1.83473713E-03  1.40373228E-02
  6.88426223E-02  2.32184443E-01  4.67941348E-01  3.62311985E-01 -1.19332420E-01
 -1.60854152E-01  1.14345644E+00  1.00000000E+00  1.00000000E+00  1.83473713E-03
  1.40373228E-02  6.88426223E-02  2.32184443E-01  4.67941348E-01  3.62311985E-01
 -1.19332420E-01 -1.60854152E-01  1.14345644E+00  1.00000000E+00  1.00000000E+00
  1.83473713E-03  1.40373228E-02  6.88426223E-02  2.32184443E-01  4.67941348E-01
  3.62311985E-01 -1.19332420E-01 -1.60854152E-01  1.14345644E+00  1.00000000E+00
  1.00000000E+00  1.83473713E-03  1.40373228E-02  6.88426223E-02  2.32184443E-01
  4.67941348E-01  3.62311985E-01 -1.19332420E-01 -1.60854152E-01  1.14345644E+00
  1.00000000E+00  1.00000000E+00  1.83473713E-03  1.40373228E-02  6.88426223E-02
  2.32184443E-01  4.67941348E-01  3.62311985E-01 -1.19332420E-01 -1.60854152E-01
  1.14345644E+00  1.00000000E+00  1.00000000E+00  3.34946043E-02  2.34726953E-01
  8.13757326E-01  1.00000000E+00  3.34946043E-02  2.34726953E-01  8.13757326E-01
  1.00000000E+00  3.34946043E-02  2.34726953E-01  8.13757326E-01  1.00000000E+00
  3.34946043E-02  2.34726953E-01  8.13757326E-01  1.00000000E+00  3.34946043E-02
  2.34726953E-01  8.13757326E-01  1.00000000E+00  3.34946043E-02  2.34726953E-01
  8.13757326E-01  1.00000000E+00  3.34946043E-02  2.34726953E-01  8.13757326E-01
  1.00000000E+00  3.34946043E-02  2.34726953E-01  8.13757326E-01  1.00000000E+00
P(S=P) Contraction coefficients            R   N=         120
  0.00000000E+00  0.00000000E+00  0.00000000E+00  0.00000000E+00  0.00000000E+00
  0.00000000E+00  7.08742682E-02  3.39752839E-01  7.27158577E-01  1.00000000E+00
  0.00000000E+00  0.00000000E+00  0.00000000E+00  0.00000000E+00  0.00000000E+00
  0.00000000E+00  0.00000000E+00  7.08742682E-02  3.39752839E-01  7.27158577E-01
  1.00000000E+00  0.00000000E+00  0.00000000E+00  0.00000000E+00  0.00000000E+00
  0.00000000E+00  0.00000000E+00  0.00000000E+00  7.08742682E-02  3.39752839E-01
  7.27158577E-01  1.00000000E+00  0.00000000E+00  0.00000000E+00  0.00000000E+00
  0.00000000E+00  0.00000000E+00  0.00000000E+00  0.00000000E+00  6.89990666E-02
  3.16423961E-01  7.44308291E-01  1.00000000E+00  0.00000000E+00  0.00000000E+00
  0.00000000E+00  0.00000000E+00  0.00000000E+00  0.00000000E+00  0.00000000E+00
  6.89990666E-02  3.16423961E-01  7.44308291E-01  1.00000000E+00  0.00000000E+00
  0.00000000E+00  0.00000000E+00  0.00000000E+00  0.00000000E+00  0.00000000E+00
  0.00000000E+00  6.89990666E-02  3.16423961E-01  7.44308291E-01  1.00000000E+00
  0.00000000E+00  0.00000000E+00  0.00000000E+00  0.00000000E+00  0.00000000E+00
  0.00000000E+00  0.00000000E+00  6.89990666E-02  3.16423961E-01  7.44308291E-01
  1.00000000E+00  0.00000000E+00  0.00000000E+00  0.00000000E+00  0.00000000E+00
  0.00000000E+00  0.00000000E+00  0.00000000E+00  6.89990666E-02  3.16423961E-01
  7.44308291E-01  1.00000000E+00  0.00000000E+00  0.00000000E+00  0.00000000E+00
  0.00000000E+00  0.00000000E+00  0.00000000E+00  0.00000000E+00  0.00000000E+00
  0.00000000E+00  0.00000000E+00  0.00000000E+00  0.00000000E+00  0.00000000E+00
  0.00000000E+00  0.00000000E+00  0.00000000E+00  0.00000000E+00  0.00000000E+00
  0.00000000E+00  0.00000000E+00  0.00000000E+00  0.00000000E+00  0.00000000E+00
  0.00000000E+00  0.00000000E+00  0.00000000E+00  0.00000000E+00  0.00000000E+00
  0.00000000E+00  0.00000000E+00  0.00000000E+00  0.00000000E+00  0.00000000E+00
Coordinates of each shell                  R   N=         144
  2.24810515E+00  2.62005042E+00 -1.49225431E+00  2.24810515E+00  2.62005042E+00
 -1.49225431E+00  2.24810515E+00  2.62005042E+00 -1.49225431E+00  2.24810515E+00
  2.62005042E+00 -1.49225431E+00 -5.51126355E+00  1.17263529E-01  4.65981959E-01
 -5.51126355E+00  1.17263529E-01  4.65981959E-01 -5.51126355E+00  1.17263529E-01
  4.65981959E-01 -5.51126355E+00  1.17263529E-01  4.65981959E-01 -2.45562376E+00
 -2.21524450E+00 -1.41977764E+00 -2.45562376E+00 -2.21524450E+00 -1.41977764E+00
 -2.45562376E+00 -2.21524450E+00 -1.41977764E+00 -2.45562376E+00 -2.21524450E+00
 -1.41977764E+00  2.88698546E+00 -1.01858515E+00  1.16663194E+00  2.88698546E+00
 -1.01858515E+00  1.16663194E+00  2.88698546E+00 -1.01858515E+00  1.16663194E+00
  2.88698546E+00 -1.01858515E+00  1.16663194E+00  1.38527691E+00  1.15592090E+00
  8.43593253E-02  1.38527691E+00  1.15592090E+00  8.43593253E-02  1.38527691E+00
  1.15592090E+00  8.43593253E-02  1.38527691E+00  1.15592090E+00  8.43593253E-02
 -1.30675133E+00  1.49845280E+00  1.04691212E+00 -1.30675133E+00  1.49845280E+00
  1.04691212E+00 -1.30675133E+00  1.49845280E+00  1.04691212E+00 -1.30675133E+00
  1.49845280E+00  1.04691212E+00  5.50285963E+00 -1.26040410E+00 -1.12243636E-03
  5.50285963E+00 -1.26040410E+00 -1.12243636E-03  5.50285963E+00 -1.26040410E+00
 -1.12243636E-03  5.50285963E+00 -1.26040410E+00 -1.12243636E-03 -3.07250586E+00
 -4.15055444E-01 -1.20596592E-01 -3.07250586E+00 -4.15055444E-01 -1.20596592E-01
 -3.07250586E+00 -4.15055444E-01 -1.20596592E-01 -3.07250586E+00 -4.15055444E-01
 -1.20596592E-01  3.00591728E+00 -7.40098111E-01  3.22163730E+00  3.00591728E+00
 -7.40098111E-01  3.22163730E+00  1.77233608E+00 -2.74229879E+00  8.86362876E-01
  1.77233608E+00 -2.74229879E+00  8.86362876E-01 -1.40774398E+00  1.29879757E+00
  3.10781720E+00 -1.40774398E+00  1.29879757E+00  3.10781720E+00 -1.95824943E+00
  3.39837404E+00  5.59693478E-01 -1.95824943E+00  3.39837404E+00  5.59693478E-01
  6.60087565E+00  4.61423589E-01  2.92890604E-01  6.60087565E+00  4.61423589E-01
  2.92890604E-01  6.52562280E+00 -2.84712782E+00  8.36925750E-01  6.52562280E+00
 -2.84712782E+00  8.36925750E-01  5.36061048E+00 -1.57142278E+00 -2.03566773E+00
  5.36061048E+00 -1.57142278E+00 -2.03566773E+00 -6.52430045E+00 -1.19617734E+00
 -3.58365713E-01 -6.52430045E+00 -1.19617734E+00 -3.58365713E-01
Constraint Structure                       R   N=          48
  2.24810515E+00  2.62005042E+00 -1.49225431E+00 -5.51126355E+00  1.17263529E-01
  4.65981959E-01 -2.45562376E+00 -2.21524450E+00 -1.41977764E+00  2.88698546E+00
 -1.01858515E+00  1.16663194E+00  1.38527691E+00  1.15592090E+00  8.43593253E-02
 -1.30675133E+00  1.49845280E+00  1.04691212E+00  5.50285963E+00 -1.26040410E+00
 -1.12243636E-03 -3.07250586E+00 -4.15055444E-01 -1.20596592E-01  3.00591728E+00
 -7.40098111E-01  3.22163730E+00  1.77233608E+00 -2.74229879E+00  8.86362876E-01
 -1.40774398E+00  1.29879757E+00  3.10781720E+00 -1.95824943E+00  3.39837404E+00
  5.59693478E-01  6.60087565E+00  4.61423589E-01  2.92890604E-01  6.52562280E+00
 -2.84712782E+00  8.36925750E-01  5.36061048E+00 -1.57142278E+00 -2.03566773E+00
 -6.52430045E+00 -1.19617734E+00 -3.58365713E-01
Num ILSW                                   I              100
ILSW                                       I   N=         100
           0           1           0           0           2           0
           0           0           0           0           0          -1
           0           0           0           0           0           0
           0           0           0           0           1           0
           1           0           0           0           0           0
           0           0      100000           0          -1           0
           0           0           0           0           0           0
           0           0           0           1           1           0
           0           0           1           0           0           0
           0           0           4          40           0           0
           0           0           0           0           0           0
           0           0           0           0           0           0
           0           0           0           0           0           0
           0           0           0           0           0           0
           0           0           0           0           0           0
           0           0           0           0           0           0
           0           0           0           0
Num RLSW                                   I               40
RLSW                                       R   N=          40
  1.00000000E+00  1.00000000E+00  1.00000000E+00  1.00000000E+00  1.00000000E+00
  0.00000000E+00  0.00000000E+00  1.00000000E+00  0.00000000E+00  0.00000000E+00
  0.00000000E+00  0.00000000E+00  1.00000000E+00  0.00000000E+00  0.00000000E+00
  0.00000000E+00  0.00000000E+00  1.00000000E+00  0.00000000E+00  0.00000000E+00
  0.00000000E+00  0.00000000E+00  1.00000000E+00  0.00000000E+00  0.00000000E+00
  0.00000000E+00  0.00000000E+00  1.00000000E+00  0.00000000E+00  0.00000000E+00
  0.00000000E+00  0.00000000E+00  0.00000000E+00  0.00000000E+00  0.00000000E+00
  0.00000000E+00  0.00000000E+00  0.00000000E+00  1.00000000E+00  1.00000000E+00
MxBond                                     I                4
NBond                                      I   N=          16
           1           2           1           4           3           4
           4           3           1           1           1           1
           1           1           1           1
IBond                                      I   N=          64
           5           0           0           0           8          16
           0           0           8           0           0           0
           5           7           9          10           1           4
           6           0           5           8          11          12
           4          13          14          15           2           3
           6           0           4           0           0           0
           4           0           0           0           6           0
           0           0           6           0           0           0
           7           0           0           0           7           0
           0           0           7           0           0           0
           2           0           0           0
RBond                                      R   N=          64
  2.00000000E+00  0.00000000E+00  0.00000000E+00  0.00000000E+00  1.50000000E+00
  1.00000000E+00  0.00000000E+00  0.00000000E+00  2.00000000E+00  0.00000000E+00
  0.00000000E+00  0.00000000E+00  1.00000000E+00  1.00000000E+00  1.00000000E+00
  1.00000000E+00  2.00000000E+00  1.00000000E+00  1.00000000E+00  0.00000000E+00
  1.00000000E+00  1.00000000E+00  1.00000000E+00  1.00000000E+00  1.00000000E+00
  1.00000000E+00  1.00000000E+00  1.00000000E+00  1.50000000E+00  2.00000000E+00
  1.00000000E+00  0.00000000E+00  1.00000000E+00  0.00000000E+00  0.00000000E+00
  0.00000000E+00  1.00000000E+00  0.00000000E+00  0.00000000E+00  0.00000000E+00
  1.00000000E+00  0.00000000E+00  0.00000000E+00  0.00000000E+00  1.00000000E+00
  0.00000000E+00  0.00000000E+00  0.00000000E+00  1.00000000E+00  0.00000000E+00
  0.00000000E+00  0.00000000E+00  1.00000000E+00  0.00000000E+00  0.00000000E+00
  0.00000000E+00  1.00000000E+00  0.00000000E+00  0.00000000E+00  0.00000000E+00
  1.00000000E+00  0.00000000E+00  0.00000000E+00  0.00000000E+00
Virial Ratio                               R      2.002845517103895E+00
SCF Energy                                 R     -4.186043054279795E+02
MP2 Energy                                 R     -4.197779927672475E+02
Total Energy                               R     -4.197779927672475E+02
Post-SCF wavefunction norm                 R      1.652481754106652E+00
RMS Force                                  R      2.931828399471117E-07
RMS Density                                R      5.914050429727079E-10
External E-field                           R   N=          35
  0.00000000E+00  0.00000000E+00  0.00000000E+00  0.00000000E+00  0.00000000E+00
  0.00000000E+00  0.00000000E+00  0.00000000E+00  0.00000000E+00  0.00000000E+00
  0.00000000E+00  0.00000000E+00  0.00000000E+00  0.00000000E+00  0.00000000E+00
  0.00000000E+00  0.00000000E+00  0.00000000E+00  0.00000000E+00  0.00000000E+00
  0.00000000E+00  0.00000000E+00  0.00000000E+00  0.00000000E+00  0.00000000E+00
  0.00000000E+00  0.00000000E+00  0.00000000E+00  0.00000000E+00  0.00000000E+00
  0.00000000E+00  0.00000000E+00  0.00000000E+00  0.00000000E+00  0.00000000E+00
IOpCl                                      I                0
IROHF                                      I                0
Alpha Orbital Energies                     R   N=         136
 -2.06372637E+01 -2.05781548E+01 -2.05637558E+01 -1.14162718E+01 -1.13445914E+01
 -1.12691714E+01 -1.12405772E+01 -1.12173837E+01 -1.47629203E+00 -1.38553592E+00
 -1.37279981E+00 -1.08249355E+00 -1.03976389E+00 -8.99579210E-01 -8.37459806E-01
 -7.38437205E-01 -7.14836537E-01 -7.03275786E-01 -6.76884319E-01 -6.46020782E-01
 -6.29216377E-01 -6.21360480E-01 -5.94364551E-01 -5.74097799E-01 -5.23738663E-01
 -5.15225314E-01 -5.12970479E-01 -4.97360616E-01 -4.85534302E-01 -4.64308826E-01
 -4.19454613E-01  1.47497389E-01  1.59870194E-01  2.13506231E-01  2.33682979E-01
  2.56502777E-01  2.93192700E-01  3.10774106E-01  3.16040241E-01  3.23376484E-01
  3.44349029E-01  3.78693584E-01  3.96618112E-01  4.24283394E-01  4.61020445E-01
  4.92738786E-01  5.08097209E-01  5.48443406E-01  6.89046035E-01  7.35887438E-01
  7.45830171E-01  7.58218432E-01  7.91086268E-01  8.10182665E-01  8.23871729E-01
  8.68028451E-01  8.94559750E-01  9.06285557E-01  9.23008149E-01  9.33933683E-01
  9.90279439E-01  1.02398550E+00  1.03479518E+00  1.06056199E+00  1.08282685E+00
  1.09199171E+00  1.11511416E+00  1.13464190E+00  1.14298542E+00  1.16518636E+00
  1.17025941E+00  1.18162243E+00  1.19809663E+00  1.20784667E+00  1.22599800E+00
  1.24229403E+00  1.25095034E+00  1.29192710E+00  1.33729794E+00  1.38826470E+00
  1.39718321E+00  1.45422291E+00  1.50197162E+00  1.63226519E+00  1.64918406E+00
  1.67090865E+00  1.72074850E+00  1.75489601E+00  1.79065575E+00  1.84031619E+00
  1.89718654E+00  1.94283889E+00  1.99362366E+00  2.02138752E+00  2.03429738E+00
  2.05258967E+00  2.08631850E+00  2.12378319E+00  2.13796158E+00  2.16097919E+00
  2.18396399E+00  2.21625336E+00  2.23782644E+00  2.26299410E+00  2.27552797E+00
  2.29217147E+00  2.33486978E+00  2.41580350E+00  2.44948397E+00  2.49785362E+00
  2.60833475E+00  2.62679003E+00  2.64753929E+00  2.65792613E+00  2.70338988E+00
  2.76258331E+00  2.76824179E+00  2.82556238E+00  2.88968967E+00  2.93523801E+00
  2.96407172E+00  3.05162739E+00  3.11947503E+00  3.19034090E+00  3.32254202E+00
  3.33309839E+00  3.36069927E+00  3.46100282E+00  4.22422130E+00  4.40626968E+00
  4.48973804E+00  4.53589305E+00  4.64512805E+00  4.76183525E+00  4.92474996E+00
  4.96993109E+00
Alpha MO coefficients                      R   N=       18496
  3.07495412E-06  1.46487131E-05  7.37730108E-07 -3.51292281E-06  1.67230895E-06
 -6.90782643E-05 -3.51254589E-05  3.12561660E-05 -1.04267667E-05  1.22150291E-05
  6.19137430E-06  1.20900260E-05  4.12076342E-06 -2.43593426E-06  6.17925702E-06
  9.94636400E-01  2.11669406E-02  4.53963826E-04 -9.70254589E-04 -7.07178520E-04
  4.10399192E-03 -6.43218404E-05  5.28766657E-04  3.68210361E-04 -4.14143982E-03
 -4.05857507E-03 -4.00287279E-03 -3.86664493E-05 -8.30372051E-06 -7.88664734E-05
 -2.91417078E-04  3.29282934E-05  3.63260796E-05 -1.61455977E-05 -1.38878078E-05
 -3.43544917E-04  1.01068962E-04 -4.35203456E-05 -4.24434793E-05 -1.94660804E-05
  1.63746575E-05 -2.06547522E-06  5.51646962E-05  3.99742482E-05  1.25021539E-05
  2.25365127E-06  5.68580136E-06 -8.79924898E-06  3.32668984E-06  1.48889407E-06
 -1.90648817E-05  2.11590562E-05 -4.28524264E-05  9.93523634E-06  1.16629849E-05
  1.22506362E-06  3.07010036E-06 -2.51253747E-06 -1.02034951E-06  6.93002748E-06
  7.09956301E-06  4.13640968E-05  1.30960780E-06  3.07753526E-06  1.29024850E-06
 -3.86080277E-04  3.40341949E-04 -4.52978420E-05 -9.93864998E-05 -1.06204791E-05
  9.89865676E-06  1.32248815E-05  4.14218914E-07  3.19910919E-06  5.99495041E-06
 -1.16119311E-05 -1.36789955E-05 -1.68165709E-05  2.47431154E-06  7.49121116E-06
  7.55840051E-04  2.94569568E-04 -1.12839698E-04 -1.82531138E-04 -5.95216182E-05
 -3.06898503E-05 -2.51605859E-05 -2.69027977E-05 -2.72793095E-05  1.18053051E-05
  2.99916880E-06  1.54477265E-05 -2.20784430E-06  4.74037465E-06 -1.13199250E-06
 -6.10795184E-05  3.78127231E-05 -3.47719178E-05  4.90346913E-06 -7.49060465E-07
  3.58734105E-06  4.88560441E-06  1.97967585E-06  1.67455211E-06 -5.99086037E-09
 -2.60910158E-06  3.96017238E-04 -3.00337655E-04  6.89578349E-05  7.44172792E-05
 -1.76726329E-04 -6.87593577E-05 -4.49060789E-04 -2.90292338E-04 -1.02310849E-04
 -1.96469560E-05 -3.98990820E-05  2.42343947E-05  2.20028143E-05  2.90250023E-05
  2.54378454E-06  3.61148910E-06  8.37972445E-06 -3.08954787E-05  1.07130105E-05
 -1.52658387E-05  1.98558277E-05 -6.38870758E-05  6.09300721E-06  7.94595378E-06
 -6.40250888E-07 -2.05356844E-05  4.49568410E-06  5.69133055E-06  4.31248482E-04
 -2.50472869E-04 -2.74336194E-05 -3.71202781E-05  8.44394262E-06  6.43871739E-06
 -9.43467098E-07  1.96126940E-04 -6.81712024E-05 -4.59938082E-05  2.25842147E-05
 -2.00912203E-05 -2.10818263E-05 -2.93355568E-05  9.03344584E-06 -4.71762404E-06
 -6.02525080E-07  2.84572055E-04 -7.55771738E-05 -2.30272012E-05  2.59653415E-05
  2.01330945E-05  3.51012071E-04  1.39547089E-04 -3.28424221E-05 -3.78993238E-05
  3.33328717E-05 -9.49150262E-05 -9.75559712E-05  5.71775937E-05  2.58686985E-05
 -6.29351422E-06  9.94693777E-01  2.09982180E-02 -4.53353370E-04  1.22491821E-03
  8.94417732E-04  4.38898661E-03  6.80892855E-06 -5.67154404E-05 -3.45426486E-05
 -3.88509109E-03 -3.78786670E-03 -3.95795391E-03 -6.77721017E-05 -6.88827774E-05
  2.79535379E-04 -3.65845214E-06 -2.23222873E-05 -7.01280742E-06  1.46054803E-05
 -1.08938643E-05  1.53775119E-04 -3.78920296E-05 -1.12760861E-04  2.94416942E-05
  1.70101751E-06 -1.09902269E-05  1.13236336E-06  2.75724655E-06  2.31708725E-06
  5.63940456E-06  1.12151662E-05  4.23885771E-05 -1.48855287E-05 -2.20404706E-05
 -6.96260812E-06 -3.39233621E-04  1.77547960E-04 -3.48134057E-05  6.14272353E-05
  9.77726130E-06  2.09183193E-05  1.73657589E-05  5.87924833E-06  1.18011490E-05
  1.04984263E-07 -1.31052827E-06 -1.72393924E-05 -1.00707538E-05  1.31491007E-05
  1.01028157E-05  5.52127486E-05  1.53659077E-04  7.76373685E-05 -3.42254947E-05
  6.86720844E-05 -4.04888436E-05 -2.54944225E-05  2.29690200E-05  6.73946988E-07
 -2.32886571E-05 -5.24002845E-07  1.26745854E-06  6.73818736E-06  5.50605032E-06
  1.65169473E-06 -8.28887995E-06 -1.11760166E-05 -7.36726740E-06 -1.84647267E-05
 -2.68006225E-06 -3.69876385E-06 -1.71230754E-06 -2.67407444E-06  2.23024213E-06
  2.98833059E-06 -5.78681895E-06  4.93579893E-04 -1.94308759E-05  4.07684348E-05
  2.75910759E-05 -3.89199239E-04  1.48510831E-04  3.32523024E-04  2.31741151E-04
 -1.43759016E-04 -5.12934230E-04 -2.83495582E-04  1.97330455E-04  1.46135573E-04
 -3.92052648E-04 -1.38576007E-05 -1.82444951E-05  2.62339083E-05 -2.20218893E-04
  9.98317125E-06 -1.20457777E-05  4.32528104E-06 -4.80049357E-05  2.52883214E-06
  1.48780207E-05  5.90905098E-07  1.21054719E-06 -3.78952024E-06 -5.44883701E-06
 -2.07685436E-05 -4.37981787E-06  9.94701446E-01  2.09266005E-02 -5.69151001E-04
 -9.43733114E-04  1.02402704E-03  4.51532814E-03  3.12973273E-05  2.51693473E-05
 -1.47316304E-05 -3.87319070E-03 -3.87599543E-03 -3.91409368E-03 -2.48952588E-06
 -1.63936247E-04 -2.81406319E-04  1.12662716E-05  4.89457114E-05  7.79939075E-06
  3.77505935E-07 -4.30582691E-07 -2.74528635E-04 -9.80449867E-05  1.44059469E-05
  1.46418991E-05  1.71525161E-05  3.23582717E-05  3.49007706E-05  3.05433815E-06