59389231                                                                
Freq      RMP2-FC                                                     6-31G(d)            
Number of atoms                            I               27
Info1-9                                    I   N=           9
          39          37        1002           0           0         100
           6           2           1
Charge                                     I                0
Multiplicity                               I                1
Number of electrons                        I               88
Number of alpha electrons                  I               44
Number of beta electrons                   I               44
Number of basis functions                  I              210
Number of independent functions            I              210
Number of point charges in /Mol/           I                0
Number of translation vectors              I                0
Atomic numbers                             I   N=          27
           7           6           6           6           6           6
           6           6           6           6           6           6
           1           1           1           1           1           1
           1           1           1           1           1           1
           1           1           1
Nuclear charges                            R   N=          27
  7.00000000E+00  6.00000000E+00  6.00000000E+00  6.00000000E+00  6.00000000E+00
  6.00000000E+00  6.00000000E+00  6.00000000E+00  6.00000000E+00  6.00000000E+00
  6.00000000E+00  6.00000000E+00  1.00000000E+00  1.00000000E+00  1.00000000E+00
  1.00000000E+00  1.00000000E+00  1.00000000E+00  1.00000000E+00  1.00000000E+00
  1.00000000E+00  1.00000000E+00  1.00000000E+00  1.00000000E+00  1.00000000E+00
  1.00000000E+00  1.00000000E+00
Current cartesian coordinates              R   N=          81
  1.97106400E+00  1.66959565E+00  6.16446915E-01 -5.09015569E+00 -2.33587821E-01
 -5.00807187E-01 -7.88144930E-01 -1.91726723E+00 -1.50163754E-02 -2.58571597E+00
 -5.86852079E-01 -1.91106439E+00 -4.18890656E+00  3.37078144E-01  2.18443525E+00
 -2.07794212E+00 -1.59361974E+00  2.61008415E+00 -6.80344500E+00  1.77167647E+00
 -1.64877644E+00  1.81796909E+00 -7.83646734E-01 -7.52820514E-02  3.94826428E+00
 -2.17238772E+00 -8.00551699E-01  6.31095476E+00 -1.00578674E+00 -8.21528117E-01
  4.25814777E+00  2.76913702E+00  5.94863334E-01  6.47471457E+00  1.52354323E+00
 -1.07406281E-01 -6.10096090E+00 -2.05117077E+00 -4.72483475E-01 -6.29851185E-01
 -3.93169547E+00 -4.80163372E-01 -1.81755937E+00  1.28134500E+00 -2.37553910E+00
 -2.78817889E+00 -1.64297873E+00 -3.68161748E+00 -5.70077838E+00  2.15162220E-01
  3.59563279E+00 -3.40297624E+00  2.25408382E+00  2.24261699E+00 -7.28636458E-01
 -1.00058587E+00  4.05951350E+00 -2.88710824E+00 -3.40404037E+00  3.21204223E+00
 -7.32690592E+00  1.29320005E+00 -3.59272540E+00 -8.54686137E+00  1.98381761E+00
 -5.54910306E-01 -5.83780194E+00  3.60231686E+00 -1.67790038E+00  3.74969178E+00
 -4.14548724E+00 -1.33963810E+00  7.98904638E+00 -2.05185378E+00 -1.38151665E+00
  4.30498119E+00  4.74539705E+00  1.16878422E+00  8.27201037E+00  2.51559921E+00
 -9.09250534E-02
Force Field                                I                0
Int Atom Types                             I   N=          27
           0           0           0           0           0           0
           0           0           0           0           0           0
           0           0           0           0           0           0
           0           0           0           0           0           0
           0           0           0
MM charges                                 R   N=          27
  0.00000000E+00  0.00000000E+00  0.00000000E+00  0.00000000E+00  0.00000000E+00
  0.00000000E+00  0.00000000E+00  0.00000000E+00  0.00000000E+00  0.00000000E+00
  0.00000000E+00  0.00000000E+00  0.00000000E+00  0.00000000E+00  0.00000000E+00
  0.00000000E+00  0.00000000E+00  0.00000000E+00  0.00000000E+00  0.00000000E+00
  0.00000000E+00  0.00000000E+00  0.00000000E+00  0.00000000E+00  0.00000000E+00
  0.00000000E+00  0.00000000E+00
Integer atomic weights                     I   N=          27
          14          12          12          12          12          12
          12          12          12          12          12          12
           1           1           1           1           1           1
           1           1           1           1           1           1
           1           1           1
Real atomic weights                        R   N=          27
  1.40030740E+01  1.20000000E+01  1.20000000E+01  1.20000000E+01  1.20000000E+01
  1.20000000E+01  1.20000000E+01  1.20000000E+01  1.20000000E+01  1.20000000E+01
  1.20000000E+01  1.20000000E+01  1.00782504E+00  1.00782504E+00  1.00782504E+00
  1.00782504E+00  1.00782504E+00  1.00782504E+00  1.00782504E+00  1.00782504E+00
  1.00782504E+00  1.00782504E+00  1.00782504E+00  1.00782504E+00  1.00782504E+00
  1.00782504E+00  1.00782504E+00
Atom fragment info                         I   N=          27
           0           0           0           0           0           0
           0           0           0           0           0           0
           0           0           0           0           0           0
           0           0           0           0           0           0
           0           0           0
Atom residue num                           I   N=          27
           0           0           0           0           0           0
           0           0           0           0           0           0
           0           0           0           0           0           0
           0           0           0           0           0           0
           0           0           0
Nuclear spins                              I   N=          27
           2           0           0           0           0           0
           0           0           0           0           0           0
           1           1           1           1           1           1
           1           1           1           1           1           1
           1           1           1
Nuclear ZEff                               R   N=          27
 -4.55000000E+00 -3.60000000E+00 -3.60000000E+00 -3.60000000E+00 -3.60000000E+00
 -3.60000000E+00 -3.60000000E+00 -3.60000000E+00 -3.60000000E+00 -3.60000000E+00
 -3.60000000E+00 -3.60000000E+00 -1.00000000E+00 -1.00000000E+00 -1.00000000E+00
 -1.00000000E+00 -1.00000000E+00 -1.00000000E+00 -1.00000000E+00 -1.00000000E+00
 -1.00000000E+00 -1.00000000E+00 -1.00000000E+00 -1.00000000E+00 -1.00000000E+00
 -1.00000000E+00 -1.00000000E+00
Nuclear QMom                               R   N=          27
  2.04400000E+00  0.00000000E+00  0.00000000E+00  0.00000000E+00  0.00000000E+00
  0.00000000E+00  0.00000000E+00  0.00000000E+00  0.00000000E+00  0.00000000E+00
  0.00000000E+00  0.00000000E+00  0.00000000E+00  0.00000000E+00  0.00000000E+00
  0.00000000E+00  0.00000000E+00  0.00000000E+00  0.00000000E+00  0.00000000E+00
  0.00000000E+00  0.00000000E+00  0.00000000E+00  0.00000000E+00  0.00000000E+00
  0.00000000E+00  0.00000000E+00
Nuclear GFac                               R   N=          27
  4.03761000E-01  0.00000000E+00  0.00000000E+00  0.00000000E+00  0.00000000E+00
  0.00000000E+00  0.00000000E+00  0.00000000E+00  0.00000000E+00  0.00000000E+00
  0.00000000E+00  0.00000000E+00  2.79284600E+00  2.79284600E+00  2.79284600E+00
  2.79284600E+00  2.79284600E+00  2.79284600E+00  2.79284600E+00  2.79284600E+00
  2.79284600E+00  2.79284600E+00  2.79284600E+00  2.79284600E+00  2.79284600E+00
  2.79284600E+00  2.79284600E+00
MicOpt                                     I   N=          27
          -1          -1          -1          -1          -1          -1
          -1          -1          -1          -1          -1          -1
          -1          -1          -1          -1          -1          -1
          -1          -1          -1          -1          -1          -1
          -1          -1          -1
Number of contracted shells                I               78
Number of primitive shells                 I              192
Pure/Cartesian d shells                    I                1
Pure/Cartesian f shells                    I                0
Highest angular momentum                   I                2
Largest degree of contraction              I                6
Shell types                                I   N=          78
           0          -1          -1           2           0          -1
          -1           2           0          -1          -1           2
           0          -1          -1           2           0          -1
          -1           2           0          -1          -1           2
           0          -1          -1           2           0          -1
          -1           2           0          -1          -1           2
           0          -1          -1           2           0          -1
          -1           2           0          -1          -1           2
           0           0           0           0           0           0
           0           0           0           0           0           0
           0           0           0           0           0           0
           0           0           0           0           0           0
           0           0           0           0           0           0
Number of primitives per shell             I   N=          78
           6           3           1           1           6           3
           1           1           6           3           1           1
           6           3           1           1           6           3
           1           1           6           3           1           1
           6           3           1           1           6           3
           1           1           6           3           1           1
           6           3           1           1           6           3
           1           1           6           3           1           1
           3           1           3           1           3           1
           3           1           3           1           3           1
           3           1           3           1           3           1
           3           1           3           1           3           1
           3           1           3           1           3           1
Shell to atom map                          I   N=          78
           1           1           1           1           2           2
           2           2           3           3           3           3
           4           4           4           4           5           5
           5           5           6           6           6           6
           7           7           7           7           8           8
           8           8           9           9           9           9
          10          10          10          10          11          11
          11          11          12          12          12          12
          13          13          14          14          15          15
          16          16          17          17          18          18
          19          19          20          20          21          21
          22          22          23          23          24          24
          25          25          26          26          27          27
Primitive exponents                        R   N=         192
  4.17351146E+03  6.27457911E+02  1.42902093E+02  4.02343293E+01  1.28202129E+01
  4.39043701E+00  1.16263619E+01  2.71627981E+00  7.72218397E-01  2.12031498E-01
  8.00000000E-01  3.04752488E+03  4.57369518E+02  1.03948685E+02  2.92101553E+01
  9.28666296E+00  3.16392696E+00  7.86827235E+00  1.88128854E+00  5.44249258E-01
  1.68714478E-01  8.00000000E-01  3.04752488E+03  4.57369518E+02  1.03948685E+02
  2.92101553E+01  9.28666296E+00  3.16392696E+00  7.86827235E+00  1.88128854E+00
  5.44249258E-01  1.68714478E-01  8.00000000E-01  3.04752488E+03  4.57369518E+02
  1.03948685E+02  2.92101553E+01  9.28666296E+00  3.16392696E+00  7.86827235E+00
  1.88128854E+00  5.44249258E-01  1.68714478E-01  8.00000000E-01  3.04752488E+03
  4.57369518E+02  1.03948685E+02  2.92101553E+01  9.28666296E+00  3.16392696E+00
  7.86827235E+00  1.88128854E+00  5.44249258E-01  1.68714478E-01  8.00000000E-01
  3.04752488E+03  4.57369518E+02  1.03948685E+02  2.92101553E+01  9.28666296E+00
  3.16392696E+00  7.86827235E+00  1.88128854E+00  5.44249258E-01  1.68714478E-01
  8.00000000E-01  3.04752488E+03  4.57369518E+02  1.03948685E+02  2.92101553E+01
  9.28666296E+00  3.16392696E+00  7.86827235E+00  1.88128854E+00  5.44249258E-01
  1.68714478E-01  8.00000000E-01  3.04752488E+03  4.57369518E+02  1.03948685E+02
  2.92101553E+01  9.28666296E+00  3.16392696E+00  7.86827235E+00  1.88128854E+00
  5.44249258E-01  1.68714478E-01  8.00000000E-01  3.04752488E+03  4.57369518E+02
  1.03948685E+02  2.92101553E+01  9.28666296E+00  3.16392696E+00  7.86827235E+00
  1.88128854E+00  5.44249258E-01  1.68714478E-01  8.00000000E-01  3.04752488E+03
  4.57369518E+02  1.03948685E+02  2.92101553E+01  9.28666296E+00  3.16392696E+00
  7.86827235E+00  1.88128854E+00  5.44249258E-01  1.68714478E-01  8.00000000E-01
  3.04752488E+03  4.57369518E+02  1.03948685E+02  2.92101553E+01  9.28666296E+00
  3.16392696E+00  7.86827235E+00  1.88128854E+00  5.44249258E-01  1.68714478E-01
  8.00000000E-01  3.04752488E+03  4.57369518E+02  1.03948685E+02  2.92101553E+01
  9.28666296E+00  3.16392696E+00  7.86827235E+00  1.88128854E+00  5.44249258E-01
  1.68714478E-01  8.00000000E-01  1.87311370E+01  2.82539436E+00  6.40121692E-01
  1.61277759E-01  1.87311370E+01  2.82539436E+00  6.40121692E-01  1.61277759E-01
  1.87311370E+01  2.82539436E+00  6.40121692E-01  1.61277759E-01  1.87311370E+01
  2.82539436E+00  6.40121692E-01  1.61277759E-01  1.87311370E+01  2.82539436E+00
  6.40121692E-01  1.61277759E-01  1.87311370E+01  2.82539436E+00  6.40121692E-01
  1.61277759E-01  1.87311370E+01  2.82539436E+00  6.40121692E-01  1.61277759E-01
  1.87311370E+01  2.82539436E+00  6.40121692E-01  1.61277759E-01  1.87311370E+01
  2.82539436E+00  6.40121692E-01  1.61277759E-01  1.87311370E+01  2.82539436E+00
  6.40121692E-01  1.61277759E-01  1.87311370E+01  2.82539436E+00  6.40121692E-01
  1.61277759E-01  1.87311370E+01  2.82539436E+00  6.40121692E-01  1.61277759E-01
  1.87311370E+01  2.82539436E+00  6.40121692E-01  1.61277759E-01  1.87311370E+01
  2.82539436E+00  6.40121692E-01  1.61277759E-01  1.87311370E+01  2.82539436E+00
  6.40121692E-01  1.61277759E-01
Contraction coefficients                   R   N=         192
  1.83477216E-03  1.39946270E-02  6.85865518E-02  2.32240873E-01  4.69069948E-01
  3.60455199E-01 -1.14961182E-01 -1.69117479E-01  1.14585195E+00  1.00000000E+00
  1.00000000E+00  1.83473713E-03  1.40373228E-02  6.88426223E-02  2.32184443E-01
  4.67941348E-01  3.62311985E-01 -1.19332420E-01 -1.60854152E-01  1.14345644E+00
  1.00000000E+00  1.00000000E+00  1.83473713E-03  1.40373228E-02  6.88426223E-02
  2.32184443E-01  4.67941348E-01  3.62311985E-01 -1.19332420E-01 -1.60854152E-01
  1.14345644E+00  1.00000000E+00  1.00000000E+00  1.83473713E-03  1.40373228E-02
  6.88426223E-02  2.32184443E-01  4.67941348E-01  3.62311985E-01 -1.19332420E-01
 -1.60854152E-01  1.14345644E+00  1.00000000E+00  1.00000000E+00  1.83473713E-03
  1.40373228E-02  6.88426223E-02  2.32184443E-01  4.67941348E-01  3.62311985E-01
 -1.19332420E-01 -1.60854152E-01  1.14345644E+00  1.00000000E+00  1.00000000E+00
  1.83473713E-03  1.40373228E-02  6.88426223E-02  2.32184443E-01  4.67941348E-01
  3.62311985E-01 -1.19332420E-01 -1.60854152E-01  1.14345644E+00  1.00000000E+00
  1.00000000E+00  1.83473713E-03  1.40373228E-02  6.88426223E-02  2.32184443E-01
  4.67941348E-01  3.62311985E-01 -1.19332420E-01 -1.60854152E-01  1.14345644E+00
  1.00000000E+00  1.00000000E+00  1.83473713E-03  1.40373228E-02  6.88426223E-02
  2.32184443E-01  4.67941348E-01  3.62311985E-01 -1.19332420E-01 -1.60854152E-01
  1.14345644E+00  1.00000000E+00  1.00000000E+00  1.83473713E-03  1.40373228E-02
  6.88426223E-02  2.32184443E-01  4.67941348E-01  3.62311985E-01 -1.19332420E-01
 -1.60854152E-01  1.14345644E+00  1.00000000E+00  1.00000000E+00  1.83473713E-03
  1.40373228E-02  6.88426223E-02  2.32184443E-01  4.67941348E-01  3.62311985E-01
 -1.19332420E-01 -1.60854152E-01  1.14345644E+00  1.00000000E+00  1.00000000E+00
  1.83473713E-03  1.40373228E-02  6.88426223E-02  2.32184443E-01  4.67941348E-01
  3.62311985E-01 -1.19332420E-01 -1.60854152E-01  1.14345644E+00  1.00000000E+00
  1.00000000E+00  1.83473713E-03  1.40373228E-02  6.88426223E-02  2.32184443E-01
  4.67941348E-01  3.62311985E-01 -1.19332420E-01 -1.60854152E-01  1.14345644E+00
  1.00000000E+00  1.00000000E+00  3.34946043E-02  2.34726953E-01  8.13757326E-01
  1.00000000E+00  3.34946043E-02  2.34726953E-01  8.13757326E-01  1.00000000E+00
  3.34946043E-02  2.34726953E-01  8.13757326E-01  1.00000000E+00  3.34946043E-02
  2.34726953E-01  8.13757326E-01  1.00000000E+00  3.34946043E-02  2.34726953E-01
  8.13757326E-01  1.00000000E+00  3.34946043E-02  2.34726953E-01  8.13757326E-01
  1.00000000E+00  3.34946043E-02  2.34726953E-01  8.13757326E-01  1.00000000E+00
  3.34946043E-02  2.34726953E-01  8.13757326E-01  1.00000000E+00  3.34946043E-02
  2.34726953E-01  8.13757326E-01  1.00000000E+00  3.34946043E-02  2.34726953E-01
  8.13757326E-01  1.00000000E+00  3.34946043E-02  2.34726953E-01  8.13757326E-01
  1.00000000E+00  3.34946043E-02  2.34726953E-01  8.13757326E-01  1.00000000E+00
  3.34946043E-02  2.34726953E-01  8.13757326E-01  1.00000000E+00  3.34946043E-02
  2.34726953E-01  8.13757326E-01  1.00000000E+00  3.34946043E-02  2.34726953E-01
  8.13757326E-01  1.00000000E+00
P(S=P) Contraction coefficients            R   N=         192
  0.00000000E+00  0.00000000E+00  0.00000000E+00  0.00000000E+00  0.00000000E+00
  0.00000000E+00  6.75797439E-02  3.23907296E-01  7.40895140E-01  1.00000000E+00
  0.00000000E+00  0.00000000E+00  0.00000000E+00  0.00000000E+00  0.00000000E+00
  0.00000000E+00  0.00000000E+00  6.89990666E-02  3.16423961E-01  7.44308291E-01
  1.00000000E+00  0.00000000E+00  0.00000000E+00  0.00000000E+00  0.00000000E+00
  0.00000000E+00  0.00000000E+00  0.00000000E+00  6.89990666E-02  3.16423961E-01
  7.44308291E-01  1.00000000E+00  0.00000000E+00  0.00000000E+00  0.00000000E+00
  0.00000000E+00  0.00000000E+00  0.00000000E+00  0.00000000E+00  6.89990666E-02
  3.16423961E-01  7.44308291E-01  1.00000000E+00  0.00000000E+00  0.00000000E+00
  0.00000000E+00  0.00000000E+00  0.00000000E+00  0.00000000E+00  0.00000000E+00
  6.89990666E-02  3.16423961E-01  7.44308291E-01  1.00000000E+00  0.00000000E+00
  0.00000000E+00  0.00000000E+00  0.00000000E+00  0.00000000E+00  0.00000000E+00
  0.00000000E+00  6.89990666E-02  3.16423961E-01  7.44308291E-01  1.00000000E+00
  0.00000000E+00  0.00000000E+00  0.00000000E+00  0.00000000E+00  0.00000000E+00
  0.00000000E+00  0.00000000E+00  6.89990666E-02  3.16423961E-01  7.44308291E-01
  1.00000000E+00  0.00000000E+00  0.00000000E+00  0.00000000E+00  0.00000000E+00
  0.00000000E+00  0.00000000E+00  0.00000000E+00  6.89990666E-02  3.16423961E-01
  7.44308291E-01  1.00000000E+00  0.00000000E+00  0.00000000E+00  0.00000000E+00
  0.00000000E+00  0.00000000E+00  0.00000000E+00  0.00000000E+00  6.89990666E-02
  3.16423961E-01  7.44308291E-01  1.00000000E+00  0.00000000E+00  0.00000000E+00
  0.00000000E+00  0.00000000E+00  0.00000000E+00  0.00000000E+00  0.00000000E+00
  6.89990666E-02  3.16423961E-01  7.44308291E-01  1.00000000E+00  0.00000000E+00
  0.00000000E+00  0.00000000E+00  0.00000000E+00  0.00000000E+00  0.00000000E+00
  0.00000000E+00  6.89990666E-02  3.16423961E-01  7.44308291E-01  1.00000000E+00
  0.00000000E+00  0.00000000E+00  0.00000000E+00  0.00000000E+00  0.00000000E+00
  0.00000000E+00  0.00000000E+00  6.89990666E-02  3.16423961E-01  7.44308291E-01
  1.00000000E+00  0.00000000E+00  0.00000000E+00  0.00000000E+00  0.00000000E+00
  0.00000000E+00  0.00000000E+00  0.00000000E+00  0.00000000E+00  0.00000000E+00
  0.00000000E+00  0.00000000E+00  0.00000000E+00  0.00000000E+00  0.00000000E+00
  0.00000000E+00  0.00000000E+00  0.00000000E+00  0.00000000E+00  0.00000000E+00
  0.00000000E+00  0.00000000E+00  0.00000000E+00  0.00000000E+00  0.00000000E+00
  0.00000000E+00  0.00000000E+00  0.00000000E+00  0.00000000E+00  0.00000000E+00
  0.00000000E+00  0.00000000E+00  0.00000000E+00  0.00000000E+00  0.00000000E+00
  0.00000000E+00  0.00000000E+00  0.00000000E+00  0.00000000E+00  0.00000000E+00
  0.00000000E+00  0.00000000E+00  0.00000000E+00  0.00000000E+00  0.00000000E+00
  0.00000000E+00  0.00000000E+00  0.00000000E+00  0.00000000E+00  0.00000000E+00
  0.00000000E+00  0.00000000E+00  0.00000000E+00  0.00000000E+00  0.00000000E+00
  0.00000000E+00  0.00000000E+00  0.00000000E+00  0.00000000E+00  0.00000000E+00
  0.00000000E+00  0.00000000E+00
Coordinates of each shell                  R   N=         234
  1.97106400E+00  1.66959565E+00  6.16446915E-01  1.97106400E+00  1.66959565E+00
  6.16446915E-01  1.97106400E+00  1.66959565E+00  6.16446915E-01  1.97106400E+00
  1.66959565E+00  6.16446915E-01 -5.09015569E+00 -2.33587821E-01 -5.00807187E-01
 -5.09015569E+00 -2.33587821E-01 -5.00807187E-01 -5.09015569E+00 -2.33587821E-01
 -5.00807187E-01 -5.09015569E+00 -2.33587821E-01 -5.00807187E-01 -7.88144930E-01
 -1.91726723E+00 -1.50163754E-02 -7.88144930E-01 -1.91726723E+00 -1.50163754E-02
 -7.88144930E-01 -1.91726723E+00 -1.50163754E-02 -7.88144930E-01 -1.91726723E+00
 -1.50163754E-02 -2.58571597E+00 -5.86852079E-01 -1.91106439E+00 -2.58571597E+00
 -5.86852079E-01 -1.91106439E+00 -2.58571597E+00 -5.86852079E-01 -1.91106439E+00
 -2.58571597E+00 -5.86852079E-01 -1.91106439E+00 -4.18890656E+00  3.37078144E-01
  2.18443525E+00 -4.18890656E+00  3.37078144E-01  2.18443525E+00 -4.18890656E+00
  3.37078144E-01  2.18443525E+00 -4.18890656E+00  3.37078144E-01  2.18443525E+00
 -2.07794212E+00 -1.59361974E+00  2.61008415E+00 -2.07794212E+00 -1.59361974E+00
  2.61008415E+00 -2.07794212E+00 -1.59361974E+00  2.61008415E+00 -2.07794212E+00
 -1.59361974E+00  2.61008415E+00 -6.80344500E+00  1.77167647E+00 -1.64877644E+00
 -6.80344500E+00  1.77167647E+00 -1.64877644E+00 -6.80344500E+00  1.77167647E+00
 -1.64877644E+00 -6.80344500E+00  1.77167647E+00 -1.64877644E+00  1.81796909E+00
 -7.83646734E-01 -7.52820514E-02  1.81796909E+00 -7.83646734E-01 -7.52820514E-02
  1.81796909E+00 -7.83646734E-01 -7.52820514E-02  1.81796909E+00 -7.83646734E-01
 -7.52820514E-02  3.94826428E+00 -2.17238772E+00 -8.00551699E-01  3.94826428E+00
 -2.17238772E+00 -8.00551699E-01  3.94826428E+00 -2.17238772E+00 -8.00551699E-01
  3.94826428E+00 -2.17238772E+00 -8.00551699E-01  6.31095476E+00 -1.00578674E+00
 -8.21528117E-01  6.31095476E+00 -1.00578674E+00 -8.21528117E-01  6.31095476E+00
 -1.00578674E+00 -8.21528117E-01  6.31095476E+00 -1.00578674E+00 -8.21528117E-01
  4.25814777E+00  2.76913702E+00  5.94863334E-01  4.25814777E+00  2.76913702E+00
  5.94863334E-01  4.25814777E+00  2.76913702E+00  5.94863334E-01  4.25814777E+00
  2.76913702E+00  5.94863334E-01  6.47471457E+00  1.52354323E+00 -1.07406281E-01
  6.47471457E+00  1.52354323E+00 -1.07406281E-01  6.47471457E+00  1.52354323E+00
 -1.07406281E-01  6.47471457E+00  1.52354323E+00 -1.07406281E-01 -6.10096090E+00
 -2.05117077E+00 -4.72483475E-01 -6.10096090E+00 -2.05117077E+00 -4.72483475E-01
 -6.29851185E-01 -3.93169547E+00 -4.80163372E-01 -6.29851185E-01 -3.93169547E+00
 -4.80163372E-01 -1.81755937E+00  1.28134500E+00 -2.37553910E+00 -1.81755937E+00
  1.28134500E+00 -2.37553910E+00 -2.78817889E+00 -1.64297873E+00 -3.68161748E+00
 -2.78817889E+00 -1.64297873E+00 -3.68161748E+00 -5.70077838E+00  2.15162220E-01
  3.59563279E+00 -5.70077838E+00  2.15162220E-01  3.59563279E+00 -3.40297624E+00
  2.25408382E+00  2.24261699E+00 -3.40297624E+00  2.25408382E+00  2.24261699E+00
 -7.28636458E-01 -1.00058587E+00  4.05951350E+00 -7.28636458E-01 -1.00058587E+00
  4.05951350E+00 -2.88710824E+00 -3.40404037E+00  3.21204223E+00 -2.88710824E+00
 -3.40404037E+00  3.21204223E+00 -7.32690592E+00  1.29320005E+00 -3.59272540E+00
 -7.32690592E+00  1.29320005E+00 -3.59272540E+00 -8.54686137E+00  1.98381761E+00
 -5.54910306E-01 -8.54686137E+00  1.98381761E+00 -5.54910306E-01 -5.83780194E+00
  3.60231686E+00 -1.67790038E+00 -5.83780194E+00  3.60231686E+00 -1.67790038E+00
  3.74969178E+00 -4.14548724E+00 -1.33963810E+00  3.74969178E+00 -4.14548724E+00
 -1.33963810E+00  7.98904638E+00 -2.05185378E+00 -1.38151665E+00  7.98904638E+00
 -2.05185378E+00 -1.38151665E+00  4.30498119E+00  4.74539705E+00  1.16878422E+00
  4.30498119E+00  4.74539705E+00  1.16878422E+00  8.27201037E+00  2.51559921E+00
 -9.09250534E-02  8.27201037E+00  2.51559921E+00 -9.09250534E-02
Constraint Structure                       R   N=          81
  1.97106400E+00  1.66959565E+00  6.16446915E-01 -5.09015569E+00 -2.33587821E-01
 -5.00807187E-01 -7.88144930E-01 -1.91726723E+00 -1.50163754E-02 -2.58571597E+00
 -5.86852079E-01 -1.91106439E+00 -4.18890656E+00  3.37078144E-01  2.18443525E+00
 -2.07794212E+00 -1.59361974E+00  2.61008415E+00 -6.80344500E+00  1.77167647E+00
 -1.64877644E+00  1.81796909E+00 -7.83646734E-01 -7.52820514E-02  3.94826428E+00
 -2.17238772E+00 -8.00551699E-01  6.31095476E+00 -1.00578674E+00 -8.21528117E-01
  4.25814777E+00  2.76913702E+00  5.94863334E-01  6.47471457E+00  1.52354323E+00
 -1.07406281E-01 -6.10096090E+00 -2.05117077E+00 -4.72483475E-01 -6.29851185E-01
 -3.93169547E+00 -4.80163372E-01 -1.81755937E+00  1.28134500E+00 -2.37553910E+00
 -2.78817889E+00 -1.64297873E+00 -3.68161748E+00 -5.70077838E+00  2.15162220E-01
  3.59563279E+00 -3.40297624E+00  2.25408382E+00  2.24261699E+00 -7.28636458E-01
 -1.00058587E+00  4.05951350E+00 -2.88710824E+00 -3.40404037E+00  3.21204223E+00
 -7.32690592E+00  1.29320005E+00 -3.59272540E+00 -8.54686137E+00  1.98381761E+00
 -5.54910306E-01 -5.83780194E+00  3.60231686E+00 -1.67790038E+00  3.74969178E+00
 -4.14548724E+00 -1.33963810E+00  7.98904638E+00 -2.05185378E+00 -1.38151665E+00
  4.30498119E+00  4.74539705E+00  1.16878422E+00  8.27201037E+00  2.51559921E+00
 -9.09250534E-02
Num ILSW                                   I              100
ILSW                                       I   N=         100
           0           1           0           0           2           0
           0           0           0           0           0          -1
           0           0           0           0           0           0
           0           0           0           0           1           0
           1           0           0           0           0           0
           0           0      100000           0          -1           0
           0           0           0           0           0           0
           0           0           0           1           1           0
           0           0           1           0           0           0
           0           0           4          40           0           0
           0           0           0           0           0           0
           0           0           0           0           0           0
           0           0           0           0           0           0
           0           0           0           0           0           0
           0           0           0           0           0           0
           0           0           0           0           0           0
           0           0           0           0
Num RLSW                                   I               40
RLSW                                       R   N=          40
  1.00000000E+00  1.00000000E+00  1.00000000E+00  1.00000000E+00  1.00000000E+00
  0.00000000E+00  0.00000000E+00  1.00000000E+00  0.00000000E+00  0.00000000E+00
  0.00000000E+00  0.00000000E+00  1.00000000E+00  0.00000000E+00  0.00000000E+00
  0.00000000E+00  0.00000000E+00  1.00000000E+00  0.00000000E+00  0.00000000E+00
  0.00000000E+00  0.00000000E+00  1.00000000E+00  0.00000000E+00  0.00000000E+00
  0.00000000E+00  0.00000000E+00  1.00000000E+00  0.00000000E+00  0.00000000E+00
  0.00000000E+00  0.00000000E+00  0.00000000E+00  0.00000000E+00  0.00000000E+00
  0.00000000E+00  0.00000000E+00  0.00000000E+00  1.00000000E+00  1.00000000E+00
MxBond                                     I                4
NBond                                      I   N=          27
           2           4           4           4           4           4
           4           3           3           3           3           3
           1           1           1           1           1           1
           1           1           1           1           1           1
           1           1           1
IBond                                      I   N=         108
           8          11           0           0           4           5
           7          13           4           6           8          14
           2           3          15          16           2           6
          17          18           3           5          19          20
           2          21          22          23           1           3
           9           0           8          10          24           0
           9          12          25           0           1          12
          26           0          10          11          27           0
           2           0           0           0           3           0
           0           0           4           0           0           0
           4           0           0           0           5           0
           0           0           5           0           0           0
           6           0           0           0           6           0
           0           0           7           0           0           0