23146778                                                                
Freq      RMP2-FC                                                     Gen                 
Number of atoms                            I               11
Info1-9                                    I   N=           9
         129         126        1002           0           0         100
           6           2           1
Charge                                     I                0
Multiplicity                               I                1
Number of electrons                        I               98
Number of alpha electrons                  I               49
Number of beta electrons                   I               49
Number of basis functions                  I              147
Number of independent functions            I              147
Number of point charges in /Mol/           I                0
Number of translation vectors              I                0
Atomic numbers                             I   N=          11
          53          53          53           6           6           6
           1           1           1           1           1
Nuclear charges                            R   N=          11
  2.50000000E+01  2.50000000E+01  2.50000000E+01  6.00000000E+00  6.00000000E+00
  6.00000000E+00  1.00000000E+00  1.00000000E+00  1.00000000E+00  1.00000000E+00
  1.00000000E+00
Current cartesian coordinates              R   N=          33
 -4.01261532E+00 -1.30551665E-05  5.54916285E-03  1.72666271E+00 -3.36796322E+00
 -7.61296143E-01  1.72664012E+00  3.36797568E+00 -7.61294243E-01  3.08533981E-01
 -1.92102070E-07  3.75522290E+00  1.71528731E-02 -5.78661467E-07  8.75721767E-01
  3.00869158E+00  4.10200891E-06  4.76202130E+00 -7.01789479E-01  1.66696682E+00
  4.45294612E+00 -7.01783204E-01 -1.66697108E+00  4.45294606E+00  4.04683196E+00
 -1.67464795E+00  4.15621515E+00  2.94720035E+00  1.12783358E-05  6.82707798E+00
  4.04683143E+00  1.67465242E+00  4.15620372E+00
Force Field                                I                0
Int Atom Types                             I   N=          11
           0           0           0           0           0           0
           0           0           0           0           0
MM charges                                 R   N=          11
  0.00000000E+00  0.00000000E+00  0.00000000E+00  0.00000000E+00  0.00000000E+00
  0.00000000E+00  0.00000000E+00  0.00000000E+00  0.00000000E+00  0.00000000E+00
  0.00000000E+00
Integer atomic weights                     I   N=          11
         127         127         127          12          12          12
           1           1           1           1           1
Real atomic weights                        R   N=          11
  1.26900400E+02  1.26900400E+02  1.26900400E+02  1.20000000E+01  1.20000000E+01
  1.20000000E+01  1.00782504E+00  1.00782504E+00  1.00782504E+00  1.00782504E+00
  1.00782504E+00
Atom fragment info                         I   N=          11
           0           0           0           0           0           0
           0           0           0           0           0
Atom residue num                           I   N=          11
           0           0           0           0           0           0
           0           0           0           0           0
Nuclear spins                              I   N=          11
           5           5           5           0           0           0
           1           1           1           1           1
Nuclear ZEff                               R   N=          11
 -5.83000000E+03 -5.83000000E+03 -5.83000000E+03 -3.60000000E+00 -3.60000000E+00
 -3.60000000E+00 -1.00000000E+00 -1.00000000E+00 -1.00000000E+00 -1.00000000E+00
 -1.00000000E+00
Nuclear QMom                               R   N=          11
 -7.10000000E+01 -7.10000000E+01 -7.10000000E+01  0.00000000E+00  0.00000000E+00
  0.00000000E+00  0.00000000E+00  0.00000000E+00  0.00000000E+00  0.00000000E+00
  0.00000000E+00
Nuclear GFac                               R   N=          11
  2.81328000E+00  2.81328000E+00  2.81328000E+00  0.00000000E+00  0.00000000E+00
  0.00000000E+00  2.79284600E+00  2.79284600E+00  2.79284600E+00  2.79284600E+00
  2.79284600E+00
MicOpt                                     I   N=          11
          -1          -1          -1          -1          -1          -1
          -1          -1          -1          -1          -1
Number of contracted shells                I               60
Number of primitive shells                 I              130
Pure/Cartesian d shells                    I                0
Pure/Cartesian f shells                    I                0
Highest angular momentum                   I                2
Largest degree of contraction              I                6
Shell types                                I   N=          60
           0           0           0           0           1           1
           1           1          -2          -2           0           0
           0           0           1           1           1           1
          -2          -2           0           0           0           0
           1           1           1           1          -2          -2
           0          -1          -1          -1          -2           0
          -1          -1          -1          -2           0          -1
          -1          -1          -2           0           0           0
           0           0           0           0           0           0
           0           0           0           0           0           0
Number of primitives per shell             I   N=          60
           6           2           1           1           4           1
           1           1           5           1           6           2
           1           1           4           1           1           1
           5           1           6           2           1           1
           4           1           1           1           5           1
           6           3           1           1           1           6
           3           1           1           1           6           3
           1           1           1           3           1           1
           3           1           1           3           1           1
           3           1           1           3           1           1
Shell to atom map                          I   N=          60
           1           1           1           1           1           1
           1           1           1           1           2           2
           2           2           2           2           2           2
           2           2           3           3           3           3
           3           3           3           3           3           3
           4           4           4           4           4           5
           5           5           5           5           6           6
           6           6           6           7           7           7
           8           8           8           9           9           9
          10          10          10          11          11          11
Primitive exponents                        R   N=         130
  4.45904892E+02  2.33368424E+01  1.95834461E+01  8.51120892E+00  2.19961619E+00
  1.06689705E+00  1.17205476E+01  1.76259864E+00  2.86974763E-01  1.12276096E-01
  2.04990273E+01  1.05587546E+01  1.50158955E+00  6.45971731E-01  3.02886568E+00
  3.45065918E-01  1.11345138E-01  5.12353549E+01  1.56162395E+01  4.52660021E+00
  2.05298088E+00  8.76402816E-01  3.09000000E-01  4.45904892E+02  2.33368424E+01
  1.95834461E+01  8.51120892E+00  2.19961619E+00  1.06689705E+00  1.17205476E+01
  1.76259864E+00  2.86974763E-01  1.12276096E-01  2.04990273E+01  1.05587546E+01
  1.50158955E+00  6.45971731E-01  3.02886568E+00  3.45065918E-01  1.11345138E-01
  5.12353549E+01  1.56162395E+01  4.52660021E+00  2.05298088E+00  8.76402816E-01
  3.09000000E-01  4.45904892E+02  2.33368424E+01  1.95834461E+01  8.51120892E+00
  2.19961619E+00  1.06689705E+00  1.17205476E+01  1.76259864E+00  2.86974763E-01
  1.12276096E-01  2.04990273E+01  1.05587546E+01  1.50158955E+00  6.45971731E-01
  3.02886568E+00  3.45065918E-01  1.11345138E-01  5.12353549E+01  1.56162395E+01
  4.52660021E+00  2.05298088E+00  8.76402816E-01  3.09000000E-01  4.56324000E+03
  6.82024000E+02  1.54973000E+02  4.44553000E+01  1.30290000E+01  1.82773000E+00
  2.09642000E+01  4.80331000E+00  1.45933000E+00  4.83456000E-01  1.45585000E-01
  6.26000000E-01  4.56324000E+03  6.82024000E+02  1.54973000E+02  4.44553000E+01
  1.30290000E+01  1.82773000E+00  2.09642000E+01  4.80331000E+00  1.45933000E+00
  4.83456000E-01  1.45585000E-01  6.26000000E-01  4.56324000E+03  6.82024000E+02
  1.54973000E+02  4.44553000E+01  1.30290000E+01  1.82773000E+00  2.09642000E+01
  4.80331000E+00  1.45933000E+00  4.83456000E-01  1.45585000E-01  6.26000000E-01
  3.38650000E+01  5.09479000E+00  1.15879000E+00  3.25840000E-01  1.02741000E-01
  3.38650000E+01  5.09479000E+00  1.15879000E+00  3.25840000E-01  1.02741000E-01
  3.38650000E+01  5.09479000E+00  1.15879000E+00  3.25840000E-01  1.02741000E-01
  3.38650000E+01  5.09479000E+00  1.15879000E+00  3.25840000E-01  1.02741000E-01
  3.38650000E+01  5.09479000E+00  1.15879000E+00  3.25840000E-01  1.02741000E-01
Contraction coefficients                   R   N=         130
  2.20257546E-03 -1.64769178E-01  4.00523643E-01 -8.30344053E-01  9.10349039E-01
  4.63450337E-01 -4.69729845E-02  1.02523810E+00  1.00000000E+00  1.00000000E+00
  8.45621086E-02 -4.20516792E-01  9.15704773E-01  1.83978523E-01  1.00000000E+00
  1.00000000E+00  1.00000000E+00  4.10151694E-03 -5.16112495E-03  2.96351970E-01
  5.19951965E-01  3.17507168E-01  1.00000000E+00  2.20257546E-03 -1.64769178E-01
  4.00523643E-01 -8.30344053E-01  9.10349039E-01  4.63450337E-01 -4.69729845E-02
  1.02523810E+00  1.00000000E+00  1.00000000E+00  8.45621086E-02 -4.20516792E-01
  9.15704773E-01  1.83978523E-01  1.00000000E+00  1.00000000E+00  1.00000000E+00
  4.10151694E-03 -5.16112495E-03  2.96351970E-01  5.19951965E-01  3.17507168E-01
  1.00000000E+00  2.20257546E-03 -1.64769178E-01  4.00523643E-01 -8.30344053E-01
  9.10349039E-01  4.63450337E-01 -4.69729845E-02  1.02523810E+00  1.00000000E+00
  1.00000000E+00  8.45621086E-02 -4.20516792E-01  9.15704773E-01  1.83978523E-01
  1.00000000E+00  1.00000000E+00  1.00000000E+00  4.10151694E-03 -5.16112495E-03
  2.96351970E-01  5.19951965E-01  3.17507168E-01  1.00000000E+00  1.96665025E-03
  1.52306019E-02  7.61269097E-02  2.60801033E-01  6.16462078E-01  2.21006028E-01
  1.14660081E-01  9.19999648E-01 -3.03068213E-03  1.00000000E+00  1.00000000E+00
  1.00000000E+00  1.96665025E-03  1.52306019E-02  7.61269097E-02  2.60801033E-01
  6.16462078E-01  2.21006028E-01  1.14660081E-01  9.19999648E-01 -3.03068213E-03
  1.00000000E+00  1.00000000E+00  1.00000000E+00  1.96665025E-03  1.52306019E-02
  7.61269097E-02  2.60801033E-01  6.16462078E-01  2.21006028E-01  1.14660081E-01
  9.19999648E-01 -3.03068213E-03  1.00000000E+00  1.00000000E+00  1.00000000E+00
  2.54938145E-02  1.90373109E-01  8.52161486E-01  1.00000000E+00  1.00000000E+00
  2.54938145E-02  1.90373109E-01  8.52161486E-01  1.00000000E+00  1.00000000E+00
  2.54938145E-02  1.90373109E-01  8.52161486E-01  1.00000000E+00  1.00000000E+00
  2.54938145E-02  1.90373109E-01  8.52161486E-01  1.00000000E+00  1.00000000E+00
  2.54938145E-02  1.90373109E-01  8.52161486E-01  1.00000000E+00  1.00000000E+00
P(S=P) Contraction coefficients            R   N=         130
  0.00000000E+00  0.00000000E+00  0.00000000E+00  0.00000000E+00  0.00000000E+00
  0.00000000E+00  0.00000000E+00  0.00000000E+00  0.00000000E+00  0.00000000E+00
  0.00000000E+00  0.00000000E+00  0.00000000E+00  0.00000000E+00  0.00000000E+00
  0.00000000E+00  0.00000000E+00  0.00000000E+00  0.00000000E+00  0.00000000E+00
  0.00000000E+00  0.00000000E+00  0.00000000E+00  0.00000000E+00  0.00000000E+00
  0.00000000E+00  0.00000000E+00  0.00000000E+00  0.00000000E+00  0.00000000E+00
  0.00000000E+00  0.00000000E+00  0.00000000E+00  0.00000000E+00  0.00000000E+00
  0.00000000E+00  0.00000000E+00  0.00000000E+00  0.00000000E+00  0.00000000E+00
  0.00000000E+00  0.00000000E+00  0.00000000E+00  0.00000000E+00  0.00000000E+00
  0.00000000E+00  0.00000000E+00  0.00000000E+00  0.00000000E+00  0.00000000E+00
  0.00000000E+00  0.00000000E+00  0.00000000E+00  0.00000000E+00  0.00000000E+00
  0.00000000E+00  0.00000000E+00  0.00000000E+00  0.00000000E+00  0.00000000E+00
  0.00000000E+00  0.00000000E+00  0.00000000E+00  0.00000000E+00  0.00000000E+00
  0.00000000E+00  0.00000000E+00  0.00000000E+00  0.00000000E+00  0.00000000E+00
  0.00000000E+00  0.00000000E+00  0.00000000E+00  0.00000000E+00  0.00000000E+00
  4.02486927E-02  2.37593957E-01  8.15853851E-01  1.00000000E+00  1.00000000E+00
  0.00000000E+00  0.00000000E+00  0.00000000E+00  0.00000000E+00  0.00000000E+00
  0.00000000E+00  0.00000000E+00  4.02486927E-02  2.37593957E-01  8.15853851E-01
  1.00000000E+00  1.00000000E+00  0.00000000E+00  0.00000000E+00  0.00000000E+00
  0.00000000E+00  0.00000000E+00  0.00000000E+00  0.00000000E+00  4.02486927E-02
  2.37593957E-01  8.15853851E-01  1.00000000E+00  1.00000000E+00  0.00000000E+00
  0.00000000E+00  0.00000000E+00  0.00000000E+00  0.00000000E+00  0.00000000E+00
  0.00000000E+00  0.00000000E+00  0.00000000E+00  0.00000000E+00  0.00000000E+00
  0.00000000E+00  0.00000000E+00  0.00000000E+00  0.00000000E+00  0.00000000E+00
  0.00000000E+00  0.00000000E+00  0.00000000E+00  0.00000000E+00  0.00000000E+00
  0.00000000E+00  0.00000000E+00  0.00000000E+00  0.00000000E+00  0.00000000E+00
Coordinates of each shell                  R   N=         180
 -4.01261532E+00 -1.30551665E-05  5.54916285E-03 -4.01261532E+00 -1.30551665E-05
  5.54916285E-03 -4.01261532E+00 -1.30551665E-05  5.54916285E-03 -4.01261532E+00
 -1.30551665E-05  5.54916285E-03 -4.01261532E+00 -1.30551665E-05  5.54916285E-03
 -4.01261532E+00 -1.30551665E-05  5.54916285E-03 -4.01261532E+00 -1.30551665E-05
  5.54916285E-03 -4.01261532E+00 -1.30551665E-05  5.54916285E-03 -4.01261532E+00
 -1.30551665E-05  5.54916285E-03 -4.01261532E+00 -1.30551665E-05  5.54916285E-03
  1.72666271E+00 -3.36796322E+00 -7.61296143E-01  1.72666271E+00 -3.36796322E+00
 -7.61296143E-01  1.72666271E+00 -3.36796322E+00 -7.61296143E-01  1.72666271E+00
 -3.36796322E+00 -7.61296143E-01  1.72666271E+00 -3.36796322E+00 -7.61296143E-01
  1.72666271E+00 -3.36796322E+00 -7.61296143E-01  1.72666271E+00 -3.36796322E+00
 -7.61296143E-01  1.72666271E+00 -3.36796322E+00 -7.61296143E-01  1.72666271E+00
 -3.36796322E+00 -7.61296143E-01  1.72666271E+00 -3.36796322E+00 -7.61296143E-01
  1.72664012E+00  3.36797568E+00 -7.61294243E-01  1.72664012E+00  3.36797568E+00
 -7.61294243E-01  1.72664012E+00  3.36797568E+00 -7.61294243E-01  1.72664012E+00
  3.36797568E+00 -7.61294243E-01  1.72664012E+00  3.36797568E+00 -7.61294243E-01
  1.72664012E+00  3.36797568E+00 -7.61294243E-01  1.72664012E+00  3.36797568E+00
 -7.61294243E-01  1.72664012E+00  3.36797568E+00 -7.61294243E-01  1.72664012E+00
  3.36797568E+00 -7.61294243E-01  1.72664012E+00  3.36797568E+00 -7.61294243E-01
  3.08533981E-01 -1.92102070E-07  3.75522290E+00  3.08533981E-01 -1.92102070E-07
  3.75522290E+00  3.08533981E-01 -1.92102070E-07  3.75522290E+00  3.08533981E-01
 -1.92102070E-07  3.75522290E+00  3.08533981E-01 -1.92102070E-07  3.75522290E+00
  1.71528731E-02 -5.78661467E-07  8.75721767E-01  1.71528731E-02 -5.78661467E-07
  8.75721767E-01  1.71528731E-02 -5.78661467E-07  8.75721767E-01  1.71528731E-02
 -5.78661467E-07  8.75721767E-01  1.71528731E-02 -5.78661467E-07  8.75721767E-01
  3.00869158E+00  4.10200891E-06  4.76202130E+00  3.00869158E+00  4.10200891E-06
  4.76202130E+00  3.00869158E+00  4.10200891E-06  4.76202130E+00  3.00869158E+00
  4.10200891E-06  4.76202130E+00  3.00869158E+00  4.10200891E-06  4.76202130E+00
 -7.01789479E-01  1.66696682E+00  4.45294612E+00 -7.01789479E-01  1.66696682E+00
  4.45294612E+00 -7.01789479E-01  1.66696682E+00  4.45294612E+00 -7.01783204E-01
 -1.66697108E+00  4.45294606E+00 -7.01783204E-01 -1.66697108E+00  4.45294606E+00
 -7.01783204E-01 -1.66697108E+00  4.45294606E+00  4.04683196E+00 -1.67464795E+00
  4.15621515E+00  4.04683196E+00 -1.67464795E+00  4.15621515E+00  4.04683196E+00
 -1.67464795E+00  4.15621515E+00  2.94720035E+00  1.12783358E-05  6.82707798E+00
  2.94720035E+00  1.12783358E-05  6.82707798E+00  2.94720035E+00  1.12783358E-05
  6.82707798E+00  4.04683143E+00  1.67465242E+00  4.15620372E+00  4.04683143E+00
  1.67465242E+00  4.15620372E+00  4.04683143E+00  1.67465242E+00  4.15620372E+00
Constraint Structure                       R   N=          33
 -4.01261532E+00 -1.30551665E-05  5.54916285E-03  1.72666271E+00 -3.36796322E+00
 -7.61296143E-01  1.72664012E+00  3.36797568E+00 -7.61294243E-01  3.08533981E-01
 -1.92102070E-07  3.75522290E+00  1.71528731E-02 -5.78661467E-07  8.75721767E-01
  3.00869158E+00  4.10200891E-06  4.76202130E+00 -7.01789479E-01  1.66696682E+00
  4.45294612E+00 -7.01783204E-01 -1.66697108E+00  4.45294606E+00  4.04683196E+00
 -1.67464795E+00  4.15621515E+00  2.94720035E+00  1.12783358E-05  6.82707798E+00
  4.04683143E+00  1.67465242E+00  4.15620372E+00
Num ILSW                                   I              100
ILSW                                       I   N=         100
           0           0           0           0           2           0
           0           0           0           0           0          -1
           0           0           0           0           0           0
           0           0           0           0           1           0
           1           0           0           0           0           0
           0           0      100000           0          -1           0
           0           0           0           0           0           0
           0           0           0           1           1           0
           0           0           1           0           0           0
           0           0           4          40           0           0
           0           0           0           0           0           0
           0           0           0           0           0           0
           0           0           0           0           0           0
           0           0           0           0           0           0
           0           0           0           0           0           0
           0           0           0           0           0           0
           0           0           0           0
Num RLSW                                   I               40
RLSW                                       R   N=          40
  1.00000000E+00  1.00000000E+00  1.00000000E+00  1.00000000E+00  1.00000000E+00
  0.00000000E+00  0.00000000E+00  1.00000000E+00  0.00000000E+00  0.00000000E+00
  0.00000000E+00  0.00000000E+00  1.00000000E+00  0.00000000E+00  0.00000000E+00
  0.00000000E+00  0.00000000E+00  1.00000000E+00  0.00000000E+00  0.00000000E+00
  0.00000000E+00  0.00000000E+00  1.00000000E+00  0.00000000E+00  0.00000000E+00
  0.00000000E+00  0.00000000E+00  1.00000000E+00  0.00000000E+00  0.00000000E+00
  0.00000000E+00  0.00000000E+00  0.00000000E+00  0.00000000E+00  0.00000000E+00
  0.00000000E+00  0.00000000E+00  0.00000000E+00  1.00000000E+00  1.00000000E+00
ECP-MxAtEC                                 I           250000
ECP-MaxLECP                                I               10
ECP-MaxAtL                                 I          2250000
ECP-MxTECP                                 I         11250000
ECP-LenNCZ                                 I               29
ECP-KFirst                                 I   N=         110
           1           1           1           0           0           0
           0           0           0           0           0           5
           5           5           0           0           0           0
           0           0           0           0          12          12
          12           0           0           0           0           0
           0           0           0          20          20          20
           0           0           0           0           0           0
           0           0           0           0           0           0
           0           0           0           0           0           0
           0           0           0           0           0           0
           0           0           0           0           0           0
           0           0           0           0           0           0
           0           0           0           0           0           0
           0           0           0           0           0           0
           0           0           0           0           0           0
           0           0           0           0           0           0
           0           0           0           0           0           0
           0           0           0           0           0           0
           0           0
ECP-KLast                                  I   N=         110
           4           4           4           0           0           0
           0           0           0           0           0          11
          11          11           0           0           0           0
           0           0           0           0          19          19
          19           0           0           0           0           0
           0           0           0          29          29          29
           0           0           0           0           0           0
           0           0           0           0           0           0
           0           0           0           0           0           0
           0           0           0           0           0           0
           0           0           0           0           0           0
           0           0           0           0           0           0
           0           0           0           0           0           0
           0           0           0           0           0           0
           0           0           0           0           0           0
           0           0           0           0           0           0
           0           0           0           0           0           0
           0           0           0           0           0           0
           0           0
ECP-LMax                                   I   N=          11
           3           3           3           0           0           0
           0           0           0           0           0
ECP-LPSkip                                 I   N=          11
           0           0           0           1           1           1
           1           1           1           1           1
ECP-RNFroz                                 R   N=          11
  2.80000000E+01  2.80000000E+01  2.80000000E+01  0.00000000E+00  0.00000000E+00
  0.00000000E+00  0.00000000E+00  0.00000000E+00  0.00000000E+00  0.00000000E+00
  0.00000000E+00
ECP-NLP                                    I   N=          29
           2           2           2           2           2           2
           2           2           2           2           2           2
           2           2           2           2           2           2
           2           2           2           2           2           2
           2           2           2           2           2
ECP-CLP1                                   R   N=          29
 -2.18420400E+01 -2.84681910E+01 -2.43713000E-01 -3.20804000E-01  4.99942930E+01
  2.81025317E+02  6.15733260E+01  2.18420400E+01  2.84681910E+01  2.43713000E-01
  3.20804000E-01  6.74428410E+01  1.34881137E+02  1.46750510E+01  2.93756660E+01
  2.18420400E+01  2.84681910E+01  2.43713000E-01  3.20804000E-01  3.54395290E+01
  5.31760570E+01  9.06719500E+00  1.32069370E+01  8.93350000E-02  5.23800000E-02
  2.18420400E+01  2.84681910E+01  2.43713000E-01  3.20804000E-01
ECP-CLP2                                   R   N=          29
  0.00000000E+00  0.00000000E+00  0.00000000E+00  0.00000000E+00  0.00000000E+00
  0.00000000E+00  0.00000000E+00  0.00000000E+00  0.00000000E+00  0.00000000E+00
  0.00000000E+00  0.00000000E+00  0.00000000E+00  0.00000000E+00  0.00000000E+00
  0.00000000E+00  0.00000000E+00  0.00000000E+00  0.00000000E+00  0.00000000E+00
  0.00000000E+00  0.00000000E+00  0.00000000E+00  0.00000000E+00  0.00000000E+00
  0.00000000E+00  0.00000000E+00  0.00000000E+00  0.00000000E+00
ECP-ZLP                                    R   N=          29
  1.94586090E+01  1.93492600E+01  4.82376700E+00  4.88431500E+00  4.00158350E+01
  1.74297470E+01  9.00548400E+00  1.94586090E+01  1.93492600E+01  4.82376700E+00
  4.88431500E+00  1.53554660E+01  1.49718330E+01  8.96016400E+00  8.25909600E+00
  1.94586090E+01  1.93492600E+01  4.82376700E+00  4.88431500E+00  1.50689080E+01
  1.45553220E+01  6.71864700E+00  6.45639300E+00  1.19177900E+00  1.29115700E+00
  1.94586090E+01  1.93492600E+01  4.82376700E+00  4.88431500E+00
MxBond                                     I                4
NBond                                      I   N=          11
           1           1           1           4           4           4
           1           1           1           1           1
IBond                                      I   N=          44
           5           0           0           0           5           0
           0           0           5           0           0           0
           5           6           7           8           1           2
           3           4           4           9          10          11
           4           0           0           0           4           0
           0           0           6           0           0           0
           6           0           0           0           6           0
           0           0
RBond                                      R   N=          44
  1.00000000E+00  0.00000000E+00  0.00000000E+00  0.00000000E+00  1.00000000E+00
  0.00000000E+00  0.00000000E+00  0.00000000E+00  1.00000000E+00  0.00000000E+00
  0.00000000E+00  0.00000000E+00  1.00000000E+00  1.00000000E+00  1.00000000E+00
  1.00000000E+00  1.00000000E+00  1.00000000E+00  1.00000000E+00  1.00000000E+00
  1.00000000E+00  1.00000000E+00  1.00000000E+00  1.00000000E+00  1.00000000E+00
  0.00000000E+00  0.00000000E+00  0.00000000E+00  1.00000000E+00  0.00000000E+00
  0.00000000E+00  0.00000000E+00  1.00000000E+00  0.00000000E+00  0.00000000E+00
  0.00000000E+00  1.00000000E+00  0.00000000E+00  0.00000000E+00  0.00000000E+00
  1.00000000E+00  0.00000000E+00  0.00000000E+00  0.00000000E+00
Virial Ratio                               R      3.200292784750779E+00
SCF Energy                                 R     -1.006450907227194E+03
MP2 Energy                                 R     -1.007301374122490E+03
Total Energy                               R     -1.007301374122490E+03
Post-SCF wavefunction norm                 R      1.639367152401589E+00
RMS Force                                  R      2.195091704707988E-06
RMS Density                                R      4.031654530874171E-10
External E-field                           R   N=          35
  0.00000000E+00  0.00000000E+00  0.00000000E+00  0.00000000E+00  0.00000000E+00
  0.00000000E+00  0.00000000E+00  0.00000000E+00  0.00000000E+00  0.00000000E+00
  0.00000000E+00  0.00000000E+00  0.00000000E+00  0.00000000E+00  0.00000000E+00
  0.00000000E+00  0.00000000E+00  0.00000000E+00  0.00000000E+00  0.00000000E+00
  0.00000000E+00  0.00000000E+00  0.00000000E+00  0.00000000E+00  0.00000000E+00
  0.00000000E+00  0.00000000E+00  0.00000000E+00  0.00000000E+00  0.00000000E+00
  0.00000000E+00  0.00000000E+00  0.00000000E+00  0.00000000E+00  0.00000000E+00
IOpCl                                      I                0
IROHF                                      I                0
Alpha Orbital Energies                     R   N=         147
 -1.13928392E+01 -1.12662807E+01 -1.12317519E+01 -7.74768734E+00 -7.74768524E+00
 -7.74746639E+00 -5.60508765E+00 -5.60508278E+00 -5.60490433E+00 -5.59137420E+00
 -5.59137025E+00 -5.59126298E+00 -5.59125921E+00 -5.59108817E+00 -5.59102841E+00
 -2.30067728E+00 -2.30050271E+00 -2.30033683E+00 -2.29483204E+00 -2.29478406E+00
 -2.29472719E+00 -2.29470379E+00 -2.29456711E+00 -2.29451308E+00 -2.28043725E+00
 -2.28043064E+00 -2.28042282E+00 -2.28042154E+00 -2.28013827E+00 -2.28012980E+00
 -1.11294200E+00 -9.93800101E-01 -9.00745178E-01 -8.97809965E-01 -8.75629286E-01
 -7.36178539E-01 -6.47574948E-01 -6.07306075E-01 -5.66936658E-01 -5.39545125E-01
 -5.15996246E-01 -4.72350550E-01 -4.65970019E-01 -3.93527272E-01 -3.92425792E-01
 -3.87472228E-01 -3.61312630E-01 -3.60354161E-01 -3.49534306E-01  2.71477363E-02
  9.77841887E-02  1.02754423E-01  1.63377740E-01  1.98383659E-01  2.07042894E-01
  2.31141990E-01  2.51560231E-01  2.97616061E-01  3.38193796E-01  3.98982689E-01
  4.19651605E-01  4.24207995E-01  4.39482930E-01  4.41228596E-01  4.54005316E-01
  4.71893179E-01  4.72108417E-01  4.88814353E-01  4.91804454E-01  5.33774017E-01
  5.43725101E-01  5.44165482E-01  5.50919495E-01  5.61414563E-01  5.67710368E-01
  5.68553117E-01  6.00517168E-01  6.10198401E-01  6.27854019E-01  6.38842455E-01
  6.60387570E-01  6.75776705E-01  7.04110863E-01  7.16053261E-01  7.21087255E-01
  7.52179865E-01  7.54696110E-01  7.84315209E-01  8.10457501E-01  8.15015444E-01
  8.21565204E-01  8.41782412E-01  8.63528530E-01  8.67794404E-01  9.09097944E-01
  9.48951569E-01  9.55498077E-01  1.03249695E+00  1.07389953E+00  1.08672786E+00
  1.14596411E+00  1.20620527E+00  1.33390558E+00  1.42675491E+00  1.44562524E+00
  1.62815675E+00  1.67991961E+00  1.73392987E+00  1.76277235E+00  1.83212732E+00
  1.88022769E+00  1.89759080E+00  1.94043301E+00  1.98659983E+00  2.12190779E+00