6561                                                                    
Freq      RMP2-FC                                                     6-31G(d)            
Number of atoms                            I               13
Info1-9                                    I   N=           9
          25          23        1002           0           0         100
           6           2           1
Charge                                     I                0
Multiplicity                               I                1
Number of electrons                        I               40
Number of alpha electrons                  I               20
Number of beta electrons                   I               20
Number of basis functions                  I               91
Number of independent functions            I               91
Number of point charges in /Mol/           I                0
Number of translation vectors              I                0
Atomic numbers                             I   N=          13
           8           6           6           6           6           1
           1           1           1           1           1           1
           1
Nuclear charges                            R   N=          13
  8.00000000E+00  6.00000000E+00  6.00000000E+00  6.00000000E+00  6.00000000E+00
  1.00000000E+00  1.00000000E+00  1.00000000E+00  1.00000000E+00  1.00000000E+00
  1.00000000E+00  1.00000000E+00  1.00000000E+00
Current cartesian coordinates              R   N=          39
 -3.56045161E+00 -1.42540356E-01 -5.36874674E-01  8.20057184E-01  2.17084042E-02
  8.07923418E-01  2.84071861E+00 -1.58686946E+00 -5.06848915E-01  8.35935044E-01
  2.75921316E+00 -7.31343173E-02 -1.73171454E+00 -1.19334463E+00  4.13520641E-01
  1.18145754E+00 -6.07704368E-02  2.85557313E+00  2.78037440E+00 -3.55551368E+00
  1.25794664E-01  4.72521184E+00 -8.44055165E-01 -1.00836914E-01  2.56495616E+00
 -1.55618171E+00 -2.55638866E+00  2.67324966E+00  3.62856123E+00  3.00025375E-01
 -6.24016440E-01  3.85740166E+00  8.87593456E-01  4.60342657E-01  2.86200194E+00
 -2.10180457E+00 -1.86794072E+00 -3.19536576E+00  1.03627594E+00
Force Field                                I                0
Int Atom Types                             I   N=          13
           0           0           0           0           0           0
           0           0           0           0           0           0
           0
MM charges                                 R   N=          13
  0.00000000E+00  0.00000000E+00  0.00000000E+00  0.00000000E+00  0.00000000E+00
  0.00000000E+00  0.00000000E+00  0.00000000E+00  0.00000000E+00  0.00000000E+00
  0.00000000E+00  0.00000000E+00  0.00000000E+00
Integer atomic weights                     I   N=          13
          16          12          12          12          12           1
           1           1           1           1           1           1
           1
Real atomic weights                        R   N=          13
  1.59949146E+01  1.20000000E+01  1.20000000E+01  1.20000000E+01  1.20000000E+01
  1.00782504E+00  1.00782504E+00  1.00782504E+00  1.00782504E+00  1.00782504E+00
  1.00782504E+00  1.00782504E+00  1.00782504E+00
Atom fragment info                         I   N=          13
           0           0           0           0           0           0
           0           0           0           0           0           0
           0
Atom residue num                           I   N=          13
           0           0           0           0           0           0
           0           0           0           0           0           0
           0
Nuclear spins                              I   N=          13
           0           0           0           0           0           1
           1           1           1           1           1           1
           1
Nuclear ZEff                               R   N=          13
 -5.60000000E+00 -3.60000000E+00 -3.60000000E+00 -3.60000000E+00 -3.60000000E+00
 -1.00000000E+00 -1.00000000E+00 -1.00000000E+00 -1.00000000E+00 -1.00000000E+00
 -1.00000000E+00 -1.00000000E+00 -1.00000000E+00
Nuclear QMom                               R   N=          13
  0.00000000E+00  0.00000000E+00  0.00000000E+00  0.00000000E+00  0.00000000E+00
  0.00000000E+00  0.00000000E+00  0.00000000E+00  0.00000000E+00  0.00000000E+00
  0.00000000E+00  0.00000000E+00  0.00000000E+00
Nuclear GFac                               R   N=          13
  0.00000000E+00  0.00000000E+00  0.00000000E+00  0.00000000E+00  0.00000000E+00
  2.79284600E+00  2.79284600E+00  2.79284600E+00  2.79284600E+00  2.79284600E+00
  2.79284600E+00  2.79284600E+00  2.79284600E+00
MicOpt                                     I   N=          13
          -1          -1          -1          -1          -1          -1
          -1          -1          -1          -1          -1          -1
          -1
Number of contracted shells                I               36
Number of primitive shells                 I               87
Pure/Cartesian d shells                    I                1
Pure/Cartesian f shells                    I                0
Highest angular momentum                   I                2
Largest degree of contraction              I                6
Shell types                                I   N=          36
           0          -1          -1           2           0          -1
          -1           2           0          -1          -1           2
           0          -1          -1           2           0          -1
          -1           2           0           0           0           0
           0           0           0           0           0           0
           0           0           0           0           0           0
Number of primitives per shell             I   N=          36
           6           3           1           1           6           3
           1           1           6           3           1           1
           6           3           1           1           6           3
           1           1           3           1           3           1
           3           1           3           1           3           1
           3           1           3           1           3           1
Shell to atom map                          I   N=          36
           1           1           1           1           2           2
           2           2           3           3           3           3
           4           4           4           4           5           5
           5           5           6           6           7           7
           8           8           9           9          10          10
          11          11          12          12          13          13
Primitive exponents                        R   N=          87
  5.48467166E+03  8.25234946E+02  1.88046958E+02  5.29645000E+01  1.68975704E+01
  5.79963534E+00  1.55396162E+01  3.59993359E+00  1.01376175E+00  2.70005823E-01
  8.00000000E-01  3.04752488E+03  4.57369518E+02  1.03948685E+02  2.92101553E+01
  9.28666296E+00  3.16392696E+00  7.86827235E+00  1.88128854E+00  5.44249258E-01
  1.68714478E-01  8.00000000E-01  3.04752488E+03  4.57369518E+02  1.03948685E+02
  2.92101553E+01  9.28666296E+00  3.16392696E+00  7.86827235E+00  1.88128854E+00
  5.44249258E-01  1.68714478E-01  8.00000000E-01  3.04752488E+03  4.57369518E+02
  1.03948685E+02  2.92101553E+01  9.28666296E+00  3.16392696E+00  7.86827235E+00
  1.88128854E+00  5.44249258E-01  1.68714478E-01  8.00000000E-01  3.04752488E+03
  4.57369518E+02  1.03948685E+02  2.92101553E+01  9.28666296E+00  3.16392696E+00
  7.86827235E+00  1.88128854E+00  5.44249258E-01  1.68714478E-01  8.00000000E-01
  1.87311370E+01  2.82539436E+00  6.40121692E-01  1.61277759E-01  1.87311370E+01
  2.82539436E+00  6.40121692E-01  1.61277759E-01  1.87311370E+01  2.82539436E+00
  6.40121692E-01  1.61277759E-01  1.87311370E+01  2.82539436E+00  6.40121692E-01
  1.61277759E-01  1.87311370E+01  2.82539436E+00  6.40121692E-01  1.61277759E-01
  1.87311370E+01  2.82539436E+00  6.40121692E-01  1.61277759E-01  1.87311370E+01
  2.82539436E+00  6.40121692E-01  1.61277759E-01  1.87311370E+01  2.82539436E+00
  6.40121692E-01  1.61277759E-01
Contraction coefficients                   R   N=          87
  1.83107443E-03  1.39501722E-02  6.84450781E-02  2.32714336E-01  4.70192898E-01
  3.58520853E-01 -1.10777550E-01 -1.48026263E-01  1.13076702E+00  1.00000000E+00
  1.00000000E+00  1.83473713E-03  1.40373228E-02  6.88426223E-02  2.32184443E-01
  4.67941348E-01  3.62311985E-01 -1.19332420E-01 -1.60854152E-01  1.14345644E+00
  1.00000000E+00  1.00000000E+00  1.83473713E-03  1.40373228E-02  6.88426223E-02
  2.32184443E-01  4.67941348E-01  3.62311985E-01 -1.19332420E-01 -1.60854152E-01
  1.14345644E+00  1.00000000E+00  1.00000000E+00  1.83473713E-03  1.40373228E-02
  6.88426223E-02  2.32184443E-01  4.67941348E-01  3.62311985E-01 -1.19332420E-01
 -1.60854152E-01  1.14345644E+00  1.00000000E+00  1.00000000E+00  1.83473713E-03
  1.40373228E-02  6.88426223E-02  2.32184443E-01  4.67941348E-01  3.62311985E-01
 -1.19332420E-01 -1.60854152E-01  1.14345644E+00  1.00000000E+00  1.00000000E+00
  3.34946043E-02  2.34726953E-01  8.13757326E-01  1.00000000E+00  3.34946043E-02
  2.34726953E-01  8.13757326E-01  1.00000000E+00  3.34946043E-02  2.34726953E-01
  8.13757326E-01  1.00000000E+00  3.34946043E-02  2.34726953E-01  8.13757326E-01
  1.00000000E+00  3.34946043E-02  2.34726953E-01  8.13757326E-01  1.00000000E+00
  3.34946043E-02  2.34726953E-01  8.13757326E-01  1.00000000E+00  3.34946043E-02
  2.34726953E-01  8.13757326E-01  1.00000000E+00  3.34946043E-02  2.34726953E-01
  8.13757326E-01  1.00000000E+00
P(S=P) Contraction coefficients            R   N=          87
  0.00000000E+00  0.00000000E+00  0.00000000E+00  0.00000000E+00  0.00000000E+00
  0.00000000E+00  7.08742682E-02  3.39752839E-01  7.27158577E-01  1.00000000E+00
  0.00000000E+00  0.00000000E+00  0.00000000E+00  0.00000000E+00  0.00000000E+00
  0.00000000E+00  0.00000000E+00  6.89990666E-02  3.16423961E-01  7.44308291E-01
  1.00000000E+00  0.00000000E+00  0.00000000E+00  0.00000000E+00  0.00000000E+00
  0.00000000E+00  0.00000000E+00  0.00000000E+00  6.89990666E-02  3.16423961E-01
  7.44308291E-01  1.00000000E+00  0.00000000E+00  0.00000000E+00  0.00000000E+00
  0.00000000E+00  0.00000000E+00  0.00000000E+00  0.00000000E+00  6.89990666E-02
  3.16423961E-01  7.44308291E-01  1.00000000E+00  0.00000000E+00  0.00000000E+00
  0.00000000E+00  0.00000000E+00  0.00000000E+00  0.00000000E+00  0.00000000E+00
  6.89990666E-02  3.16423961E-01  7.44308291E-01  1.00000000E+00  0.00000000E+00
  0.00000000E+00  0.00000000E+00  0.00000000E+00  0.00000000E+00  0.00000000E+00
  0.00000000E+00  0.00000000E+00  0.00000000E+00  0.00000000E+00  0.00000000E+00
  0.00000000E+00  0.00000000E+00  0.00000000E+00  0.00000000E+00  0.00000000E+00
  0.00000000E+00  0.00000000E+00  0.00000000E+00  0.00000000E+00  0.00000000E+00
  0.00000000E+00  0.00000000E+00  0.00000000E+00  0.00000000E+00  0.00000000E+00
  0.00000000E+00  0.00000000E+00  0.00000000E+00  0.00000000E+00  0.00000000E+00
  0.00000000E+00  0.00000000E+00
Coordinates of each shell                  R   N=         108
 -3.56045161E+00 -1.42540356E-01 -5.36874674E-01 -3.56045161E+00 -1.42540356E-01
 -5.36874674E-01 -3.56045161E+00 -1.42540356E-01 -5.36874674E-01 -3.56045161E+00
 -1.42540356E-01 -5.36874674E-01  8.20057184E-01  2.17084042E-02  8.07923418E-01
  8.20057184E-01  2.17084042E-02  8.07923418E-01  8.20057184E-01  2.17084042E-02
  8.07923418E-01  8.20057184E-01  2.17084042E-02  8.07923418E-01  2.84071861E+00
 -1.58686946E+00 -5.06848915E-01  2.84071861E+00 -1.58686946E+00 -5.06848915E-01
  2.84071861E+00 -1.58686946E+00 -5.06848915E-01  2.84071861E+00 -1.58686946E+00
 -5.06848915E-01  8.35935044E-01  2.75921316E+00 -7.31343173E-02  8.35935044E-01
  2.75921316E+00 -7.31343173E-02  8.35935044E-01  2.75921316E+00 -7.31343173E-02
  8.35935044E-01  2.75921316E+00 -7.31343173E-02 -1.73171454E+00 -1.19334463E+00
  4.13520641E-01 -1.73171454E+00 -1.19334463E+00  4.13520641E-01 -1.73171454E+00
 -1.19334463E+00  4.13520641E-01 -1.73171454E+00 -1.19334463E+00  4.13520641E-01
  1.18145754E+00 -6.07704368E-02  2.85557313E+00  1.18145754E+00 -6.07704368E-02
  2.85557313E+00  2.78037440E+00 -3.55551368E+00  1.25794664E-01  2.78037440E+00
 -3.55551368E+00  1.25794664E-01  4.72521184E+00 -8.44055165E-01 -1.00836914E-01
  4.72521184E+00 -8.44055165E-01 -1.00836914E-01  2.56495616E+00 -1.55618171E+00
 -2.55638866E+00  2.56495616E+00 -1.55618171E+00 -2.55638866E+00  2.67324966E+00
  3.62856123E+00  3.00025375E-01  2.67324966E+00  3.62856123E+00  3.00025375E-01
 -6.24016440E-01  3.85740166E+00  8.87593456E-01 -6.24016440E-01  3.85740166E+00
  8.87593456E-01  4.60342657E-01  2.86200194E+00 -2.10180457E+00  4.60342657E-01
  2.86200194E+00 -2.10180457E+00 -1.86794072E+00 -3.19536576E+00  1.03627594E+00
 -1.86794072E+00 -3.19536576E+00  1.03627594E+00
Constraint Structure                       R   N=          39
 -3.56045161E+00 -1.42540356E-01 -5.36874674E-01  8.20057184E-01  2.17084042E-02
  8.07923418E-01  2.84071861E+00 -1.58686946E+00 -5.06848915E-01  8.35935044E-01
  2.75921316E+00 -7.31343173E-02 -1.73171454E+00 -1.19334463E+00  4.13520641E-01
  1.18145754E+00 -6.07704368E-02  2.85557313E+00  2.78037440E+00 -3.55551368E+00
  1.25794664E-01  4.72521184E+00 -8.44055165E-01 -1.00836914E-01  2.56495616E+00
 -1.55618171E+00 -2.55638866E+00  2.67324966E+00  3.62856123E+00  3.00025375E-01
 -6.24016440E-01  3.85740166E+00  8.87593456E-01  4.60342657E-01  2.86200194E+00
 -2.10180457E+00 -1.86794072E+00 -3.19536576E+00  1.03627594E+00
Num ILSW                                   I              100
ILSW                                       I   N=         100
           0           1           0           0           2           0
           0           0           0           0           0          -1
           0           0           0           0           0           0
           0           0           0           0           1           0
           1           0           0           0           0           0
           0           0      100000           0          -1           0
           0           0           0           0           0           0
           0           0           0           1           1           0
           0           0           1           0           0           0
           0           0           4          40           0           0
           0           0           0           0           0           0
           0           0           0           0           0           0
           0           0           0           0           0           0
           0           0           0           0           0           0
           0           0           0           0           0           0
           0           0           0           0           0           0
           0           0           0           0
Num RLSW                                   I               40
RLSW                                       R   N=          40
  1.00000000E+00  1.00000000E+00  1.00000000E+00  1.00000000E+00  1.00000000E+00
  0.00000000E+00  0.00000000E+00  1.00000000E+00  0.00000000E+00  0.00000000E+00
  0.00000000E+00  0.00000000E+00  1.00000000E+00  0.00000000E+00  0.00000000E+00
  0.00000000E+00  0.00000000E+00  1.00000000E+00  0.00000000E+00  0.00000000E+00
  0.00000000E+00  0.00000000E+00  1.00000000E+00  0.00000000E+00  0.00000000E+00
  0.00000000E+00  0.00000000E+00  1.00000000E+00  0.00000000E+00  0.00000000E+00
  0.00000000E+00  0.00000000E+00  0.00000000E+00  0.00000000E+00  0.00000000E+00
  0.00000000E+00  0.00000000E+00  0.00000000E+00  1.00000000E+00  1.00000000E+00
MxBond                                     I                4
NBond                                      I   N=          13
           1           4           4           4           3           1
           1           1           1           1           1           1
           1
IBond                                      I   N=          52
           5           0           0           0           3           4
           5           6           2           7           8           9
           2          10          11          12           1           2
          13           0           2           0           0           0
           3           0           0           0           3           0
           0           0           3           0           0           0
           4           0           0           0           4           0
           0           0           4           0           0           0
           5           0           0           0
RBond                                      R   N=          52
  2.00000000E+00  0.00000000E+00  0.00000000E+00  0.00000000E+00  1.00000000E+00
  1.00000000E+00  1.00000000E+00  1.00000000E+00  1.00000000E+00  1.00000000E+00
  1.00000000E+00  1.00000000E+00  1.00000000E+00  1.00000000E+00  1.00000000E+00
  1.00000000E+00  2.00000000E+00  1.00000000E+00  1.00000000E+00  0.00000000E+00
  1.00000000E+00  0.00000000E+00  0.00000000E+00  0.00000000E+00  1.00000000E+00
  0.00000000E+00  0.00000000E+00  0.00000000E+00  1.00000000E+00  0.00000000E+00
  0.00000000E+00  0.00000000E+00  1.00000000E+00  0.00000000E+00  0.00000000E+00
  0.00000000E+00  1.00000000E+00  0.00000000E+00  0.00000000E+00  0.00000000E+00
  1.00000000E+00  0.00000000E+00  0.00000000E+00  0.00000000E+00  1.00000000E+00
  0.00000000E+00  0.00000000E+00  0.00000000E+00  1.00000000E+00  0.00000000E+00
  0.00000000E+00  0.00000000E+00
Virial Ratio                               R      2.002208729455033E+00
SCF Energy                                 R     -2.309840489977910E+02
MP2 Energy                                 R     -2.316815924437434E+02
Total Energy                               R     -2.316815924437434E+02
Post-SCF wavefunction norm                 R      1.566817770540749E+00
RMS Force                                  R      2.824650137116558E-07
RMS Density                                R      1.293313363301759E-09
External E-field                           R   N=          35
  0.00000000E+00  0.00000000E+00  0.00000000E+00  0.00000000E+00  0.00000000E+00
  0.00000000E+00  0.00000000E+00  0.00000000E+00  0.00000000E+00  0.00000000E+00
  0.00000000E+00  0.00000000E+00  0.00000000E+00  0.00000000E+00  0.00000000E+00
  0.00000000E+00  0.00000000E+00  0.00000000E+00  0.00000000E+00  0.00000000E+00
  0.00000000E+00  0.00000000E+00  0.00000000E+00  0.00000000E+00  0.00000000E+00
  0.00000000E+00  0.00000000E+00  0.00000000E+00  0.00000000E+00  0.00000000E+00
  0.00000000E+00  0.00000000E+00  0.00000000E+00  0.00000000E+00  0.00000000E+00
IOpCl                                      I                0
IROHF                                      I                0
Alpha Orbital Energies                     R   N=          91
 -2.05654163E+01 -1.13334257E+01 -1.12487408E+01 -1.12359457E+01 -1.12195213E+01
 -1.38033116E+00 -1.09356010E+00 -9.44707510E-01 -8.87439327E-01 -7.58674296E-01
 -6.78525518E-01 -6.35171373E-01 -6.23699171E-01 -5.65831652E-01 -5.50501938E-01
 -5.30657152E-01 -5.16259299E-01 -4.93737612E-01 -4.78267097E-01 -4.13888659E-01
  1.48773920E-01  2.29114151E-01  2.68081375E-01  2.78474782E-01  2.94437549E-01
  3.01374412E-01  3.10555898E-01  3.40701390E-01  3.52475577E-01  3.82716046E-01
  3.99446404E-01  4.68443583E-01  4.83973653E-01  6.95864481E-01  7.21850718E-01
  7.30847503E-01  7.74060078E-01  7.79770151E-01  8.54088049E-01  9.21091327E-01
  9.42298243E-01  9.52374983E-01  9.78216710E-01  9.83517928E-01  1.04737641E+00
  1.09885151E+00  1.11753513E+00  1.13581852E+00  1.14986187E+00  1.17199014E+00
  1.17337268E+00  1.19782401E+00  1.21514131E+00  1.24653301E+00  1.28703164E+00
  1.30376397E+00  1.37159988E+00  1.40316063E+00  1.59486542E+00  1.63857296E+00
  1.76083982E+00  1.80505574E+00  1.85165885E+00  1.92178383E+00  2.01808568E+00
  2.03949176E+00  2.08482719E+00  2.10816348E+00  2.18427721E+00  2.25038882E+00
  2.28895735E+00  2.31267375E+00  2.39400977E+00  2.41677173E+00  2.46583779E+00
  2.56722713E+00  2.58480249E+00  2.65210165E+00  2.72043244E+00  2.75008405E+00
  2.82563342E+00  2.94526666E+00  2.96658401E+00  3.06696216E+00  3.24366031E+00
  3.33385232E+00  4.28579239E+00  4.55305508E+00  4.63381334E+00  4.72355178E+00
  4.98337659E+00
Alpha MO coefficients                      R   N=        8281
  9.94705179E-01  2.09188025E-02  1.20152112E-03 -6.81711657E-04  6.18767777E-04
  4.50164133E-03 -2.82654140E-05  1.10476221E-05 -3.27233728E-06 -3.72672962E-03
 -3.83927834E-03 -4.07710579E-03 -8.10129209E-05  1.99674257E-04 -1.59500898E-04
 -6.11176770E-06 -2.37785496E-05  2.27646112E-05 -1.28148939E-05  1.38106775E-05
  6.59977571E-05  5.43941900E-05  1.25087298E-04 -8.87902215E-05 -4.15384569E-05
  2.86542789E-05 -2.85124164E-05  3.32467658E-05 -1.90123282E-05 -5.41824572E-06
  5.22022958E-06  2.44621669E-05 -1.06100962E-05 -2.43987245E-06 -2.31141043E-06
 -1.16907784E-04  1.03307861E-04 -1.18275828E-07  3.16110636E-05 -2.01807797E-06
  8.74881360E-06  1.28865760E-05 -1.58910710E-06  3.20816836E-06  6.06396526E-06
  3.68656345E-06  2.51334691E-05 -1.86336195E-05 -8.34818064E-07 -7.95343805E-06
 -1.05211770E-04  6.61908027E-05  1.09041122E-04  1.21036671E-05  2.58315285E-06
 -9.95639420E-06  3.67383275E-07  6.25448807E-06 -3.44846087E-06  4.53024380E-06
 -6.04630845E-06  4.58573163E-04  2.65924119E-05 -3.05084915E-05  2.50204275E-05
 -2.23999357E-04  4.89434848E-04 -2.37909771E-04  2.25323448E-04 -4.98580093E-04
 -2.06549726E-04 -1.61333474E-04  2.81137727E-04 -2.66607724E-04  1.58102796E-04
  1.19446116E-05 -1.75767238E-05  1.43103765E-05 -5.22196287E-06 -3.44371852E-06
 -4.20635940E-05  9.33758067E-06  4.69827156E-05 -5.12673331E-06 -5.15836457E-05
  2.51871328E-05 -3.40096193E-05  2.81349041E-05 -1.71876121E-05 -3.27266532E-05
 -1.19191698E-04 -3.11584854E-04  4.69439727E-04  1.75313953E-04 -9.81005878E-05
  1.14475031E-04 -2.14659889E-03 -1.13943221E-03  7.21144624E-04 -7.24755167E-04
 -2.54925462E-05  2.66631741E-05  2.21843066E-04  9.79869699E-05 -1.87359441E-04
  1.55867380E-04  3.79077613E-03  5.76509484E-04  4.84133311E-05  6.68442858E-05
 -2.48086475E-05  5.33087321E-04 -1.08364064E-03 -1.05466543E-03  7.71019661E-04
 -3.94980506E-04 -2.16051306E-04 -1.29165463E-05 -1.34530483E-04 -6.00053202E-05
 -2.66088630E-05 -9.48519086E-05 -3.53901347E-04  1.35650926E-04  5.33386897E-05
  3.73273434E-05  1.25313496E-03 -1.20968573E-03 -2.62492045E-05 -2.28227354E-04
  4.16076451E-05 -6.59764393E-05 -9.49705971E-05 -4.31609988E-05 -2.25172082E-05
 -5.08759958E-07 -5.70540734E-05 -2.16459801E-04  4.84401334E-05 -1.91109948E-06
  2.04891544E-05  1.07983112E-03 -1.64139786E-04 -6.62504533E-04 -4.21714840E-05
 -1.52619254E-05  7.21583128E-05 -4.20099982E-05  2.12225143E-05  2.04982704E-05
 -1.32251663E-05  9.95795440E-01  2.66083426E-02 -4.75478304E-04  3.02292893E-04
 -3.28827420E-04 -7.79282601E-03 -2.38390867E-03  1.29282513E-03 -1.03667171E-03
 -1.14973338E-03 -1.68733646E-03 -2.12349527E-03 -3.37951834E-04  5.64721389E-04
 -4.02193136E-04 -1.37342860E-04  1.44578120E-04 -1.15992737E-04 -1.51613649E-04
  3.82985665E-05  5.33391326E-04 -1.81471906E-04 -2.24710275E-04 -7.25930775E-06
  1.59566252E-04 -7.11343207E-05  2.99859623E-05 -9.80668676E-05 -6.16722350E-05
 -3.27687100E-05  2.32861996E-03  1.10068202E-05 -1.12690431E-05 -3.15708716E-05
  1.94891801E-05 -8.35940507E-06 -5.30427661E-04 -3.27327874E-04 -3.44779512E-04
  1.16789281E-05  2.40677438E-06  9.67351219E-05 -4.78797463E-05 -2.65873629E-05
  3.69652791E-05 -9.05416460E-05  9.95649538E-01  2.89832463E-02 -1.16222189E-04
 -1.76945414E-04 -1.00676490E-04 -2.07913481E-02  8.75551417E-04  1.28112735E-04
  1.32598429E-03 -1.43372234E-03 -1.39175468E-03 -1.36359812E-03  3.44361711E-05
  1.22342371E-07 -7.77092743E-06  2.26355410E-02  6.89212470E-04 -1.35814145E-04
  9.16440219E-05  4.48350829E-05  4.40303488E-03 -1.45101222E-03  1.12939926E-03
  7.44760295E-04 -3.06026214E-04 -2.61217410E-04 -2.31180860E-04  1.34065631E-04
  1.78308963E-04 -1.42968398E-04  1.03523705E-02  2.99139785E-04 -5.16306479E-06
 -1.60083255E-04  1.95949717E-05  4.78291548E-03 -6.56088345E-05 -2.07980194E-03
  5.26872613E-04 -1.60245484E-04 -4.09052151E-04 -1.48078936E-04  6.18219682E-06
 -8.73343991E-07  1.66184683E-04 -4.02395641E-03 -3.03193584E-05  1.28651842E-04
 -3.03036305E-06  1.73055952E-05  5.24980928E-03  2.22637481E-03  1.82116062E-03
 -5.19224938E-05 -4.37802987E-04 -1.40166872E-04 -1.32613189E-04 -1.59307050E-04
 -8.03003470E-05 -9.46879367E-05  3.13637401E-04  2.65930140E-03 -1.43388569E-04
 -8.66059785E-05 -1.51248714E-04 -8.66590171E-05 -1.78968088E-04 -3.60026278E-05
 -1.52508895E-04 -9.82490638E-05 -1.60467597E-04 -9.66024693E-05 -1.95213703E-04
 -1.02931719E-05 -9.24184639E-05  3.69421540E-04  2.61572729E-05  1.16387447E-04
  4.76404694E-05 -5.83276605E-06 -2.15822665E-05 -5.76271203E-04 -2.79827232E-04
  8.18458948E-05  5.99599916E-05  5.22966798E-05  9.37642820E-05  9.15801487E-05
  1.91812452E-05  7.66599090E-07  5.24929285E-06 -2.28859678E-02 -3.58302285E-04
  6.56991034E-05 -3.13969703E-05 -3.05272016E-05  2.50653174E-03  1.39832289E-03
 -1.00387290E-03 -2.98821461E-04 -2.72324414E-04 -2.04799479E-04 -1.13298122E-04
  1.36203139E-04  1.42862309E-04 -1.05307133E-04  9.95500308E-01  2.84064316E-02
 -1.72120959E-04  8.35475775E-05  4.73872901E-05 -1.48486568E-02  5.72119097E-04
 -4.41622389E-04 -1.97431108E-04 -1.78928536E-03 -1.78394794E-03 -1.80226738E-03
  1.95325967E-05  2.88347907E-05 -2.22081949E-05 -9.31101334E-04 -3.20048511E-04
 -7.54565871E-05  8.59379272E-05  5.56469249E-05  1.06616840E-03  3.59608050E-04
 -4.80467759E-04 -3.50469431E-04 -8.85040665E-05 -1.16955767E-05 -8.36273068E-05
 -2.79025709E-05 -3.14582454E-05  3.99829273E-06  7.83264629E-05 -2.88474858E-04
 -1.00705643E-04  3.64506367E-05 -1.18038845E-05  1.32161109E-03  3.99412850E-04
  7.42930121E-05 -2.25644669E-04  3.97730512E-05 -5.33478466E-05 -1.14908528E-04
 -1.13231456E-05 -4.48876027E-05  1.72291196E-05 -1.31916954E-04 -8.04407805E-05
  1.21909126E-04  2.46313749E-03  1.37911445E-04  2.44840184E-03  1.74324319E-04
  2.59915780E-03 -6.75783999E-05 -2.80284057E-04 -1.10430463E-05  3.61925142E-04
 -8.81340188E-05 -3.62123243E-04 -6.49023006E-05 -1.96909846E-04 -5.41180278E-05
 -2.31386248E-04 -7.60966494E-05 -3.49878958E-05 -1.34489429E-05  9.94456405E-04
  3.56781029E-04 -3.95881218E-05  1.43896824E-04 -1.11632139E-04 -1.64501760E-04
 -2.18033050E-04  7.41802467E-06  4.64936415E-05 -3.35993069E-05 -1.06580373E-02
 -1.17936739E-04 -1.50986432E-05  5.11413083E-05 -1.83833953E-05  3.23538112E-03
 -1.56738259E-04  1.73716466E-03 -2.21196740E-04 -1.21582723E-04 -4.50600805E-04
 -1.07833844E-04 -4.94823264E-06  2.95645293E-05  1.28901286E-04  5.84901770E-04
 -2.70285374E-04  2.00973272E-05 -1.33612172E-04  2.51057486E-05  9.87222551E-04
 -4.90241036E-05  6.50113178E-04 -1.88564860E-04 -8.19256762E-05 -3.42926729E-05
 -9.19396076E-05 -3.58616419E-05 -1.88076342E-05 -8.58306120E-06  9.95697822E-01
  2.84913412E-02  3.28120105E-05 -2.26412668E-04  2.60259588E-05 -1.51047218E-02
  4.76529611E-05  8.83108994E-04 -7.10819823E-05 -1.77458724E-03 -1.82506328E-03
 -1.80535998E-03 -1.93342936E-06  3.15297896E-06  2.81915478E-05  4.45261203E-05
 -2.03519393E-04  1.01676303E-05 -1.19904270E-04  4.85756886E-05 -4.17185907E-04
  3.17311464E-04  1.25819142E-04 -2.88513847E-05 -1.41233458E-06  2.31474065E-05
 -6.79189521E-05  4.61561927E-05  4.23465342E-06 -3.66210982E-05 -1.56913551E-04
 -3.09560145E-05  8.04920207E-06  3.31825765E-04 -7.31953057E-05 -3.10713028E-04
 -8.74327599E-05 -3.03205588E-04  1.24983444E-04  2.47454718E-03  1.60429498E-04
  2.42053348E-03  1.90429144E-04  2.63611528E-03  2.10091845E-05  2.63056112E-04
 -1.95546905E-01  4.34083854E-01  1.06213845E-01 -5.93416033E-02  5.44938187E-02
  3.95151957E-01  4.27587077E-02 -2.17821659E-02  2.14377580E-02  1.10904547E-02
  1.71426565E-03  1.68496624E-03 -8.59197613E-03  7.73286125E-03 -4.13896554E-03
 -1.85547678E-02  3.26776856E-02 -2.44169189E-02 -5.87614078E-03 -6.05197977E-03
  2.33025805E-02 -5.62134888E-03  1.03181933E-02 -7.35087188E-03  6.47088828E-03
 -6.99952175E-05 -4.49051558E-04  2.51555727E-03  1.92511136E-03  5.34882374E-04
 -3.73970582E-03  7.60971671E-03 -4.39999076E-03  1.80876016E-03  1.33124856E-03
  3.12749925E-03  2.53742176E-03 -8.05227269E-05  3.26694756E-03  1.96418891E-04
  2.09396259E-05  2.55874855E-04 -4.27871766E-04 -4.06795609E-04  3.39172313E-04
 -6.00625750E-03  1.21013821E-02 -3.66167052E-03 -6.56648109E-03  8.74097140E-04
 -5.91447001E-03 -1.67812387E-03  2.66441776E-03 -7.73959423E-04  7.87528422E-04
  1.28054673E-03  2.48497331E-04  5.82878906E-04  1.64320949E-06 -2.76773497E-04
 -1.11764958E-01  2.12367535E-01 -1.31099547E-01  7.99729674E-02 -6.98596122E-02
  7.23014823E-02  1.49131462E-02 -1.80207808E-02  1.04459960E-02  1.34968892E-02
 -4.96009935E-03 -8.15907181E-03 -1.94330605E-02  1.77384315E-02 -1.07461971E-02
  6.10611734E-03  8.72029662E-04  1.92534904E-03 -1.47566478E-03  8.02635199E-04
 -1.42477545E-03  1.91003035E-03  2.41838743E-03  1.65897577E-03  1.30981159E-03
  3.57943490E-03  2.05152397E-03  3.53135723E-03  2.22188553E-03  2.80727257E-02
 -1.00814129E-02  4.08395294E-02 -9.22600582E-02  1.14007573E-02  1.32072419E-02
 -2.08177512E-03 -9.67414896E-02  5.46003376E-03  4.65458401E-03 -6.74823442E-04
  7.68447156E-04 -1.76104088E-03 -9.88065060E-05  7.02522664E-04 -3.54180529E-04
  1.22443355E-03 -1.49968564E-01  2.77206768E-01  6.22133753E-03 -6.51157347E-03
 -2.45962231E-02  2.44228906E-01 -1.95062912E-03 -4.47823729E-03 -4.43899433E-03
  4.06136492E-03  7.41745627E-03  4.29893147E-03 -1.34552929E-03 -1.82364537E-03
  2.33194106E-04 -1.01145164E-01  1.86671013E-01 -4.46585562E-02  3.44248299E-02