
    -----------------------------------------------------------------------
          Psi4: An Open-Source Ab Initio Electronic Structure Package
                               Psi4 1.4a2.dev612 

                         Git: Rev {master} 58d3bc0 


    D. G. A. Smith, L. A. Burns, A. C. Simmonett, R. M. Parrish,
    M. C. Schieber, R. Galvelis, P. Kraus, H. Kruse, R. Di Remigio,
    A. Alenaizan, A. M. James, S. Lehtola, J. P. Misiewicz, M. Scheurer,
    R. A. Shaw, J. B. Schriber, Y. Xie, Z. L. Glick, D. A. Sirianni,
    J. S. O'Brien, J. M. Waldrop, A. Kumar, E. G. Hohenstein,
    B. P. Pritchard, B. R. Brooks, H. F. Schaefer III, A. Yu. Sokolov,
    K. Patkowski, A. E. DePrince III, U. Bozkaya, R. A. King,
    F. A. Evangelista, J. M. Turney, T. D. Crawford, C. D. Sherrill,
    J. Chem. Phys. 152(18) 184108 (2020). https://doi.org/10.1063/5.0006002

                            Additional Code Authors
    E. T. Seidl, C. L. Janssen, E. F. Valeev, M. L. Leininger,
    J. F. Gonthier, R. M. Richard, H. R. McAlexander, M. Saitow, X. Wang,
    P. Verma, and M. H. Lechner

             Previous Authors, Complete List of Code Contributors,
                       and Citations for Specific Modules
    https://github.com/psi4/psi4/blob/master/codemeta.json
    https://github.com/psi4/psi4/graphs/contributors
    http://psicode.org/psi4manual/master/introduction.html#citing-psifour

    -----------------------------------------------------------------------


    Psi4 started on: Sunday, 08 November 2020 09:48PM

    Process ID: 68918
    Host:       node142.bme.utexas.edu
    PSIDATADIR: /home/xy3866/.conda/envs/test-rdkit/share/psi4
    Memory:     500.0 MiB
    Threads:    8
    
  ==> Input File <==

--------------------------------------------------------------------------
#psi4
#
memory 32 gb

molecule  {
0 1
  O       -2.8968130    -0.3474360    -0.2563530
  O       -0.5825960    -1.5131530     0.0834280
  N        0.6646380     0.3451110    -0.3514860
  C        1.9521820    -0.3066060    -0.1296730
  C       -1.7875910     0.5207530    -0.3412920
  C        2.3087340    -0.3110910     1.3526080
  C        3.0072020     0.3769410    -0.9846900
  C       -0.5092170    -0.3043550    -0.1811720
  C       -1.8991130     1.5929580     0.7362800
  H        1.8182130    -1.3395260    -0.4626630
  H        0.6518313     1.3437906    -0.5119920
  H       -1.7688680     0.9937940    -1.3356380
  H        2.4085440     0.7136460     1.7243230
  H        1.5276200    -0.8195050     1.9221530
  H        3.2560570    -0.8319740     1.5215790
  H        3.1304270     1.4235350    -0.6835410
  H        2.7315590     0.3479870    -2.0412990
  H        3.9738610    -0.1182480    -0.8633910
  H       -1.8420940     1.1254490     1.7220580
  H       -2.8670940     2.0889060     0.6442650
  H       -1.1140830     2.3514110     0.6543310
  H       -2.4990480    -1.2315890    -0.0938460
units angstrom
no_reorient  #important for SAPT in psi4, default
symmetry c1  #important for SAPT in psi4, default
}

set PROPERTIES_ORIGIN ["COM"]
properties('MP2/aug-cc-pvtz', properties = ['dipole'])
--------------------------------------------------------------------------

  Memory set to  29.802 GiB by Python driver.
    SCF Algorithm Type (re)set to DF.

*** tstart() called on node142.bme.utexas.edu
*** at Sun Nov  8 21:48:25 2020

   => Loading Basis Set <=

    Name: AUG-CC-PVTZ
    Role: ORBITAL
    Keyword: BASIS
    atoms 1-2   entry O          line   331 file /home/xy3866/.conda/envs/test-rdkit/share/psi4/basis/aug-cc-pvtz.gbs 
    atoms 3     entry N          line   285 file /home/xy3866/.conda/envs/test-rdkit/share/psi4/basis/aug-cc-pvtz.gbs 
    atoms 4-9   entry C          line   239 file /home/xy3866/.conda/envs/test-rdkit/share/psi4/basis/aug-cc-pvtz.gbs 
    atoms 10-22 entry H          line    40 file /home/xy3866/.conda/envs/test-rdkit/share/psi4/basis/aug-cc-pvtz.gbs 


         ---------------------------------------------------------
                                   SCF
               by Justin Turney, Rob Parrish, Andy Simmonett
                          and Daniel G. A. Smith
                              RHF Reference
                        8 Threads,  30517 MiB Core
         ---------------------------------------------------------

  ==> Geometry <==

    Molecular point group: c1
    Full point group: C1

    Geometry (in Angstrom), charge = 0, multiplicity = 1:

       Center              X                  Y                   Z               Mass       
    ------------   -----------------  -----------------  -----------------  -----------------
         O           -2.896820811245    -0.347366222465    -0.255975046630    15.994914619570
         O           -0.582603811245    -1.513083222465     0.083805953370    15.994914619570
         N            0.664630188755     0.345180777535    -0.351108046630    14.003074004430
         C            1.952174188755    -0.306536222465    -0.129295046630    12.000000000000
         C           -1.787598811245     0.520822777535    -0.340914046630    12.000000000000
         C            2.308726188755    -0.311021222465     1.352985953370    12.000000000000
         C            3.007194188755     0.377010777535    -0.984312046630    12.000000000000
         C           -0.509224811245    -0.304285222465    -0.180794046630    12.000000000000
         C           -1.899120811245     1.593027777535     0.736657953370    12.000000000000
         H            1.818205188755    -1.339456222465    -0.462285046630     1.007825032230
         H            0.651823488755     1.343860377535    -0.511614046630     1.007825032230
         H           -1.768875811245     0.993863777535    -1.335260046630     1.007825032230
         H            2.408536188755     0.713715777535     1.724700953370     1.007825032230
         H            1.527612188755    -0.819435222465     1.922530953370     1.007825032230
         H            3.256049188755    -0.831904222465     1.521956953370     1.007825032230
         H            3.130419188755     1.423604777535    -0.683163046630     1.007825032230
         H            2.731551188755     0.348056777535    -2.040921046630     1.007825032230
         H            3.973853188755    -0.118178222465    -0.863013046630     1.007825032230
         H           -1.842101811245     1.125518777535     1.722435953370     1.007825032230
         H           -2.867101811245     2.088975777535     0.644642953370     1.007825032230
         H           -1.114090811245     2.351480777535     0.654708953370     1.007825032230
         H           -2.499055811245    -1.231519222465    -0.093468046630     1.007825032230

  Running in c1 symmetry.

  Rotational constants: A =      0.10228  B =      0.02839  C =      0.02685 [cm^-1]
  Rotational constants: A =   3066.30559  B =    850.98568  C =    805.05886 [MHz]
  Nuclear repulsion =  485.296422702339839

  Charge       = 0
  Multiplicity = 1
  Electrons    = 72
  Nalpha       = 36
  Nbeta        = 36

  ==> Algorithm <==

  SCF Algorithm Type is DF.
  DIIS enabled.
  MOM disabled.
  Fractional occupation disabled.
  Guess Type is SAD.
  Energy threshold   = 1.00e-10
  Density threshold  = 1.00e-10
  Integral threshold = 0.00e+00

  ==> Primary Basis <==

  Basis Set: AUG-CC-PVTZ
    Blend: AUG-CC-PVTZ
    Number of shells: 243
    Number of basis function: 713
    Number of Cartesian functions: 820
    Spherical Harmonics?: true
    Max angular momentum: 3

   => Loading Basis Set <=

    Name: (AUG-CC-PVTZ AUX)
    Role: JKFIT
    Keyword: DF_BASIS_SCF
    atoms 1-2   entry O          line   286 file /home/xy3866/.conda/envs/test-rdkit/share/psi4/basis/aug-cc-pvtz-jkfit.gbs 
    atoms 3     entry N          line   224 file /home/xy3866/.conda/envs/test-rdkit/share/psi4/basis/aug-cc-pvtz-jkfit.gbs 
    atoms 4-9   entry C          line   162 file /home/xy3866/.conda/envs/test-rdkit/share/psi4/basis/aug-cc-pvtz-jkfit.gbs 
    atoms 10-22 entry H          line    70 file /home/xy3866/.conda/envs/test-rdkit/share/psi4/basis/aug-cc-pvtz-jkfit.gbs 

  ==> Integral Setup <==

  DFHelper Memory: AOs need 5.578 GiB; user supplied 22.352 GiB. Using in-core AOs.

  ==> MemDFJK: Density-Fitted J/K Matrices <==

    J tasked:                   Yes
    K tasked:                   Yes
    wK tasked:                   No
    OpenMP threads:               8
    Memory [MiB]:             22888
    Algorithm:                 Core
    Schwarz Cutoff:           1E-12
    Mask sparsity (%):       6.5720
    Fitting Condition:        1E-10

   => Auxiliary Basis Set <=

  Basis Set: (AUG-CC-PVTZ AUX)
    Blend: AUG-CC-PVTZ-JKFIT
    Number of shells: 452
    Number of basis function: 1534
    Number of Cartesian functions: 1894
    Spherical Harmonics?: true
    Max angular momentum: 4

  Minimum eigenvalue in the overlap matrix is 2.6751741698E-06.
  Reciprocal condition number of the overlap matrix is 1.2640454046E-07.
    Using symmetric orthogonalization.

  ==> Pre-Iterations <==

  SCF Guess: Superposition of Atomic Densities via on-the-fly atomic UHF (no occupation information).

   -------------------------
    Irrep   Nso     Nmo    
   -------------------------
     A        713     713 
   -------------------------
    Total     713     713
   -------------------------

  ==> Iterations <==

                           Total Energy        Delta E     RMS |[F,P]|

   @DF-RHF iter SAD:  -438.33210821083514   -4.38332e+02   0.00000e+00 
   @DF-RHF iter   1:  -438.78195070494587   -4.49842e-01   1.14812e-03 DIIS
   @DF-RHF iter   2:  -439.06033490624503   -2.78384e-01   6.14862e-04 DIIS
   @DF-RHF iter   3:  -439.13222697361573   -7.18921e-02   1.27581e-04 DIIS
   @DF-RHF iter   4:  -439.13709024486377   -4.86327e-03   5.35230e-05 DIIS
   @DF-RHF iter   5:  -439.13791218395249   -8.21939e-04   1.09365e-05 DIIS
   @DF-RHF iter   6:  -439.13796319797973   -5.10140e-05   5.06098e-06 DIIS
   @DF-RHF iter   7:  -439.13797326925140   -1.00713e-05   1.52238e-06 DIIS
   @DF-RHF iter   8:  -439.13797516827799   -1.89903e-06   6.94554e-07 DIIS
   @DF-RHF iter   9:  -439.13797552713692   -3.58859e-07   2.31928e-07 DIIS
   @DF-RHF iter  10:  -439.13797557044205   -4.33051e-08   7.21459e-08 DIIS
   @DF-RHF iter  11:  -439.13797557362165   -3.17959e-09   2.36950e-08 DIIS
   @DF-RHF iter  12:  -439.13797557388591   -2.64265e-10   8.30797e-09 DIIS
   @DF-RHF iter  13:  -439.13797557391342   -2.75122e-11   2.15922e-09 DIIS
   @DF-RHF iter  14:  -439.13797557391797   -4.54747e-12   7.12432e-10 DIIS
   @DF-RHF iter  15:  -439.13797557391706    9.09495e-13   2.20239e-10 DIIS
   @DF-RHF iter  16:  -439.13797557391774   -6.82121e-13   9.13058e-11 DIIS
  Energy and wave function converged.


  ==> Post-Iterations <==

    Orbital Energies [Eh]
    ---------------------

    Doubly Occupied:                                                      

       1A    -20.547736     2A    -20.532313     3A    -15.595588  
       4A    -11.358245     5A    -11.297300     6A    -11.277301  
       7A    -11.232680     8A    -11.230347     9A    -11.222050  
      10A     -1.397112    11A     -1.345691    12A     -1.248093  
      13A     -1.072245    14A     -1.023726    15A     -0.949995  
      16A     -0.894839    17A     -0.822264    18A     -0.795594  
      19A     -0.736335    20A     -0.679124    21A     -0.649223  
      22A     -0.633769    23A     -0.628718    24A     -0.595881  
      25A     -0.581486    26A     -0.567262    27A     -0.555308  
      28A     -0.548033    29A     -0.539383    30A     -0.530134  
      31A     -0.512341    32A     -0.502752    33A     -0.491443  
      34A     -0.444816    35A     -0.434225    36A     -0.401258  

    Virtual:                                                              

      37A      0.021316    38A      0.031238    39A      0.033319  
      40A      0.039662    41A      0.047170    42A      0.049188  
      43A      0.053719    44A      0.056761    45A      0.059094  
      46A      0.067377    47A      0.074508    48A      0.074787  
      49A      0.084298    50A      0.103387    51A      0.109386  
      52A      0.112599    53A      0.115368    54A      0.117915  
      55A      0.121224    56A      0.127449    57A      0.129143  
      58A      0.133748    59A      0.137473    60A      0.141820  
      61A      0.147845    62A      0.149490    63A      0.153212  
      64A      0.153768    65A      0.155609    66A      0.163286  
      67A      0.170173    68A      0.173562    69A      0.178551  
      70A      0.185038    71A      0.190808    72A      0.200261  
      73A      0.203773    74A      0.222237    75A      0.223919  
      76A      0.227616    77A      0.234328    78A      0.238253  
      79A      0.243674    80A      0.249301    81A      0.255993  
      82A      0.264323    83A      0.270933    84A      0.274661  
      85A      0.276125    86A      0.280979    87A      0.286636  
      88A      0.291336    89A      0.298932    90A      0.302987  
      91A      0.310446    92A      0.316273    93A      0.319362  
      94A      0.325856    95A      0.330493    96A      0.334769  
      97A      0.341333    98A      0.343317    99A      0.345222  
     100A      0.351575   101A      0.354398   102A      0.361230  
     103A      0.363384   104A      0.369847   105A      0.371654  
     106A      0.375403   107A      0.378551   108A      0.381763  
     109A      0.386420   110A      0.389210   111A      0.393850  
     112A      0.402507   113A      0.405045   114A      0.407526  
     115A      0.414409   116A      0.418937   117A      0.427699  
     118A      0.430287   119A      0.435593   120A      0.440784  
     121A      0.441894   122A      0.447558   123A      0.454168  
     124A      0.456331   125A      0.462427   126A      0.463618  
     127A      0.469042   128A      0.471612   129A      0.477910  
     130A      0.481567   131A      0.483350   132A      0.488101  
     133A      0.488457   134A      0.495228   135A      0.501357  
     136A      0.504298   137A      0.508629   138A      0.510766  
     139A      0.523292   140A      0.525821   141A      0.528932  
     142A      0.534419   143A      0.539177   144A      0.541798  
     145A      0.546227   146A      0.559241   147A      0.565680  
     148A      0.569249   149A      0.572433   150A      0.575629  
     151A      0.577263   152A      0.584983   153A      0.593818  
     154A      0.598480   155A      0.602713   156A      0.607110  
     157A      0.612353   158A      0.621399   159A      0.625359  
     160A      0.631706   161A      0.635932   162A      0.640601  
     163A      0.641766   164A      0.652480   165A      0.662609  
     166A      0.666306   167A      0.678304   168A      0.691567  
     169A      0.694746   170A      0.698697   171A      0.713963  
     172A      0.721266   173A      0.723719   174A      0.726675  
     175A      0.736440   176A      0.746762   177A      0.756164  
     178A      0.767714   179A      0.777132   180A      0.779056  
     181A      0.787701   182A      0.793316   183A      0.797365  
     184A      0.804752   185A      0.806464   186A      0.817916  
     187A      0.820022   188A      0.828774   189A      0.835263  
     190A      0.839656   191A      0.851182   192A      0.857502  
     193A      0.865110   194A      0.870691   195A      0.879565  
     196A      0.880922   197A      0.885019   198A      0.892767  
     199A      0.899467   200A      0.902990   201A      0.907128  
     202A      0.915354   203A      0.926120   204A      0.930005  
     205A      0.932353   206A      0.941182   207A      0.943224  
     208A      0.944777   209A      0.951433   210A      0.957303  
     211A      0.962799   212A      0.970948   213A      0.972059  
     214A      0.974373   215A      0.982464   216A      0.991395  
     217A      0.996415   218A      1.006487   219A      1.009681  
     220A      1.014494   221A      1.021785   222A      1.026225  
     223A      1.031248   224A      1.034961   225A      1.044249  
     226A      1.050214   227A      1.055820   228A      1.067766  
     229A      1.075543   230A      1.081261   231A      1.083389  
     232A      1.088843   233A      1.100833   234A      1.104999  
     235A      1.108648   236A      1.115169   237A      1.120604  
     238A      1.126360   239A      1.129915   240A      1.140563  
     241A      1.145160   242A      1.154677   243A      1.159142  
     244A      1.168925   245A      1.170913   246A      1.179366  
     247A      1.187938   248A      1.192454   249A      1.195284  
     250A      1.203188   251A      1.205775   252A      1.216246  
     253A      1.226529   254A      1.230017   255A      1.238087  
     256A      1.243714   257A      1.244408   258A      1.256023  
     259A      1.264173   260A      1.269652   261A      1.272493  
     262A      1.277742   263A      1.280476   264A      1.294430  
     265A      1.300742   266A      1.308391   267A      1.315395  
     268A      1.320220   269A      1.325815   270A      1.327298  
     271A      1.333398   272A      1.349324   273A      1.354583  
     274A      1.362150   275A      1.368268   276A      1.374059  
     277A      1.388238   278A      1.393008   279A      1.405336  
     280A      1.410246   281A      1.413904   282A      1.424499  
     283A      1.425559   284A      1.432805   285A      1.438039  
     286A      1.453504   287A      1.459999   288A      1.463650  
     289A      1.471246   290A      1.484329   291A      1.490658  
     292A      1.499167   293A      1.507108   294A      1.509776  
     295A      1.521448   296A      1.525747   297A      1.535625  
     298A      1.537795   299A      1.548784   300A      1.561123  
     301A      1.566733   302A      1.576269   303A      1.585224  
     304A      1.593799   305A      1.599315   306A      1.609617  
     307A      1.614448   308A      1.617210   309A      1.633827  
     310A      1.646368   311A      1.651404   312A      1.657488  
     313A      1.664931   314A      1.670338   315A      1.679819  
     316A      1.682535   317A      1.684689   318A      1.695688  
     319A      1.701361   320A      1.709758   321A      1.717478  
     322A      1.727437   323A      1.736177   324A      1.738762  
     325A      1.742540   326A      1.754026   327A      1.757546  
     328A      1.762669   329A      1.768181   330A      1.776486  
     331A      1.781535   332A      1.782888   333A      1.796712  
     334A      1.803606   335A      1.805266   336A      1.820028  
     337A      1.822773   338A      1.829804   339A      1.844056  
     340A      1.860831   341A      1.866507   342A      1.876759  
     343A      1.880607   344A      1.887033   345A      1.897085  
     346A      1.913274   347A      1.917524   348A      1.924957  
     349A      1.935429   350A      1.942267   351A      1.944737  
     352A      1.958488   353A      1.964879   354A      1.970522  
     355A      1.984981   356A      1.993125   357A      1.995065  
     358A      1.999253   359A      2.012665   360A      2.015927  
     361A      2.025817   362A      2.031433   363A      2.044389  
     364A      2.060166   365A      2.071374   366A      2.075433  
     367A      2.078353   368A      2.097547   369A      2.108033  
     370A      2.131225   371A      2.139225   372A      2.146962  
     373A      2.154660   374A      2.166365   375A      2.177891  
     376A      2.183702   377A      2.195689   378A      2.201730  
     379A      2.214536   380A      2.232590   381A      2.241519  
     382A      2.251448   383A      2.254480   384A      2.267105  
     385A      2.277630   386A      2.285670   387A      2.296090  
     388A      2.296958   389A      2.304256   390A      2.313920  
     391A      2.328573   392A      2.340180   393A      2.350816  
     394A      2.363971   395A      2.367175   396A      2.377578  
     397A      2.387392   398A      2.405661   399A      2.419960  
     400A      2.430698   401A      2.449809   402A      2.454076  
     403A      2.475756   404A      2.495285   405A      2.505012  
     406A      2.522250   407A      2.526783   408A      2.543079  
     409A      2.556517   410A      2.571526   411A      2.584926  
     412A      2.596635   413A      2.604639   414A      2.621738  
     415A      2.644756   416A      2.654960   417A      2.681006  
     418A      2.685915   419A      2.714761   420A      2.724185  
     421A      2.733606   422A      2.769163   423A      2.787331  
     424A      2.808715   425A      2.818454   426A      2.819120  
     427A      2.847571   428A      2.866662   429A      2.886885  
     430A      2.889517   431A      2.900672   432A      2.946359  
     433A      2.965658   434A      2.976107   435A      3.008550  
     436A      3.025766   437A      3.042601   438A      3.055797  
     439A      3.075936   440A      3.093917   441A      3.112607  
     442A      3.126963   443A      3.142255   444A      3.158336  
     445A      3.201820   446A      3.220611   447A      3.251788  
     448A      3.278624   449A      3.298573   450A      3.333922  
     451A      3.348218   452A      3.377117   453A      3.399379  
     454A      3.412694   455A      3.433066   456A      3.450225  
     457A      3.472007   458A      3.484059   459A      3.498354  
     460A      3.508203   461A      3.528479   462A      3.539669  
     463A      3.549188   464A      3.560062   465A      3.571438  
     466A      3.588920   467A      3.618363   468A      3.628711  
     469A      3.645656   470A      3.657522   471A      3.666778  
     472A      3.669332   473A      3.683118   474A      3.698484  
     475A      3.707344   476A      3.714358   477A      3.718976  
     478A      3.726623   479A      3.733991   480A      3.749625  
     481A      3.755020   482A      3.770923   483A      3.780077  
     484A      3.794202   485A      3.801859   486A      3.812890  
     487A      3.845689   488A      3.853722   489A      3.855451  
     490A      3.883036   491A      3.885608   492A      3.890843  
     493A      3.898790   494A      3.907391   495A      3.925242  
     496A      3.938525   497A      3.949670   498A      3.953942  
     499A      3.963666   500A      3.976210   501A      3.983874  
     502A      3.992856   503A      4.007468   504A      4.022813  
     505A      4.027588   506A      4.036316   507A      4.041969  
     508A      4.053930   509A      4.065522   510A      4.074399  
     511A      4.087288   512A      4.098838   513A      4.105947  
     514A      4.114165   515A      4.137036   516A      4.150089  
     517A      4.156869   518A      4.166209   519A      4.176768  
     520A      4.190895   521A      4.198193   522A      4.205184  
     523A      4.217414   524A      4.223657   525A      4.233311  
     526A      4.244830   527A      4.251482   528A      4.269213  
     529A      4.285037   530A      4.292850   531A      4.303013  
     532A      4.318779   533A      4.326548   534A      4.329687  
     535A      4.338571   536A      4.360759   537A      4.366229  
     538A      4.378877   539A      4.389598   540A      4.407422  
     541A      4.431394   542A      4.443283   543A      4.462552  
     544A      4.473308   545A      4.484952   546A      4.509658  
     547A      4.513519   548A      4.529345   549A      4.543981  
     550A      4.556568   551A      4.570625   552A      4.580919  
     553A      4.592329   554A      4.605898   555A      4.619923  
     556A      4.631381   557A      4.646564   558A      4.661398  
     559A      4.667176   560A      4.704037   561A      4.707845  
     562A      4.727246   563A      4.735313   564A      4.737686  
     565A      4.751738   566A      4.761517   567A      4.789603  
     568A      4.807315   569A      4.818730   570A      4.827848  
     571A      4.845357   572A      4.852148   573A      4.865574  
     574A      4.878788   575A      4.880448   576A      4.891563  
     577A      4.904883   578A      4.919809   579A      4.934356  
     580A      4.943515   581A      4.960658   582A      4.976028  
     583A      4.994059   584A      4.998562   585A      5.013051  
     586A      5.036678   587A      5.053303   588A      5.068389  
     589A      5.072178   590A      5.092304   591A      5.114891  
     592A      5.128762   593A      5.132465   594A      5.137347  
     595A      5.156260   596A      5.185866   597A      5.191324  
     598A      5.199352   599A      5.219464   600A      5.241397  
     601A      5.248321   602A      5.262821   603A      5.270274  
     604A      5.292857   605A      5.309427   606A      5.323761  
     607A      5.337307   608A      5.348065   609A      5.357994  
     610A      5.368527   611A      5.378971   612A      5.398603  
     613A      5.429398   614A      5.434900   615A      5.438997  
     616A      5.454778   617A      5.458936   618A      5.478519  
     619A      5.493411   620A      5.507698   621A      5.513744  
     622A      5.525999   623A      5.533956   624A      5.556639  
     625A      5.577972   626A      5.589511   627A      5.617248  
     628A      5.630928   629A      5.656893   630A      5.669065  
     631A      5.675309   632A      5.697120   633A      5.738102  
     634A      5.744129   635A      5.771107   636A      5.774836  
     637A      5.785916   638A      5.819435   639A      5.842915  
     640A      5.852543   641A      5.872700   642A      5.899693  
     643A      5.927512   644A      5.934322   645A      5.950825  
     646A      6.008868   647A      6.012012   648A      6.048075  
     649A      6.068473   650A      6.137668   651A      6.159632  
     652A      6.168604   653A      6.190498   654A      6.196763  
     655A      6.217082   656A      6.230459   657A      6.243640  
     658A      6.268790   659A      6.288525   660A      6.310551  
     661A      6.328860   662A      6.332244   663A      6.404604  
     664A      6.424789   665A      6.561901   666A      6.574280  
     667A      6.630088   668A      6.679348   669A      6.761624  
     670A      6.778683   671A      6.816043   672A      6.834062  
     673A      6.848303   674A      6.873119   675A      6.883512  
     676A      6.896781   677A      6.933196   678A      6.947860  
     679A      7.020813   680A      7.024949   681A      7.043040  
     682A      7.057348   683A      7.103172   684A      7.144345  
     685A      7.150580   686A      7.252890   687A      7.271320  
     688A      7.342624   689A      7.408467   690A      7.469591  
     691A      7.505025   692A      7.567299   693A      7.591699  
     694A      7.661103   695A      7.714123   696A      7.774304  
     697A      7.787422   698A      7.852429   699A      7.921191  
     700A      8.014200   701A      8.061905   702A      8.169448  
     703A      8.331289   704A      8.569044   705A     15.971378  
     706A     16.537117   707A     17.740890   708A     17.937057  
     709A     18.238486   710A     18.509834   711A     18.792687  
     712A     19.497670   713A     21.231625  

    Final Occupation by Irrep:
              A 
    DOCC [    36 ]

  @DF-RHF Final Energy:  -439.13797557391774

   => Energetics <=

    Nuclear Repulsion Energy =            485.2964227023398394
    One-Electron Energy =               -1561.1195711860991651
    Two-Electron Energy =                 636.6851729098415262
    Total Energy =                       -439.1379755739177426

Computation Completed

*** tstop() called on node142.bme.utexas.edu at Sun Nov  8 21:49:05 2020
Module time:
	user time   =     288.06 seconds =       4.80 minutes
	system time =       7.47 seconds =       0.12 minutes
	total time  =         40 seconds =       0.67 minutes
Total time:
	user time   =     288.06 seconds =       4.80 minutes
	system time =       7.47 seconds =       0.12 minutes
	total time  =         40 seconds =       0.67 minutes
   => Loading Basis Set <=

    Name: (AUG-CC-PVTZ AUX)
    Role: RIFIT
    Keyword: DF_BASIS_MP2
    atoms 1-2   entry O          line   264 file /home/xy3866/.conda/envs/test-rdkit/share/psi4/basis/aug-cc-pvtz-ri.gbs 
    atoms 3     entry N          line   206 file /home/xy3866/.conda/envs/test-rdkit/share/psi4/basis/aug-cc-pvtz-ri.gbs 
    atoms 4-9   entry C          line   148 file /home/xy3866/.conda/envs/test-rdkit/share/psi4/basis/aug-cc-pvtz-ri.gbs 
    atoms 10-22 entry H          line    30 file /home/xy3866/.conda/envs/test-rdkit/share/psi4/basis/aug-cc-pvtz-ri.gbs 


*** tstart() called on node142.bme.utexas.edu
*** at Sun Nov  8 21:49:05 2020


  //>>>>>>>>>>>>>>>>>>>>>>>>>>>>>>>>>>>//
  //               DFMP2               //
  //<<<<<<<<<<<<<<<<<<<<<<<<<<<<<<<<<<<//

	 --------------------------------------------------------
	                          DF-MP2                         
	      2nd-Order Density-Fitted Moller-Plesset Theory     
	              RMP2 Wavefunction,   8 Threads             
	                                                         
	        Rob Parrish, Justin Turney, Andy Simmonett,      
	           Ed Hohenstein, and C. David Sherrill          
	 --------------------------------------------------------

   => Auxiliary Basis Set <=

  Basis Set: (AUG-CC-PVTZ AUX)
    Blend: AUG-CC-PVTZ-RI
    Number of shells: 434
    Number of basis function: 1552
    Number of Cartesian functions: 1939
    Spherical Harmonics?: true
    Max angular momentum: 4

	 --------------------------------------------------------
	                 NBF =   713, NAUX =  1552
	 --------------------------------------------------------
	   CLASS    FOCC     OCC    AOCC    AVIR     VIR    FVIR
	   PAIRS       0      36      36     677     677       0
	 --------------------------------------------------------

  DFHelper Memory: AOs need 5.578 GiB; user supplied 22.352 GiB. Using in-core AOs.


         ------------------------------------------------------------
                                     CPHF                           
                                  Rob Parrish                       
         ------------------------------------------------------------

  ==> Geometry <==

    Molecular point group: c1
    Full point group: C1

    Geometry (in Angstrom), charge = 0, multiplicity = 1:

       Center              X                  Y                   Z               Mass       
    ------------   -----------------  -----------------  -----------------  -----------------
         O           -2.896820811245    -0.347366222465    -0.255975046630    15.994914619570
         O           -0.582603811245    -1.513083222465     0.083805953370    15.994914619570
         N            0.664630188755     0.345180777535    -0.351108046630    14.003074004430
         C            1.952174188755    -0.306536222465    -0.129295046630    12.000000000000
         C           -1.787598811245     0.520822777535    -0.340914046630    12.000000000000
         C            2.308726188755    -0.311021222465     1.352985953370    12.000000000000
         C            3.007194188755     0.377010777535    -0.984312046630    12.000000000000
         C           -0.509224811245    -0.304285222465    -0.180794046630    12.000000000000
         C           -1.899120811245     1.593027777535     0.736657953370    12.000000000000
         H            1.818205188755    -1.339456222465    -0.462285046630     1.007825032230
         H            0.651823488755     1.343860377535    -0.511614046630     1.007825032230
         H           -1.768875811245     0.993863777535    -1.335260046630     1.007825032230
         H            2.408536188755     0.713715777535     1.724700953370     1.007825032230
         H            1.527612188755    -0.819435222465     1.922530953370     1.007825032230
         H            3.256049188755    -0.831904222465     1.521956953370     1.007825032230
         H            3.130419188755     1.423604777535    -0.683163046630     1.007825032230
         H            2.731551188755     0.348056777535    -2.040921046630     1.007825032230
         H            3.973853188755    -0.118178222465    -0.863013046630     1.007825032230
         H           -1.842101811245     1.125518777535     1.722435953370     1.007825032230
         H           -2.867101811245     2.088975777535     0.644642953370     1.007825032230
         H           -1.114090811245     2.351480777535     0.654708953370     1.007825032230
         H           -2.499055811245    -1.231519222465    -0.093468046630     1.007825032230

  Nuclear repulsion =  485.296422702339839
  Reference energy  = -439.137975573917743

  ==> Basis Set <==

  Basis Set: AUG-CC-PVTZ
    Blend: AUG-CC-PVTZ
    Number of shells: 243
    Number of basis function: 713
    Number of Cartesian functions: 820
    Spherical Harmonics?: true
    Max angular momentum: 3

  ==> CGRSolver (by Rob Parrish) <==

   Number of roots    =         1
   Preconditioning    =    JACOBI
   Convergence cutoff =     1E-06
   Maximum iterations =       100

  ==> CPHFRHamiltonian (by Rob Parrish) <== 

  ==> MemDFJK: Density-Fitted J/K Matrices <==

    J tasked:                   Yes
    K tasked:                   Yes
    wK tasked:                   No
    OpenMP threads:               8
    Memory [MiB]:             22888
    Algorithm:                 Core
    Schwarz Cutoff:           1E-12
    Mask sparsity (%):       6.5720
    Fitting Condition:        1E-10

   => Auxiliary Basis Set <=

  Basis Set: (AUG-CC-PVTZ AUX)
    Blend: AUG-CC-PVTZ-JKFIT
    Number of shells: 452
    Number of basis function: 1534
    Number of Cartesian functions: 1894
    Spherical Harmonics?: true
    Max angular momentum: 4

  ==> CPHF Iterations <==

  => Iterations <=

             Iter  Converged  Remaining    Residual
  CGR           1          0          1   1.112E-01
  CGR           2          0          1   3.229E-02
  CGR           3          0          1   1.240E-02
  CGR           4          0          1   3.353E-03
  CGR           5          0          1   1.292E-03
  CGR           6          0          1   3.605E-04
  CGR           7          0          1   1.228E-04
  CGR           8          0          1   4.795E-05
  CGR           9          0          1   1.986E-05
  CGR          10          0          1   7.799E-06
  CGR          11          0          1   2.495E-06
  CGR          12          1          0   7.153E-07

    CGRSolver converged.

	-----------------------------------------------------------
	 ==================> DF-MP2 Energies <==================== 
	-----------------------------------------------------------
	 Reference Energy          =    -439.1379755739177426 [Eh]
	 Singles Energy            =      -0.0000000000000000 [Eh]
	 Same-Spin Energy          =      -0.4460098470843694 [Eh]
	 Opposite-Spin Energy      =      -1.4636040888781046 [Eh]
	 Correlation Energy        =      -1.9096139359624740 [Eh]
	 Total Energy              =    -441.0475895098801971 [Eh]
	-----------------------------------------------------------
	 ================> DF-SCS-MP2 Energies <================== 
	-----------------------------------------------------------
	 SCS Same-Spin Scale       =       0.3333333333333333 [-]
	 SCS Opposite-Spin Scale   =       1.2000000000000000 [-]
	 SCS Same-Spin Energy      =      -0.1486699490281231 [Eh]
	 SCS Opposite-Spin Energy  =      -1.7563249066537254 [Eh]
	 SCS Correlation Energy    =      -1.9049948556818486 [Eh]
	 SCS Total Energy          =    -441.0429704295995634 [Eh]
	-----------------------------------------------------------



Properties will be evaluated at   0.000000,  -0.000000,  -0.000000 [a0]

Properties computed using the MP2 density matrix

  Nuclear Dipole Moment: [e a0]
     X:     8.8000      Y:     5.6604      Z:     2.0638

  Electronic Dipole Moment: [e a0]
     X:    -7.3872      Y:    -4.5134      Z:    -2.1769

  Dipole Moment: [e a0]
     X:     1.4127      Y:     1.1470      Z:    -0.1131     Total:     1.8233

  Dipole Moment: [D]
     X:     3.5908      Y:     2.9155      Z:    -0.2875     Total:     4.6343


*** tstop() called on node142.bme.utexas.edu at Sun Nov  8 21:51:46 2020
Module time:
	user time   =    1114.81 seconds =      18.58 minutes
	system time =      19.07 seconds =       0.32 minutes
	total time  =        161 seconds =       2.68 minutes
Total time:
	user time   =    1403.33 seconds =      23.39 minutes
	system time =      26.56 seconds =       0.44 minutes
	total time  =        201 seconds =       3.35 minutes

    Psi4 stopped on: Sunday, 08 November 2020 09:51PM
    Psi4 wall time for execution: 0:03:21.37

*** Psi4 exiting successfully. Buy a developer a beer!
