76854                                                                   
Freq      RMP2-FC                                                     6-31G(d)            
Number of atoms                            I               18
Info1-9                                    I   N=           9
          30          28        1002           0           0         100
           6           2           1
Charge                                     I                0
Multiplicity                               I                1
Number of electrons                        I              106
Number of alpha electrons                  I               53
Number of beta electrons                   I               53
Number of basis functions                  I              191
Number of independent functions            I              191
Number of point charges in /Mol/           I                0
Number of translation vectors              I                0
Atomic numbers                             I   N=          18
          17          17          17           6           6           6
           6           6           6           6           6           1
           1           1           1           1           1           1
Nuclear charges                            R   N=          18
  1.70000000E+01  1.70000000E+01  1.70000000E+01  6.00000000E+00  6.00000000E+00
  6.00000000E+00  6.00000000E+00  6.00000000E+00  6.00000000E+00  6.00000000E+00
  6.00000000E+00  1.00000000E+00  1.00000000E+00  1.00000000E+00  1.00000000E+00
  1.00000000E+00  1.00000000E+00  1.00000000E+00
Current cartesian coordinates              R   N=          54
 -2.95238756E+00  1.72824089E+00 -2.51014194E+00 -3.40816647E+00 -3.21018544E+00
 -3.68039194E-01 -2.85390373E+00  1.03898113E+00  2.96070306E+00  1.02522445E+00
 -4.49205357E-01 -5.79074966E-02  2.56687777E+00  1.74076894E+00  1.52119086E-04
  2.16364951E+00 -2.84158407E+00 -4.55994871E-02  5.19311245E+00  1.39892817E+00
 -8.89756468E-04 -1.83914984E+00 -2.43753744E-01 -4.53667930E-03  1.63032745E+00
  4.43858586E+00 -2.55051495E-02  4.78191706E+00 -3.11449427E+00 -4.65031115E-02
  6.31696580E+00 -9.80761595E-01 -2.05478064E-02  1.00689210E+00 -4.52788404E+00
 -5.72814381E-02  6.38638884E+00  3.07325891E+00  3.68134665E-02  1.23633952E+00
  5.07040257E+00 -1.95297929E+00 -7.96563837E-02  4.71288448E+00  1.08545100E+00
  3.09691360E+00  5.66599195E+00  7.56374368E-01  5.60159258E+00 -4.99772523E+00
 -4.68036324E-02  8.36376365E+00 -1.15745420E+00 -1.64230240E-02
Force Field                                I                0
Int Atom Types                             I   N=          18
           0           0           0           0           0           0
           0           0           0           0           0           0
           0           0           0           0           0           0
MM charges                                 R   N=          18
  0.00000000E+00  0.00000000E+00  0.00000000E+00  0.00000000E+00  0.00000000E+00
  0.00000000E+00  0.00000000E+00  0.00000000E+00  0.00000000E+00  0.00000000E+00
  0.00000000E+00  0.00000000E+00  0.00000000E+00  0.00000000E+00  0.00000000E+00
  0.00000000E+00  0.00000000E+00  0.00000000E+00
Integer atomic weights                     I   N=          18
          35          35          35          12          12          12
          12          12          12          12          12           1
           1           1           1           1           1           1
Real atomic weights                        R   N=          18
  3.49688527E+01  3.49688527E+01  3.49688527E+01  1.20000000E+01  1.20000000E+01
  1.20000000E+01  1.20000000E+01  1.20000000E+01  1.20000000E+01  1.20000000E+01
  1.20000000E+01  1.00782504E+00  1.00782504E+00  1.00782504E+00  1.00782504E+00
  1.00782504E+00  1.00782504E+00  1.00782504E+00
Atom fragment info                         I   N=          18
           0           0           0           0           0           0
           0           0           0           0           0           0
           0           0           0           0           0           0
Atom residue num                           I   N=          18
           0           0           0           0           0           0
           0           0           0           0           0           0
           0           0           0           0           0           0
Nuclear spins                              I   N=          18
           3           3           3           0           0           0
           0           0           0           0           0           1
           1           1           1           1           1           1
Nuclear ZEff                               R   N=          18
 -1.42400000E+01 -1.42400000E+01 -1.42400000E+01 -3.60000000E+00 -3.60000000E+00
 -3.60000000E+00 -3.60000000E+00 -3.60000000E+00 -3.60000000E+00 -3.60000000E+00
 -3.60000000E+00 -1.00000000E+00 -1.00000000E+00 -1.00000000E+00 -1.00000000E+00
 -1.00000000E+00 -1.00000000E+00 -1.00000000E+00
Nuclear QMom                               R   N=          18
 -8.16500000E+00 -8.16500000E+00 -8.16500000E+00  0.00000000E+00  0.00000000E+00
  0.00000000E+00  0.00000000E+00  0.00000000E+00  0.00000000E+00  0.00000000E+00
  0.00000000E+00  0.00000000E+00  0.00000000E+00  0.00000000E+00  0.00000000E+00
  0.00000000E+00  0.00000000E+00  0.00000000E+00
Nuclear GFac                               R   N=          18
  8.21874000E-01  8.21874000E-01  8.21874000E-01  0.00000000E+00  0.00000000E+00
  0.00000000E+00  0.00000000E+00  0.00000000E+00  0.00000000E+00  0.00000000E+00
  0.00000000E+00  2.79284600E+00  2.79284600E+00  2.79284600E+00  2.79284600E+00
  2.79284600E+00  2.79284600E+00  2.79284600E+00
MicOpt                                     I   N=          18
          -1          -1          -1          -1          -1          -1
          -1          -1          -1          -1          -1          -1
          -1          -1          -1          -1          -1          -1
Number of contracted shells                I               61
Number of primitive shells                 I              167
Pure/Cartesian d shells                    I                1
Pure/Cartesian f shells                    I                0
Highest angular momentum                   I                2
Largest degree of contraction              I                6
Shell types                                I   N=          61
           0          -1          -1          -1           2           0
          -1          -1          -1           2           0          -1
          -1          -1           2           0          -1          -1
           2           0          -1          -1           2           0
          -1          -1           2           0          -1          -1
           2           0          -1          -1           2           0
          -1          -1           2           0          -1          -1
           2           0          -1          -1           2           0
           0           0           0           0           0           0
           0           0           0           0           0           0
           0
Number of primitives per shell             I   N=          61
           6           6           3           1           1           6
           6           3           1           1           6           6
           3           1           1           6           3           1
           1           6           3           1           1           6
           3           1           1           6           3           1
           1           6           3           1           1           6
           3           1           1           6           3           1
           1           6           3           1           1           3
           1           3           1           3           1           3
           1           3           1           3           1           3
           1
Shell to atom map                          I   N=          61
           1           1           1           1           1           2
           2           2           2           2           3           3
           3           3           3           4           4           4
           4           5           5           5           5           6
           6           6           6           7           7           7
           7           8           8           8           8           9
           9           9           9          10          10          10
          10          11          11          11          11          12
          12          13          13          14          14          15
          15          16          16          17          17          18
          18
Primitive exponents                        R   N=         167
  2.51801000E+04  3.78035000E+03  8.60474000E+02  2.42145000E+02  7.73349000E+01
  2.62470000E+01  4.91765000E+02  1.16984000E+02  3.74153000E+01  1.37834000E+01
  5.45215000E+00  2.22588000E+00  3.18649000E+00  1.14427000E+00  4.20377000E-01
  1.42657000E-01  7.50000000E-01  2.51801000E+04  3.78035000E+03  8.60474000E+02
  2.42145000E+02  7.73349000E+01  2.62470000E+01  4.91765000E+02  1.16984000E+02
  3.74153000E+01  1.37834000E+01  5.45215000E+00  2.22588000E+00  3.18649000E+00
  1.14427000E+00  4.20377000E-01  1.42657000E-01  7.50000000E-01  2.51801000E+04
  3.78035000E+03  8.60474000E+02  2.42145000E+02  7.73349000E+01  2.62470000E+01
  4.91765000E+02  1.16984000E+02  3.74153000E+01  1.37834000E+01  5.45215000E+00
  2.22588000E+00  3.18649000E+00  1.14427000E+00  4.20377000E-01  1.42657000E-01
  7.50000000E-01  3.04752488E+03  4.57369518E+02  1.03948685E+02  2.92101553E+01
  9.28666296E+00  3.16392696E+00  7.86827235E+00  1.88128854E+00  5.44249258E-01
  1.68714478E-01  8.00000000E-01  3.04752488E+03  4.57369518E+02  1.03948685E+02
  2.92101553E+01  9.28666296E+00  3.16392696E+00  7.86827235E+00  1.88128854E+00
  5.44249258E-01  1.68714478E-01  8.00000000E-01  3.04752488E+03  4.57369518E+02
  1.03948685E+02  2.92101553E+01  9.28666296E+00  3.16392696E+00  7.86827235E+00
  1.88128854E+00  5.44249258E-01  1.68714478E-01  8.00000000E-01  3.04752488E+03
  4.57369518E+02  1.03948685E+02  2.92101553E+01  9.28666296E+00  3.16392696E+00
  7.86827235E+00  1.88128854E+00  5.44249258E-01  1.68714478E-01  8.00000000E-01
  3.04752488E+03  4.57369518E+02  1.03948685E+02  2.92101553E+01  9.28666296E+00
  3.16392696E+00  7.86827235E+00  1.88128854E+00  5.44249258E-01  1.68714478E-01
  8.00000000E-01  3.04752488E+03  4.57369518E+02  1.03948685E+02  2.92101553E+01
  9.28666296E+00  3.16392696E+00  7.86827235E+00  1.88128854E+00  5.44249258E-01
  1.68714478E-01  8.00000000E-01  3.04752488E+03  4.57369518E+02  1.03948685E+02
  2.92101553E+01  9.28666296E+00  3.16392696E+00  7.86827235E+00  1.88128854E+00
  5.44249258E-01  1.68714478E-01  8.00000000E-01  3.04752488E+03  4.57369518E+02
  1.03948685E+02  2.92101553E+01  9.28666296E+00  3.16392696E+00  7.86827235E+00
  1.88128854E+00  5.44249258E-01  1.68714478E-01  8.00000000E-01  1.87311370E+01
  2.82539436E+00  6.40121692E-01  1.61277759E-01  1.87311370E+01  2.82539436E+00
  6.40121692E-01  1.61277759E-01  1.87311370E+01  2.82539436E+00  6.40121692E-01
  1.61277759E-01  1.87311370E+01  2.82539436E+00  6.40121692E-01  1.61277759E-01
  1.87311370E+01  2.82539436E+00  6.40121692E-01  1.61277759E-01  1.87311370E+01
  2.82539436E+00  6.40121692E-01  1.61277759E-01  1.87311370E+01  2.82539436E+00
  6.40121692E-01  1.61277759E-01
Contraction coefficients                   R   N=         167
  1.83295985E-03  1.40341988E-02  6.90973943E-02  2.37451980E-01  4.83033960E-01
  3.39855972E-01 -2.29739142E-03 -3.07137189E-02 -1.12528069E-01  4.50163278E-02
  5.89353363E-01  4.65206287E-01 -2.51828028E-01  6.15892514E-02  1.06018433E+00
  1.00000000E+00  1.00000000E+00  1.83295985E-03  1.40341988E-02  6.90973943E-02
  2.37451980E-01  4.83033960E-01  3.39855972E-01 -2.29739142E-03 -3.07137189E-02
 -1.12528069E-01  4.50163278E-02  5.89353363E-01  4.65206287E-01 -2.51828028E-01
  6.15892514E-02  1.06018433E+00  1.00000000E+00  1.00000000E+00  1.83295985E-03
  1.40341988E-02  6.90973943E-02  2.37451980E-01  4.83033960E-01  3.39855972E-01
 -2.29739142E-03 -3.07137189E-02 -1.12528069E-01  4.50163278E-02  5.89353363E-01
  4.65206287E-01 -2.51828028E-01  6.15892514E-02  1.06018433E+00  1.00000000E+00
  1.00000000E+00  1.83473713E-03  1.40373228E-02  6.88426223E-02  2.32184443E-01
  4.67941348E-01  3.62311985E-01 -1.19332420E-01 -1.60854152E-01  1.14345644E+00
  1.00000000E+00  1.00000000E+00  1.83473713E-03  1.40373228E-02  6.88426223E-02
  2.32184443E-01  4.67941348E-01  3.62311985E-01 -1.19332420E-01 -1.60854152E-01
  1.14345644E+00  1.00000000E+00  1.00000000E+00  1.83473713E-03  1.40373228E-02
  6.88426223E-02  2.32184443E-01  4.67941348E-01  3.62311985E-01 -1.19332420E-01
 -1.60854152E-01  1.14345644E+00  1.00000000E+00  1.00000000E+00  1.83473713E-03
  1.40373228E-02  6.88426223E-02  2.32184443E-01  4.67941348E-01  3.62311985E-01
 -1.19332420E-01 -1.60854152E-01  1.14345644E+00  1.00000000E+00  1.00000000E+00
  1.83473713E-03  1.40373228E-02  6.88426223E-02  2.32184443E-01  4.67941348E-01
  3.62311985E-01 -1.19332420E-01 -1.60854152E-01  1.14345644E+00  1.00000000E+00
  1.00000000E+00  1.83473713E-03  1.40373228E-02  6.88426223E-02  2.32184443E-01
  4.67941348E-01  3.62311985E-01 -1.19332420E-01 -1.60854152E-01  1.14345644E+00
  1.00000000E+00  1.00000000E+00  1.83473713E-03  1.40373228E-02  6.88426223E-02
  2.32184443E-01  4.67941348E-01  3.62311985E-01 -1.19332420E-01 -1.60854152E-01
  1.14345644E+00  1.00000000E+00  1.00000000E+00  1.83473713E-03  1.40373228E-02
  6.88426223E-02  2.32184443E-01  4.67941348E-01  3.62311985E-01 -1.19332420E-01
 -1.60854152E-01  1.14345644E+00  1.00000000E+00  1.00000000E+00  3.34946043E-02
  2.34726953E-01  8.13757326E-01  1.00000000E+00  3.34946043E-02  2.34726953E-01
  8.13757326E-01  1.00000000E+00  3.34946043E-02  2.34726953E-01  8.13757326E-01
  1.00000000E+00  3.34946043E-02  2.34726953E-01  8.13757326E-01  1.00000000E+00
  3.34946043E-02  2.34726953E-01  8.13757326E-01  1.00000000E+00  3.34946043E-02
  2.34726953E-01  8.13757326E-01  1.00000000E+00  3.34946043E-02  2.34726953E-01
  8.13757326E-01  1.00000000E+00
P(S=P) Contraction coefficients            R   N=         167
  0.00000000E+00  0.00000000E+00  0.00000000E+00  0.00000000E+00  0.00000000E+00
  0.00000000E+00  3.98940088E-03  3.03177067E-02  1.29880029E-01  3.27951072E-01
  4.53527100E-01  2.52154056E-01 -1.42993147E-02  3.23572333E-01  7.43507765E-01
  1.00000000E+00  0.00000000E+00  0.00000000E+00  0.00000000E+00  0.00000000E+00
  0.00000000E+00  0.00000000E+00  0.00000000E+00  3.98940088E-03  3.03177067E-02
  1.29880029E-01  3.27951072E-01  4.53527100E-01  2.52154056E-01 -1.42993147E-02
  3.23572333E-01  7.43507765E-01  1.00000000E+00  0.00000000E+00  0.00000000E+00
  0.00000000E+00  0.00000000E+00  0.00000000E+00  0.00000000E+00  0.00000000E+00
  3.98940088E-03  3.03177067E-02  1.29880029E-01  3.27951072E-01  4.53527100E-01
  2.52154056E-01 -1.42993147E-02  3.23572333E-01  7.43507765E-01  1.00000000E+00
  0.00000000E+00  0.00000000E+00  0.00000000E+00  0.00000000E+00  0.00000000E+00
  0.00000000E+00  0.00000000E+00  6.89990666E-02  3.16423961E-01  7.44308291E-01
  1.00000000E+00  0.00000000E+00  0.00000000E+00  0.00000000E+00  0.00000000E+00
  0.00000000E+00  0.00000000E+00  0.00000000E+00  6.89990666E-02  3.16423961E-01
  7.44308291E-01  1.00000000E+00  0.00000000E+00  0.00000000E+00  0.00000000E+00
  0.00000000E+00  0.00000000E+00  0.00000000E+00  0.00000000E+00  6.89990666E-02
  3.16423961E-01  7.44308291E-01  1.00000000E+00  0.00000000E+00  0.00000000E+00
  0.00000000E+00  0.00000000E+00  0.00000000E+00  0.00000000E+00  0.00000000E+00
  6.89990666E-02  3.16423961E-01  7.44308291E-01  1.00000000E+00  0.00000000E+00
  0.00000000E+00  0.00000000E+00  0.00000000E+00  0.00000000E+00  0.00000000E+00
  0.00000000E+00  6.89990666E-02  3.16423961E-01  7.44308291E-01  1.00000000E+00
  0.00000000E+00  0.00000000E+00  0.00000000E+00  0.00000000E+00  0.00000000E+00
  0.00000000E+00  0.00000000E+00  6.89990666E-02  3.16423961E-01  7.44308291E-01
  1.00000000E+00  0.00000000E+00  0.00000000E+00  0.00000000E+00  0.00000000E+00
  0.00000000E+00  0.00000000E+00  0.00000000E+00  6.89990666E-02  3.16423961E-01
  7.44308291E-01  1.00000000E+00  0.00000000E+00  0.00000000E+00  0.00000000E+00
  0.00000000E+00  0.00000000E+00  0.00000000E+00  0.00000000E+00  6.89990666E-02
  3.16423961E-01  7.44308291E-01  1.00000000E+00  0.00000000E+00  0.00000000E+00
  0.00000000E+00  0.00000000E+00  0.00000000E+00  0.00000000E+00  0.00000000E+00
  0.00000000E+00  0.00000000E+00  0.00000000E+00  0.00000000E+00  0.00000000E+00
  0.00000000E+00  0.00000000E+00  0.00000000E+00  0.00000000E+00  0.00000000E+00
  0.00000000E+00  0.00000000E+00  0.00000000E+00  0.00000000E+00  0.00000000E+00
  0.00000000E+00  0.00000000E+00  0.00000000E+00  0.00000000E+00  0.00000000E+00
  0.00000000E+00  0.00000000E+00
Coordinates of each shell                  R   N=         183
 -2.95238756E+00  1.72824089E+00 -2.51014194E+00 -2.95238756E+00  1.72824089E+00
 -2.51014194E+00 -2.95238756E+00  1.72824089E+00 -2.51014194E+00 -2.95238756E+00
  1.72824089E+00 -2.51014194E+00 -2.95238756E+00  1.72824089E+00 -2.51014194E+00
 -3.40816647E+00 -3.21018544E+00 -3.68039194E-01 -3.40816647E+00 -3.21018544E+00
 -3.68039194E-01 -3.40816647E+00 -3.21018544E+00 -3.68039194E-01 -3.40816647E+00
 -3.21018544E+00 -3.68039194E-01 -3.40816647E+00 -3.21018544E+00 -3.68039194E-01
 -2.85390373E+00  1.03898113E+00  2.96070306E+00 -2.85390373E+00  1.03898113E+00
  2.96070306E+00 -2.85390373E+00  1.03898113E+00  2.96070306E+00 -2.85390373E+00
  1.03898113E+00  2.96070306E+00 -2.85390373E+00  1.03898113E+00  2.96070306E+00
  1.02522445E+00 -4.49205357E-01 -5.79074966E-02  1.02522445E+00 -4.49205357E-01
 -5.79074966E-02  1.02522445E+00 -4.49205357E-01 -5.79074966E-02  1.02522445E+00
 -4.49205357E-01 -5.79074966E-02  2.56687777E+00  1.74076894E+00  1.52119086E-04
  2.56687777E+00  1.74076894E+00  1.52119086E-04  2.56687777E+00  1.74076894E+00
  1.52119086E-04  2.56687777E+00  1.74076894E+00  1.52119086E-04  2.16364951E+00
 -2.84158407E+00 -4.55994871E-02  2.16364951E+00 -2.84158407E+00 -4.55994871E-02
  2.16364951E+00 -2.84158407E+00 -4.55994871E-02  2.16364951E+00 -2.84158407E+00
 -4.55994871E-02  5.19311245E+00  1.39892817E+00 -8.89756468E-04  5.19311245E+00
  1.39892817E+00 -8.89756468E-04  5.19311245E+00  1.39892817E+00 -8.89756468E-04
  5.19311245E+00  1.39892817E+00 -8.89756468E-04 -1.83914984E+00 -2.43753744E-01
 -4.53667930E-03 -1.83914984E+00 -2.43753744E-01 -4.53667930E-03 -1.83914984E+00
 -2.43753744E-01 -4.53667930E-03 -1.83914984E+00 -2.43753744E-01 -4.53667930E-03
  1.63032745E+00  4.43858586E+00 -2.55051495E-02  1.63032745E+00  4.43858586E+00
 -2.55051495E-02  1.63032745E+00  4.43858586E+00 -2.55051495E-02  1.63032745E+00
  4.43858586E+00 -2.55051495E-02  4.78191706E+00 -3.11449427E+00 -4.65031115E-02
  4.78191706E+00 -3.11449427E+00 -4.65031115E-02  4.78191706E+00 -3.11449427E+00
 -4.65031115E-02  4.78191706E+00 -3.11449427E+00 -4.65031115E-02  6.31696580E+00
 -9.80761595E-01 -2.05478064E-02  6.31696580E+00 -9.80761595E-01 -2.05478064E-02
  6.31696580E+00 -9.80761595E-01 -2.05478064E-02  6.31696580E+00 -9.80761595E-01
 -2.05478064E-02  1.00689210E+00 -4.52788404E+00 -5.72814381E-02  1.00689210E+00
 -4.52788404E+00 -5.72814381E-02  6.38638884E+00  3.07325891E+00  3.68134665E-02
  6.38638884E+00  3.07325891E+00  3.68134665E-02  1.23633952E+00  5.07040257E+00
 -1.95297929E+00  1.23633952E+00  5.07040257E+00 -1.95297929E+00 -7.96563837E-02
  4.71288448E+00  1.08545100E+00 -7.96563837E-02  4.71288448E+00  1.08545100E+00
  3.09691360E+00  5.66599195E+00  7.56374368E-01  3.09691360E+00  5.66599195E+00
  7.56374368E-01  5.60159258E+00 -4.99772523E+00 -4.68036324E-02  5.60159258E+00
 -4.99772523E+00 -4.68036324E-02  8.36376365E+00 -1.15745420E+00 -1.64230240E-02
  8.36376365E+00 -1.15745420E+00 -1.64230240E-02
Constraint Structure                       R   N=          54
 -2.95238756E+00  1.72824089E+00 -2.51014194E+00 -3.40816647E+00 -3.21018544E+00
 -3.68039194E-01 -2.85390373E+00  1.03898113E+00  2.96070306E+00  1.02522445E+00
 -4.49205357E-01 -5.79074966E-02  2.56687777E+00  1.74076894E+00  1.52119086E-04
  2.16364951E+00 -2.84158407E+00 -4.55994871E-02  5.19311245E+00  1.39892817E+00
 -8.89756468E-04 -1.83914984E+00 -2.43753744E-01 -4.53667930E-03  1.63032745E+00
  4.43858586E+00 -2.55051495E-02  4.78191706E+00 -3.11449427E+00 -4.65031115E-02
  6.31696580E+00 -9.80761595E-01 -2.05478064E-02  1.00689210E+00 -4.52788404E+00
 -5.72814381E-02  6.38638884E+00  3.07325891E+00  3.68134665E-02  1.23633952E+00
  5.07040257E+00 -1.95297929E+00 -7.96563837E-02  4.71288448E+00  1.08545100E+00
  3.09691360E+00  5.66599195E+00  7.56374368E-01  5.60159258E+00 -4.99772523E+00
 -4.68036324E-02  8.36376365E+00 -1.15745420E+00 -1.64230240E-02
Num ILSW                                   I              100
ILSW                                       I   N=         100
           0           1           0           0           2           0
           0           0           0           0           0          -1
           0           0           0           0           0           0
           0           0           0           0           1           0
           1           0           0           0           0           0
           0           0      100000           0          -1           0
           0           0           0           0           0           0
           0           0           0           1           1           0
           0           0           1           0           0           0
           0           0           4          40           0           0
           0           0           0           0           0           0
           0           0           0           0           0           0
           0           0           0           0           0           0
           0           0           0           0           0           0
           0           0           0           0           0           0
           0           0           0           0           0           0
           0           0           0           0
Num RLSW                                   I               40
RLSW                                       R   N=          40
  1.00000000E+00  1.00000000E+00  1.00000000E+00  1.00000000E+00  1.00000000E+00
  0.00000000E+00  0.00000000E+00  1.00000000E+00  0.00000000E+00  0.00000000E+00
  0.00000000E+00  0.00000000E+00  1.00000000E+00  0.00000000E+00  0.00000000E+00
  0.00000000E+00  0.00000000E+00  1.00000000E+00  0.00000000E+00  0.00000000E+00
  0.00000000E+00  0.00000000E+00  1.00000000E+00  0.00000000E+00  0.00000000E+00
  0.00000000E+00  0.00000000E+00  1.00000000E+00  0.00000000E+00  0.00000000E+00
  0.00000000E+00  0.00000000E+00  0.00000000E+00  0.00000000E+00  0.00000000E+00
  0.00000000E+00  0.00000000E+00  0.00000000E+00  1.00000000E+00  1.00000000E+00
MxBond                                     I                4
NBond                                      I   N=          18
           1           1           1           3           3           3
           3           4           4           3           3           1
           1           1           1           1           1           1
IBond                                      I   N=          72
           8           0           0           0           8           0
           0           0           8           0           0           0
           5           6           8           0           4           7
           9           0           4          10          12           0
           5          11          13           0           1           2
           3           4           5          14          15          16
           6          11          17           0           7          10
          18           0           6           0           0           0
           7           0           0           0           9           0
           0           0           9           0           0           0
           9           0           0           0          10           0
           0           0          11           0           0           0
RBond                                      R   N=          72
  1.00000000E+00  0.00000000E+00  0.00000000E+00  0.00000000E+00  1.00000000E+00
  0.00000000E+00  0.00000000E+00  0.00000000E+00  1.00000000E+00  0.00000000E+00
  0.00000000E+00  0.00000000E+00  1.50000000E+00  1.50000000E+00  1.00000000E+00
  0.00000000E+00  1.50000000E+00  1.50000000E+00  1.00000000E+00  0.00000000E+00
  1.50000000E+00  1.50000000E+00  1.00000000E+00  0.00000000E+00  1.50000000E+00
  1.50000000E+00  1.00000000E+00  0.00000000E+00  1.00000000E+00  1.00000000E+00
  1.00000000E+00  1.00000000E+00  1.00000000E+00  1.00000000E+00  1.00000000E+00
  1.00000000E+00  1.50000000E+00  1.50000000E+00  1.00000000E+00  0.00000000E+00
  1.50000000E+00  1.50000000E+00  1.00000000E+00  0.00000000E+00  1.00000000E+00
  0.00000000E+00  0.00000000E+00  0.00000000E+00  1.00000000E+00  0.00000000E+00
  0.00000000E+00  0.00000000E+00  1.00000000E+00  0.00000000E+00  0.00000000E+00
  0.00000000E+00  1.00000000E+00  0.00000000E+00  0.00000000E+00  0.00000000E+00
  1.00000000E+00  0.00000000E+00  0.00000000E+00  0.00000000E+00  1.00000000E+00
  0.00000000E+00  0.00000000E+00  0.00000000E+00  1.00000000E+00  0.00000000E+00
  0.00000000E+00  0.00000000E+00
Virial Ratio                               R      2.000627534244063E+00
SCF Energy                                 R     -1.685433966739846E+03
MP2 Energy                                 R     -1.686864265751717E+03
Total Energy                               R     -1.686864265751717E+03
Post-SCF wavefunction norm                 R      1.747919005494254E+00
RMS Force                                  R      6.132969541779572E-07
RMS Density                                R      5.256213806004678E-10
External E-field                           R   N=          35
  0.00000000E+00  0.00000000E+00  0.00000000E+00  0.00000000E+00  0.00000000E+00
  0.00000000E+00  0.00000000E+00  0.00000000E+00  0.00000000E+00  0.00000000E+00
  0.00000000E+00  0.00000000E+00  0.00000000E+00  0.00000000E+00  0.00000000E+00
  0.00000000E+00  0.00000000E+00  0.00000000E+00  0.00000000E+00  0.00000000E+00
  0.00000000E+00  0.00000000E+00  0.00000000E+00  0.00000000E+00  0.00000000E+00
  0.00000000E+00  0.00000000E+00  0.00000000E+00  0.00000000E+00  0.00000000E+00
  0.00000000E+00  0.00000000E+00  0.00000000E+00  0.00000000E+00  0.00000000E+00
IOpCl                                      I                0
IROHF                                      I                0
Alpha Orbital Energies                     R   N=         191
 -1.04845251E+02 -1.04842212E+02 -1.04841986E+02 -1.14407300E+01 -1.12756465E+01
 -1.12682993E+01 -1.12549664E+01 -1.12523696E+01 -1.12460190E+01 -1.12452169E+01
 -1.12304765E+01 -1.05797094E+01 -1.05765322E+01 -1.05762370E+01 -8.04899250E+00
 -8.04584813E+00 -8.04554135E+00 -8.04534701E+00 -8.04527418E+00 -8.04212213E+00
 -8.04209853E+00 -8.04184046E+00 -8.04177781E+00 -1.25015991E+00 -1.16336390E+00
 -1.10847542E+00 -1.10574686E+00 -1.05706645E+00 -1.03692775E+00 -9.50649370E-01
 -8.82165774E-01 -8.23909576E-01 -7.88516308E-01 -7.02781752E-01 -6.66109662E-01
 -6.52820565E-01 -6.28508978E-01 -6.16943105E-01 -6.00428226E-01 -5.86304110E-01
 -5.80746760E-01 -5.55021471E-01 -5.19980188E-01 -5.05854419E-01 -5.02769970E-01
 -4.93401851E-01 -4.87345408E-01 -4.63734818E-01 -4.54653771E-01 -4.46948426E-01
 -4.41349949E-01 -3.48361349E-01 -3.36168288E-01  1.00613717E-01  1.27467259E-01
  1.31594536E-01  1.70568702E-01  2.05772994E-01  2.33525964E-01  2.62275925E-01
  2.84117716E-01  3.04604008E-01  3.22201715E-01  3.26587751E-01  3.34693576E-01
  3.71934892E-01  3.77578088E-01  4.00679726E-01  4.50067976E-01  4.70229792E-01
  4.92189233E-01  5.02286953E-01  5.19433275E-01  5.51523195E-01  5.84245662E-01
  6.03776111E-01  6.06820928E-01  6.11955649E-01  6.35389805E-01  6.59629231E-01
  6.65777577E-01  6.96250035E-01  7.00455114E-01  7.07364345E-01  7.10895687E-01
  7.15118253E-01  7.37695861E-01  7.55405562E-01  7.71516424E-01  7.80656472E-01
  7.91334514E-01  8.11594904E-01  8.24571449E-01  8.37146906E-01  8.46702671E-01
  8.62332560E-01  8.64961884E-01  8.71185434E-01  8.76079890E-01  9.42600699E-01
  9.62623782E-01  9.74814753E-01  9.84506587E-01  1.01467483E+00  1.02112078E+00
  1.08962333E+00  1.09235841E+00  1.09933813E+00  1.10300242E+00  1.12531108E+00
  1.13332274E+00  1.14153261E+00  1.15103678E+00  1.15718382E+00  1.16382924E+00
  1.17043088E+00  1.17796651E+00  1.18609708E+00  1.19968586E+00  1.21625475E+00
  1.22092538E+00  1.24843695E+00  1.29490844E+00  1.30507632E+00  1.31811636E+00
  1.33315593E+00  1.34325068E+00  1.34980864E+00  1.37991524E+00  1.41787147E+00
  1.43760909E+00  1.47807162E+00  1.50844853E+00  1.51481100E+00  1.54341514E+00
  1.60544992E+00  1.66588170E+00  1.66799468E+00  1.68100880E+00  1.70914946E+00
  1.73761065E+00  1.75186138E+00  1.76523280E+00  1.79455967E+00  1.91550694E+00
  2.00918463E+00  2.06894710E+00  2.11033168E+00  2.12423449E+00  2.13276148E+00
  2.16386254E+00  2.21235564E+00  2.22660145E+00  2.22838347E+00  2.28387656E+00
  2.35221446E+00  2.36938490E+00  2.39586417E+00  2.44643612E+00  2.45896700E+00
  2.48705350E+00  2.52410125E+00  2.54034730E+00  2.55959227E+00  2.59536302E+00
  2.61090706E+00  2.63085500E+00  2.69317188E+00  2.75099970E+00  2.78594261E+00
  2.93168259E+00  2.94113591E+00  2.98136009E+00  3.06272693E+00  3.10381110E+00
  3.12324847E+00  3.13928566E+00  3.27551439E+00  3.44391693E+00  3.76327209E+00