040_Formicacid Gaussian SP Calculation on g2-node38.bme.utexas.edu      
Freq      RMP2-FC                                                     6-31G(d)            
Number of atoms                            I                5
Info1-9                                    I   N=           9
          16          15        1002           0           0         100
           6           2           1
Charge                                     I                0
Multiplicity                               I                1
Number of electrons                        I               24
Number of alpha electrons                  I               12
Number of beta electrons                   I               12
Number of basis functions                  I               49
Number of independent functions            I               49
Number of point charges in /Mol/           I                0
Number of translation vectors              I                0
Atomic numbers                             I   N=           5
           6           1           8           8           1
Nuclear charges                            R   N=           5
  6.00000000E+00  1.00000000E+00  8.00000000E+00  8.00000000E+00  1.00000000E+00
Current cartesian coordinates              R   N=          15
 -2.44005274E-01  6.89961689E-01 -9.99615196E-07 -6.70817898E-02  2.76891406E+00
  2.80616850E-06 -2.23948726E+00 -4.15400734E-01  1.59365167E-07  2.00967439E+00
 -5.36353649E-01  4.48389226E-07  3.36961633E+00  7.05350871E-01 -1.67051248E-06
Force Field                                I                0
Int Atom Types                             I   N=           5
           0           0           0           0           0
MM charges                                 R   N=           5
  0.00000000E+00  0.00000000E+00  0.00000000E+00  0.00000000E+00  0.00000000E+00
Integer atomic weights                     I   N=           5
          12           1          16          16           1
Real atomic weights                        R   N=           5
  1.20000000E+01  1.00782504E+00  1.59949146E+01  1.59949146E+01  1.00782504E+00
Atom fragment info                         I   N=           5
           0           0           0           0           0
Atom residue num                           I   N=           5
           0           0           0           0           0
Nuclear spins                              I   N=           5
           0           1           0           0           1
Nuclear ZEff                               R   N=           5
 -3.60000000E+00 -1.00000000E+00 -5.60000000E+00 -5.60000000E+00 -1.00000000E+00
Nuclear QMom                               R   N=           5
  0.00000000E+00  0.00000000E+00  0.00000000E+00  0.00000000E+00  0.00000000E+00
Nuclear GFac                               R   N=           5
  0.00000000E+00  2.79284600E+00  0.00000000E+00  0.00000000E+00  2.79284600E+00
MicOpt                                     I   N=           5
          -1          -1          -1          -1          -1
Number of contracted shells                I               16
Number of primitive shells                 I               41
Pure/Cartesian d shells                    I                1
Pure/Cartesian f shells                    I                0
Highest angular momentum                   I                2
Largest degree of contraction              I                6
Shell types                                I   N=          16
           0          -1          -1           2           0           0
           0          -1          -1           2           0          -1
          -1           2           0           0
Number of primitives per shell             I   N=          16
           6           3           1           1           3           1
           6           3           1           1           6           3
           1           1           3           1
Shell to atom map                          I   N=          16
           1           1           1           1           2           2
           3           3           3           3           4           4
           4           4           5           5
Primitive exponents                        R   N=          41
  3.04752488E+03  4.57369518E+02  1.03948685E+02  2.92101553E+01  9.28666296E+00
  3.16392696E+00  7.86827235E+00  1.88128854E+00  5.44249258E-01  1.68714478E-01
  8.00000000E-01  1.87311370E+01  2.82539436E+00  6.40121692E-01  1.61277759E-01
  5.48467166E+03  8.25234946E+02  1.88046958E+02  5.29645000E+01  1.68975704E+01
  5.79963534E+00  1.55396162E+01  3.59993359E+00  1.01376175E+00  2.70005823E-01
  8.00000000E-01  5.48467166E+03  8.25234946E+02  1.88046958E+02  5.29645000E+01
  1.68975704E+01  5.79963534E+00  1.55396162E+01  3.59993359E+00  1.01376175E+00
  2.70005823E-01  8.00000000E-01  1.87311370E+01  2.82539436E+00  6.40121692E-01
  1.61277759E-01
Contraction coefficients                   R   N=          41
  1.83473713E-03  1.40373228E-02  6.88426223E-02  2.32184443E-01  4.67941348E-01
  3.62311985E-01 -1.19332420E-01 -1.60854152E-01  1.14345644E+00  1.00000000E+00
  1.00000000E+00  3.34946043E-02  2.34726953E-01  8.13757326E-01  1.00000000E+00
  1.83107443E-03  1.39501722E-02  6.84450781E-02  2.32714336E-01  4.70192898E-01
  3.58520853E-01 -1.10777550E-01 -1.48026263E-01  1.13076702E+00  1.00000000E+00
  1.00000000E+00  1.83107443E-03  1.39501722E-02  6.84450781E-02  2.32714336E-01
  4.70192898E-01  3.58520853E-01 -1.10777550E-01 -1.48026263E-01  1.13076702E+00
  1.00000000E+00  1.00000000E+00  3.34946043E-02  2.34726953E-01  8.13757326E-01
  1.00000000E+00
P(S=P) Contraction coefficients            R   N=          41
  0.00000000E+00  0.00000000E+00  0.00000000E+00  0.00000000E+00  0.00000000E+00
  0.00000000E+00  6.89990666E-02  3.16423961E-01  7.44308291E-01  1.00000000E+00
  0.00000000E+00  0.00000000E+00  0.00000000E+00  0.00000000E+00  0.00000000E+00
  0.00000000E+00  0.00000000E+00  0.00000000E+00  0.00000000E+00  0.00000000E+00
  0.00000000E+00  7.08742682E-02  3.39752839E-01  7.27158577E-01  1.00000000E+00
  0.00000000E+00  0.00000000E+00  0.00000000E+00  0.00000000E+00  0.00000000E+00
  0.00000000E+00  0.00000000E+00  7.08742682E-02  3.39752839E-01  7.27158577E-01
  1.00000000E+00  0.00000000E+00  0.00000000E+00  0.00000000E+00  0.00000000E+00
  0.00000000E+00
Coordinates of each shell                  R   N=          48
 -2.44005274E-01  6.89961689E-01 -9.99615196E-07 -2.44005274E-01  6.89961689E-01
 -9.99615196E-07 -2.44005274E-01  6.89961689E-01 -9.99615196E-07 -2.44005274E-01
  6.89961689E-01 -9.99615196E-07 -6.70817898E-02  2.76891406E+00  2.80616850E-06
 -6.70817898E-02  2.76891406E+00  2.80616850E-06 -2.23948726E+00 -4.15400734E-01
  1.59365167E-07 -2.23948726E+00 -4.15400734E-01  1.59365167E-07 -2.23948726E+00
 -4.15400734E-01  1.59365167E-07 -2.23948726E+00 -4.15400734E-01  1.59365167E-07
  2.00967439E+00 -5.36353649E-01  4.48389226E-07  2.00967439E+00 -5.36353649E-01
  4.48389226E-07  2.00967439E+00 -5.36353649E-01  4.48389226E-07  2.00967439E+00
 -5.36353649E-01  4.48389226E-07  3.36961633E+00  7.05350871E-01 -1.67051248E-06
  3.36961633E+00  7.05350871E-01 -1.67051248E-06
Constraint Structure                       R   N=          15
 -2.44005274E-01  6.89961689E-01 -9.99615196E-07 -6.70817898E-02  2.76891406E+00
  2.80616850E-06 -2.23948726E+00 -4.15400734E-01  1.59365167E-07  2.00967439E+00
 -5.36353649E-01  4.48389226E-07  3.36961633E+00  7.05350871E-01 -1.67051248E-06
Num ILSW                                   I              100
ILSW                                       I   N=         100
           0           1           0           0           2           0
           0           0           0           0           0          -1
           0           0           0           0           0           0
           0           0           0           0           1           0
           1           0           0           0           0           0
           0           0      100000           0          -1           0
           0           0           0           0           0           0
           0           0           0           1           1           0
           0           0           1           0           0           0
           0           0           4          40           0           0
           0           0           0           0           0           0
           0           0           0           0           0           0
           0           0           0           0           0           0
           0           0           0           0           0           0
           0           0           0           0           0           0
           0           0           0           0           0           0
           0           0           0           0
Num RLSW                                   I               40
RLSW                                       R   N=          40
  1.00000000E+00  1.00000000E+00  1.00000000E+00  1.00000000E+00  1.00000000E+00
  0.00000000E+00  0.00000000E+00  1.00000000E+00  0.00000000E+00  0.00000000E+00
  0.00000000E+00  0.00000000E+00  1.00000000E+00  0.00000000E+00  0.00000000E+00
  0.00000000E+00  0.00000000E+00  1.00000000E+00  0.00000000E+00  0.00000000E+00
  0.00000000E+00  0.00000000E+00  1.00000000E+00  0.00000000E+00  0.00000000E+00
  0.00000000E+00  0.00000000E+00  1.00000000E+00  0.00000000E+00  0.00000000E+00
  0.00000000E+00  0.00000000E+00  0.00000000E+00  0.00000000E+00  0.00000000E+00
  0.00000000E+00  0.00000000E+00  0.00000000E+00  1.00000000E+00  1.00000000E+00
MxBond                                     I                3
NBond                                      I   N=           5
           3           1           1           2           1
IBond                                      I   N=          15
           2           3           4           1           0           0
           1           0           0           1           5           0
           4           0           0
RBond                                      R   N=          15
  1.00000000E+00  2.00000000E+00  1.50000000E+00  1.00000000E+00  0.00000000E+00
  0.00000000E+00  2.00000000E+00  0.00000000E+00  0.00000000E+00  1.50000000E+00
  1.00000000E+00  0.00000000E+00  1.00000000E+00  0.00000000E+00  0.00000000E+00
Virial Ratio                               R      2.003734354011556E+00
SCF Energy                                 R     -1.887487219607712E+02
MP2 Energy                                 R     -1.892323788992682E+02
Total Energy                               R     -1.892323788992682E+02
Post-SCF wavefunction norm                 R      1.511375232805910E+00
RMS Force                                  R      3.285603187993886E-06
RMS Density                                R      6.182535747626863E-10
External E-field                           R   N=          35
  0.00000000E+00  0.00000000E+00  0.00000000E+00  0.00000000E+00  0.00000000E+00
  0.00000000E+00  0.00000000E+00  0.00000000E+00  0.00000000E+00  0.00000000E+00
  0.00000000E+00  0.00000000E+00  0.00000000E+00  0.00000000E+00  0.00000000E+00
  0.00000000E+00  0.00000000E+00  0.00000000E+00  0.00000000E+00  0.00000000E+00
  0.00000000E+00  0.00000000E+00  0.00000000E+00  0.00000000E+00  0.00000000E+00
  0.00000000E+00  0.00000000E+00  0.00000000E+00  0.00000000E+00  0.00000000E+00
  0.00000000E+00  0.00000000E+00  0.00000000E+00  0.00000000E+00  0.00000000E+00
IOpCl                                      I                0
IROHF                                      I                0
Alpha Orbital Energies                     R   N=          49
 -2.06336489E+01 -2.05701146E+01 -1.14025282E+01 -1.46311615E+00 -1.37077152E+00
 -8.65700849E-01 -7.86618421E-01 -6.61517178E-01 -6.26945383E-01 -5.94527323E-01
 -4.84039196E-01 -4.62890808E-01  1.72162595E-01  1.90006716E-01  2.66796177E-01
  4.23665856E-01  4.82751968E-01  7.18962770E-01  7.51359653E-01  8.80332350E-01
  9.19072076E-01  1.02618282E+00  1.06823003E+00  1.10995911E+00  1.18304882E+00
  1.21242286E+00  1.28809238E+00  1.33645132E+00  1.43001970E+00  1.64584385E+00
  1.64590729E+00  1.70085257E+00  1.73809639E+00  1.98278376E+00  2.02854655E+00
  2.13915672E+00  2.14116537E+00  2.15721633E+00  2.37776346E+00  2.64565163E+00
  2.73015273E+00  2.82113360E+00  2.95167706E+00  3.05147205E+00  3.27431383E+00
  3.33952424E+00  4.10623485E+00  4.23270221E+00  4.54053068E+00
Alpha MO coefficients                      R   N=        2401
 -1.30202132E-05  3.73033673E-04  2.93859261E-04 -1.88472759E-04  7.34568758E-11
 -4.48513024E-04  2.24972898E-04  6.48711061E-04 -3.70597183E-11 -1.44397901E-04
 -5.35283782E-05 -5.25399825E-05  1.30125032E-05 -9.23105514E-11  1.44788358E-10
 -8.50944666E-05 -2.59172569E-04 -2.32857121E-04 -9.47803695E-05 -1.94210993E-05
  1.46734231E-05  4.53534029E-11  7.38837924E-04  1.67272008E-04  8.95921240E-05
 -3.11047529E-10 -1.19427527E-04 -3.31379722E-05 -6.79603968E-05  4.97491952E-05
 -9.10660737E-11 -5.47788589E-11  9.94635973E-01  2.11394748E-02 -1.45763554E-04
  1.31463037E-03 -2.14081284E-09  4.21259012E-03 -1.29226439E-04 -6.28256925E-04
  8.16964588E-10 -4.16447510E-03 -4.09026724E-03 -3.95650378E-03 -4.35561598E-05
  3.19393970E-11  4.00256094E-10  4.27247144E-04 -2.41684237E-04 -3.70505644E-07
  4.74376412E-04  1.07206985E-04  6.00866697E-05 -1.78175966E-10 -4.79370120E-04
  3.92070122E-04  2.91250136E-04 -1.08978610E-10 -6.86315175E-04 -2.16439270E-04
 -1.11812888E-05 -3.85486577E-04  4.72037508E-10  1.92401813E-10 -7.51059155E-06
 -1.24058400E-04  9.94699279E-01  2.09849968E-02  1.43836389E-03  7.84404383E-04
 -1.15119502E-09  4.51732103E-03  1.28180982E-05  5.61246424E-06  8.50633632E-11
 -3.62083943E-03 -3.80750036E-03 -4.14650056E-03  1.94171891E-04 -2.24956065E-10
  4.09574097E-11  2.00462574E-04 -5.73798203E-05  2.68340591E-05  4.58795889E-07
  9.52099804E-12  2.08853559E-04 -1.96995772E-05  7.05528488E-05 -1.47648437E-10
 -7.96285773E-05  2.79221256E-05 -8.00052372E-05 -5.80656740E-05  7.81478267E-11
 -1.44213633E-10 -1.54089359E-05 -8.98616645E-05  9.95774770E-01  2.57527090E-02
  6.22782995E-04 -7.26069246E-04  2.46248447E-10 -4.54443930E-03 -6.83584930E-04
 -2.35474242E-03 -2.35722512E-09 -7.71799671E-04 -1.49676658E-03 -2.55374661E-03
  1.58073339E-04  2.76411012E-10  8.78499605E-11 -1.41411560E-04  2.55104226E-03
 -3.58172559E-04  4.35126941E-04  3.33890714E-04  1.47295571E-04 -9.48824099E-11
 -1.92787595E-03 -1.37948627E-03 -2.82509404E-04  2.12348244E-09  1.58791659E-05
  9.98661540E-05  1.99605617E-04  9.15102923E-05  7.81685150E-10  1.39052130E-10
 -1.02141909E-04  5.52529309E-04 -1.05063091E-04  4.56845707E-05 -2.43086707E-10
 -1.41836074E-03  1.35120493E-03 -4.59505377E-04  1.89760291E-09 -5.53556589E-04
  6.56180293E-05  3.94969299E-04  4.19444738E-04 -9.50271616E-10  4.03484101E-10
  6.71475616E-05  2.53600485E-04 -1.11563635E-01  2.15570510E-01  1.04661541E-02
 -8.30919726E-02  9.26283199E-08  5.03860342E-02  6.69298167E-03  2.64387974E-02
 -7.63992653E-09  2.53817552E-02 -4.24885953E-03 -1.81413292E-02 -9.52500448E-04
  2.36116777E-09 -5.56155783E-09  2.96040832E-02 -1.05137656E-02 -1.00277279E-01
  2.21307140E-01  7.67083141E-02  3.28795738E-02 -2.28811208E-08  1.97310847E-01
  3.25142049E-02  9.11345638E-03 -9.95624595E-09  1.00940876E-02 -1.01189954E-03
 -4.80787715E-04  5.15546116E-03 -4.28763028E-09  1.89352712E-11 -1.66182030E-01
  3.76167881E-01 -3.95451175E-02  7.43735728E-02 -9.51355582E-08  3.45290575E-01
 -1.87056923E-02  4.16523363E-02 -6.27271440E-08  1.93082332E-02  1.29810840E-02
 -9.35028470E-04  7.89917789E-04 -3.91264061E-09 -2.65919869E-08  8.82870937E-02
 -7.37023766E-03 -5.50427854E-02  1.10531201E-01 -2.18447300E-01 -5.06410873E-02
  4.70125106E-08  3.40120553E-02  4.54687633E-03  1.10716912E-02  7.66384928E-09
  3.37328066E-03 -2.33427508E-03 -8.39239693E-03  3.27690915E-02 -3.01528220E-08
 -5.32370777E-09  9.45187407E-03 -9.39029673E-03 -1.70341924E-01  3.77904555E-01
  9.36294399E-02  6.11811072E-02 -4.80660630E-08  3.36255829E-01  3.26701831E-02
  2.19449976E-02 -2.44159098E-08  1.02568348E-02  4.05488447E-03 -1.51331718E-03
  9.18466803E-03 -1.00423871E-08 -6.98605110E-09  1.20369231E-01 -2.73380980E-01
 -1.63861614E-02 -5.50359361E-02  7.42693760E-08 -2.60965779E-01 -1.17765107E-02
 -3.37563804E-02  4.41425118E-08 -7.14726032E-03 -1.13779671E-02  4.00782536E-04
 -6.79439455E-03  1.25048214E-08  2.16769997E-08 -7.87639582E-02  4.39870068E-05
  1.41347707E-01 -3.07364185E-01 -1.34914683E-01 -1.07108105E-01 -2.70304308E-07
 -2.21579850E-01 -5.06544352E-02 -9.13739879E-02 -6.54529395E-08  1.93902921E-03
 -1.98118970E-02  1.35721021E-02  1.00481958E-02 -2.10215268E-08 -4.24693704E-08
 -1.72662697E-01 -5.23221582E-02 -7.47424985E-02  1.75358390E-01 -9.98100313E-02
 -6.74061098E-02 -5.94645926E-08  1.95337769E-01 -6.03774157E-02 -2.89625860E-02
 -1.06526110E-08 -2.24631656E-03  1.65664283E-03  2.05595637E-03 -6.86711937E-03
 -7.06018422E-09 -3.18599367E-09 -5.16713375E-02  1.21414048E-01  3.13914677E-01
 -7.92902464E-02 -1.23183688E-07  1.66807924E-01  1.82890079E-01 -3.16433187E-02
 -6.62478006E-08  2.11557376E-03  7.21145041E-04  2.62635495E-03  3.19168331E-02
 -4.55509278E-08 -1.12521646E-08  1.28578298E-01  4.41586001E-02 -2.53992637E-02
  4.73094191E-02 -9.73236569E-02  3.20618881E-01  1.50395608E-07  8.66947191E-02
  1.40649541E-02  8.77502240E-02  3.84117320E-08 -2.03695773E-03  8.43104330E-03
 -6.66862010E-04  1.90464882E-02 -1.26624418E-08  6.60068777E-08  1.74083735E-01
  1.05590580E-01 -2.70643748E-03 -1.02873510E-03 -9.29494570E-02  1.48278780E-01
  7.20721442E-08  3.10053866E-02 -4.49177369E-02  8.36264601E-02  2.78633751E-08
 -1.43150712E-02  8.24486526E-03 -1.90571596E-03  6.53256110E-03  1.35917087E-08
 -2.89445158E-09  2.76175295E-02 -6.51789447E-02  3.27070071E-01  1.92552459E-01
 -6.83472873E-08 -1.10218012E-01  1.90533832E-01  1.14265559E-01 -3.41937912E-08
 -5.11381922E-03  2.17041188E-02 -5.22376536E-03  2.54536771E-02 -4.86508700E-08
 -2.94806530E-08  1.83500233E-01  7.35242808E-02  3.56046916E-02 -9.79387810E-02
  3.29831891E-01  7.64693415E-02  7.02260390E-08 -5.01506697E-02  7.11267013E-02
  1.75068924E-02  2.45622975E-08  4.32010891E-03  3.30087625E-03  3.07358794E-03
 -1.84779993E-02  2.77324581E-08  2.22363915E-09  1.36670917E-02  2.11092465E-02
 -8.01151937E-02  1.76157827E-01 -3.67337229E-01 -2.67159242E-01  2.65656182E-07
  3.68002091E-01 -1.92916341E-01 -1.42914382E-01  1.45947698E-07 -2.03822450E-02
 -7.30411138E-03  4.12892354E-03 -2.07662435E-02  2.84803477E-08  2.19086001E-08
  2.67953488E-02 -6.43245718E-02 -1.51656367E-01  2.44366673E-01  3.21714386E-09
 -1.09921006E-01 -9.73977572E-02  1.60017524E-01  1.12953507E-08 -7.51756546E-03
  1.70292273E-02 -6.25098939E-03 -1.19211677E-02  1.44413660E-08 -2.10938214E-08
  3.11106858E-03 -2.47753532E-03  1.97302972E-07 -4.49769397E-07 -1.06398310E-07
  8.72073952E-07  2.75630693E-01 -7.32447594E-08 -1.99991158E-07  2.66269762E-08
  1.43933869E-01 -8.17368066E-08  8.22582711E-08  5.51532258E-08 -3.63812794E-08
  4.34882077E-03 -1.73843970E-02  5.33333206E-07  4.91527424E-07 -8.75449967E-08
  2.71655071E-07 -8.16768981E-07  2.80974896E-07  2.49679808E-01  9.85068060E-08
 -5.87790521E-07  1.46015781E-07  1.57389724E-01 -4.12562953E-08  7.12490240E-08
  8.89654995E-09  4.83461241E-10  2.08180573E-02  1.14650324E-02 -2.92307953E-07
  7.21184701E-07 -4.48126439E-08 -1.48530237E-06  4.79322999E-01  1.09872102E-06
  7.28610843E-08 -1.01567639E-06  3.42386643E-01  1.74129098E-08 -7.29636732E-08
 -4.20618998E-09 -1.98230161E-08 -1.01621023E-02  2.83429868E-02 -6.93838015E-07
 -3.69916261E-07 -1.63512627E-02  4.75604058E-02 -2.15711568E-02 -2.50376501E-01
  9.69825216E-07 -7.53716364E-02  3.89132444E-02 -4.37391728E-02  5.34866253E-07
  1.55902382E-02 -2.27301840E-02 -4.26742055E-03  1.72582538E-02  1.14430015E-08
 -1.11358394E-07 -1.38759511E-01 -1.22453110E-01  1.87891778E-02 -5.36719679E-02
  2.97955319E-01 -7.37826009E-02  8.71888351E-07 -4.27127866E-02  2.00989138E-01
 -4.26115819E-02  5.60865386E-07  2.01382893E-02 -1.63173750E-02 -6.60999732E-03
  2.37145590E-03  6.35542408E-08  4.58716549E-08  5.59263728E-02 -1.33266916E-01
  4.15487714E-02  4.50500097E-01  1.67710104E-06 -2.27856318E-01  1.41098731E-02
  3.19841698E-01  1.24354165E-06  5.42204397E-04  2.88425677E-02 -1.22145356E-02
  7.27855140E-03 -4.60940831E-08  5.31325384E-08  1.57297988E-01  8.66883193E-02
  3.55526877E-08 -8.31331281E-08  9.22122587E-08 -5.51030197E-08  1.88032382E-01
 -9.52467953E-08  1.65655132E-07 -1.10879459E-08  1.12326026E-01 -4.10951706E-08
  3.78142176E-08  7.69996864E-09 -7.83026505E-09 -4.65419648E-02 -7.58442717E-03
  1.38788290E-07  5.06688270E-08 -1.49112637E-08  3.69159206E-08  3.99973246E-07
 -1.50833865E-07  4.58815533E-01  1.06362264E-07  2.96650801E-07 -1.05763323E-07
  3.47175928E-01  3.85147185E-08 -8.61952060E-09 -3.54975046E-08  1.31950853E-09
  3.01246493E-02  1.80545039E-02  5.39783404E-08 -1.06610067E-07  8.41488053E-08
 -3.89381016E-07 -3.96464480E-01 -3.62836950E-07  6.54766719E-08 -3.71353356E-07
 -3.34495151E-01  1.41355041E-08 -2.86241871E-08  5.13463054E-08  1.01336884E-08
 -4.96011924E-04 -2.05957608E-02  1.47227065E-07  1.24449135E-07  1.21371164E-02
 -2.01540691E-02 -3.55609345E-04 -1.10412120E-01  1.40172257E-08 -1.12940010E-01
 -7.81653935E-02  2.71631473E-02  5.95179748E-08  4.55578104E-02 -5.13008041E-02
 -2.12398133E-03 -3.21643905E-02 -3.30362810E-08 -4.73844330E-08 -1.67836724E-01
 -2.15251870E-01 -7.35657936E-04  2.41286702E-03 -2.37712287E-01  5.18650961E-01
  4.16304617E-07 -7.57991882E-04 -1.73981652E-01  3.83862632E-01  3.22776116E-07
 -1.49378822E-02  1.82026020E-02 -1.12941693E-03  1.54622560E-02  2.44949869E-08
 -4.14158892E-09 -1.46516200E-02  1.86884087E-02 -1.69242081E-01  1.57089715E-01
 -1.64853767E-07  1.49611951E-01 -1.50769221E-01  1.51405289E-01 -1.92092814E-07
 -5.07053797E-03  5.36522550E-04 -7.52227441E-03 -1.02830190E-02  1.68867673E-08
 -2.38825220E-08 -2.11354790E-02 -3.24739255E-02  5.22365673E-07 -4.68412777E-07
 -2.84671614E-07 -9.62431591E-07  4.66386197E-01 -6.90208959E-06 -9.55399944E-07
 -3.13817423E-06  7.45593259E-01  1.05901012E-07  8.38512595E-08 -3.01692695E-08
 -2.89258109E-08  1.85776950E-02  2.72958836E-02  7.03724654E-07  6.25975559E-06
 -4.86450000E-08  2.38420623E-07  7.24271127E-08  3.90690861E-07 -3.55096010E-01
 -1.91530696E-07 -1.51111541E-07  7.70862634E-07 -5.07753033E-01  5.09770093E-08
  6.35161549E-08  5.23346744E-09  1.67330473E-08  4.27377127E-04  2.09608648E-03
 -3.26171150E-08  1.75730107E-07 -7.50052733E-07  1.47243768E-07 -2.12734037E-01
  7.53312806E-08 -9.47402914E-07  5.75633690E-07 -2.95531600E-01  4.96143128E-08
  6.46255339E-08  1.24423321E-08  8.93386006E-10 -1.81046717E-02  3.89954818E-03
  2.28886488E-07  1.15970817E-06  2.74239367E-02 -3.46260067E-02  3.18225939E-02
 -1.69160426E-01 -8.18693513E-07 -4.56709972E-01  1.58497999E-02 -4.12457448E-01
 -1.99582185E-06 -2.25346197E-03  6.39889669E-04  5.39274606E-03 -9.94194177E-04
 -2.59253840E-08 -7.19737425E-08 -2.23202518E-02  6.62750673E-01  3.85802184E-03
 -1.04169757E-02 -4.97014175E-02  8.23086215E-02  5.71303714E-07 -3.58003714E-02
 -8.29536885E-02  1.32860163E-01  1.01431934E-06 -2.13062300E-03  9.81362601E-04
 -1.23290507E-03 -2.78353117E-03  7.69671089E-09  2.35813777E-10  7.44760935E-02
 -5.01558129E-02 -1.91431267E-01 -1.55682736E-01  6.75640979E-07 -1.03934954E+00
 -3.89242183E-01 -3.31254800E-01  1.34184216E-06  4.57941390E-02  2.93692059E-02
  4.81229340E-02 -8.07436155E-03  4.60388345E-08  3.72076530E-08  8.97836964E-02
  1.46531399E+00  1.14147283E-01 -1.26895675E-01 -9.59849881E-02 -2.26211444E-01
 -1.88764643E-06 -1.92582210E+00 -2.79030168E-01 -7.16297999E-01 -4.55385728E-06
  8.69939242E-03  5.08662672E-03 -5.30494310E-03 -7.15189527E-03 -6.02045650E-08
 -8.45871401E-08  4.85270147E-02  2.01375104E+00 -1.55512366E-02  3.86656489E-02
  7.22178549E-02  5.05213507E-02  1.10491949E-06  1.09487512E-01  9.57068281E-02
  1.66615912E-01  2.03479923E-06  9.06766265E-03  4.68188360E-03 -7.68282652E-03
  4.12476791E-03 -3.23076288E-08 -4.46521875E-09 -5.52025846E-02  6.83640445E-02
 -4.66839654E-02  1.39301722E-01  4.94795714E-07  7.48656590E-01 -8.05215751E-02
  3.86910427E-01  8.40268207E-07 -1.68188827E-02 -4.76282175E-03 -2.68721602E-02
  5.99006959E-03  8.92590165E-08 -2.28151239E-08 -1.59791601E-02 -5.62271379E-01
  2.47759539E-02  5.19527897E-02  1.11396644E-01  5.06170360E-02 -4.89343906E-08
 -1.47108398E+00  2.34121723E+00  8.72545690E-01 -6.17988179E-07 -7.69714083E-03
 -2.30423792E-04 -5.38168370E-03  8.66055446E-03  2.24800244E-08  4.72251376E-09
  6.26813060E-02 -2.76605657E-01 -1.11587838E-01  3.11935079E-02  6.85907670E-02
  1.22906285E-01 -1.16969318E-07  2.50309279E+00  7.98916212E-01  5.81518069E-01
 -7.07067704E-07 -1.73980217E-02 -6.11039169E-02 -8.26438808E-02  4.26078757E-02
 -4.75574715E-08 -2.60806957E-08  7.80687625E-03  6.19650777E-02  3.89491860E-02
 -1.01619362E-01  9.32090359E-08 -5.27545544E-01  7.98500431E-02 -3.60823177E-01
  3.45555117E-07  1.65881734E-02  2.72845880E-02  2.35430554E-02 -9.51678075E-03
  2.36418509E-08 -5.23715503E-09 -6.99481687E-02 -2.81449094E-01 -7.20121343E-02
 -8.33943178E-02  2.21630574E-01 -3.22001221E-01 -4.29729728E-07  1.76974426E+00
  9.04944830E-01 -1.71706053E+00  1.32620050E-06  5.04153856E-03 -3.38826937E-02
  2.36873663E-02  2.22531249E-02 -2.05491176E-08  8.83324689E-08 -1.33979693E-01
  9.89338999E-01  3.93827813E-02 -4.20882637E-02 -1.28460861E-01  1.36583836E-01
 -7.32789204E-08 -7.20028044E-01 -6.11433118E-01  2.78597306E-01 -1.90409691E-07
 -1.25104948E-02 -8.19843676E-04  3.73436478E-02 -1.49312854E-02 -3.08425673E-08
  4.69627758E-08  7.65392908E-02 -1.17900516E-01  3.12752495E-01 -2.07703464E-02
 -1.68894503E-08 -1.26432133E+00  1.16423058E+00 -1.35723572E-01  2.04341515E-07
 -3.32051099E-03  8.75076648E-03  2.99934473E-02  1.74898765E-02  2.62982314E-08
  3.90541440E-08 -4.40334714E-02 -7.70628452E-01  5.23134654E-08  1.37570076E-06
 -7.47975448E-07  1.61158748E-06 -1.03660696E+00 -1.83886473E-06  1.69414737E-07
 -2.29289694E-06  1.23093874E+00  3.70035173E-07  2.60457101E-07  1.21213772E-08
 -1.19510233E-07 -8.61884238E-03  2.75412036E-02  5.49277033E-07 -1.35479400E-08
  4.06411506E-09  2.48710877E-07  2.95158027E-08 -3.34677753E-08 -3.14866634E-02
 -8.30168853E-07 -2.81427792E-07  1.02797585E-07 -1.35823491E-01 -1.33312060E-07
  1.67112531E-07  1.38040862E-07  1.93680007E-08 -7.34380748E-02 -3.51348236E-02
 -1.79775603E-08  2.40619760E-07 -7.24052886E-07  8.71408906E-08 -7.55982716E-02
 -9.51999066E-07  8.84524600E-08  2.06708049E-07 -1.40404799E-01 -2.03687062E-07
  9.28435911E-08  1.28671847E-07  1.57114777E-07  5.53316412E-02 -2.25306288E-02
  1.11971724E-07  7.94489944E-07  2.99664008E-02 -7.95117589E-01 -6.68057371E-01
  5.32888749E-01  8.84556130E-07  1.45802830E+00  9.62400334E-01 -1.12517884E+00
 -8.98226148E-07  5.31737551E-02 -6.30629191E-02 -6.06235049E-02 -4.95623037E-02
  7.83878058E-08 -3.92608124E-08 -5.65585280E-02  2.73938582E-01  1.01534215E-02
 -2.55064607E-02  4.15238335E-02  7.51998196E-02  1.07575760E-08 -2.74307110E-01
 -2.90696778E-01  4.98312875E-02  1.94924679E-07 -7.76497028E-02  3.96901142E-02
  1.45182449E-02  2.11830227E-02  7.43101100E-08  2.80269460E-08 -9.60973990E-03
  1.31670296E-01 -2.07173483E-01  1.73759965E-01 -8.46953120E-08 -9.02198535E-01
  2.35984617E-01 -2.61370705E-02  2.39607660E-07 -1.43848674E-01  5.79873522E-02
  9.65599425E-02  9.92437971E-02 -1.84045348E-07  8.86208511E-08  2.85178919E-02
 -2.88307604E-01 -2.51847993E-02 -7.30604618E-01 -5.16282993E-03 -2.97805074E-01
 -1.06964510E-06  1.55265294E+00  2.93516837E-02  1.41803345E+00  3.52586795E-06
 -2.82220952E-02 -1.93272745E-01  1.98008170E-02  2.83124249E-02 -8.61813030E-09
 -3.67945634E-07 -6.84158635E-01 -7.29568898E-01 -3.64642474E-03  2.58385775E-02
  1.87397509E-01 -2.14479828E-01 -9.00858210E-07  2.47126452E-02  4.47265084E-02
 -1.13948378E-01 -3.98421750E-07 -1.48028791E-02  6.93085935E-03  3.60691929E-02
  6.33748470E-03  5.74686357E-08 -7.77122141E-08 -1.86886514E-02  1.07181235E-01
  2.61030457E-02 -9.08642785E-02 -1.26168419E-06 -1.59478746E-02  7.49419503E-04
 -1.33872801E-03 -7.00177518E-08 -4.39278076E-02  3.82765456E-02  8.14260577E-02
 -7.67587626E-02 -4.34310655E-08  5.97885997E-09 -4.45553828E-01  1.92729447E-01
 -6.63932240E-02  3.23627292E-01 -7.65955787E-01 -5.61348339E-01 -1.54862021E-07
  2.30002761E-01  8.09629464E-01  1.00965563E+00  9.29866005E-07 -1.73947687E-01
  2.85188877E-02  8.43847595E-02 -1.20034518E-01  1.43060226E-07 -2.41530808E-08
 -2.02145318E-02 -6.17899477E-01  4.05063869E-02 -2.12614853E-01 -2.90451274E-01
 -1.70622716E-01 -1.63273583E-07  4.88313758E-01 -2.04666706E-01 -1.86837941E-01
  1.09020671E-07  1.20598661E-01 -4.22129832E-02 -9.00856881E-02  1.20955291E-01
 -1.38694778E-07 -1.25577610E-07  4.15020430E-03  9.67107734E-02  3.12613478E-02
 -1.73107889E-01 -1.47421617E-07 -2.09258068E-01 -2.61108786E-01 -4.45692054E-03
  1.11224129E-10  9.68737963E-02 -7.03532048E-03  3.85835210E-02  6.95179625E-02
 -1.16299086E-07 -8.70274901E-09  2.80054859E-01 -2.82425654E-01 -1.45543458E-02
 -1.09705552E+00  3.00716646E-01 -2.19584835E-01 -1.11626836E-06  1.34417197E+00
  4.78098478E-02  1.05619740E+00  1.73543057E-06 -2.12718368E-01  1.33654910E-02
 -6.77435976E-02  3.79155267E-02  2.20064638E-08 -1.37444016E-08  2.87641002E-01
 -1.28589535E+00 -2.76637111E-02  1.39609713E-01 -5.35853381E-02 -1.43759717E-02
 -4.63770820E-07  1.39198190E-01  5.43428464E-01  2.23386931E-01 -1.43034902E-07
  5.85023835E-02  5.64885207E-03  6.32524988E-02 -6.17314037E-02 -8.01163999E-09
 -7.24691325E-08  1.17821199E-02 -1.52233897E-01  5.16362782E-03 -3.55033790E-01
 -3.47872803E-08  2.40049014E-01 -3.90506793E-01  9.82917383E-02  9.08331037E-08
  3.52002993E-02 -1.83101655E-03 -7.36218672E-02  1.01789724E-01 -1.52609747E-07