7915                                                                    
Freq      RMP2-FC                                                     6-31G(d)            
Number of atoms                            I               17
Info1-9                                    I   N=           9
          29          27        1002           0           0         100
           6           2           1
Charge                                     I                0
Multiplicity                               I                1
Number of electrons                        I               56
Number of alpha electrons                  I               28
Number of beta electrons                   I               28
Number of basis functions                  I              125
Number of independent functions            I              125
Number of point charges in /Mol/           I                0
Number of translation vectors              I                0
Atomic numbers                             I   N=          17
           8           8           6           6           6           6
           6           1           1           1           1           1
           1           1           1           1           1
Nuclear charges                            R   N=          17
  8.00000000E+00  8.00000000E+00  6.00000000E+00  6.00000000E+00  6.00000000E+00
  6.00000000E+00  6.00000000E+00  1.00000000E+00  1.00000000E+00  1.00000000E+00
  1.00000000E+00  1.00000000E+00  1.00000000E+00  1.00000000E+00  1.00000000E+00
  1.00000000E+00  1.00000000E+00
Current cartesian coordinates              R   N=          51
 -2.03709691E-01 -1.06287031E+00  3.92955287E-01 -2.46066677E+00  2.09251091E+00
 -1.48163809E+00  2.13159072E+00  1.02432356E-01 -4.89926378E-01  2.86475726E+00
  2.21932486E+00  1.30013872E+00  4.04729701E+00 -2.02253917E+00 -5.91122605E-01
 -2.37436142E+00  1.47335277E-01 -2.45558374E-01 -4.62410260E+00 -1.25582291E+00
  7.86560753E-01  1.77509713E+00  8.65571950E-01 -2.37743414E+00  4.65714312E+00
  3.06514747E+00  7.09907159E-01  1.41832119E+00  3.68980919E+00  1.30312331E+00
  3.08614998E+00  1.47484516E+00  3.21543095E+00  5.86177800E+00 -1.30865597E+00
 -1.27722356E+00  3.40496465E+00 -3.52074594E+00 -1.85799438E+00  4.32382730E+00
 -2.82476197E+00  1.29266537E+00 -4.50154903E+00 -1.35011843E+00  2.84553790E+00
 -4.63383956E+00 -3.19159153E+00  6.96002379E-02 -6.34796685E+00 -2.81007220E-01
  2.25296927E-01
Force Field                                I                0
Int Atom Types                             I   N=          17
           0           0           0           0           0           0
           0           0           0           0           0           0
           0           0           0           0           0
MM charges                                 R   N=          17
  0.00000000E+00  0.00000000E+00  0.00000000E+00  0.00000000E+00  0.00000000E+00
  0.00000000E+00  0.00000000E+00  0.00000000E+00  0.00000000E+00  0.00000000E+00
  0.00000000E+00  0.00000000E+00  0.00000000E+00  0.00000000E+00  0.00000000E+00
  0.00000000E+00  0.00000000E+00
Integer atomic weights                     I   N=          17
          16          16          12          12          12          12
          12           1           1           1           1           1
           1           1           1           1           1
Real atomic weights                        R   N=          17
  1.59949146E+01  1.59949146E+01  1.20000000E+01  1.20000000E+01  1.20000000E+01
  1.20000000E+01  1.20000000E+01  1.00782504E+00  1.00782504E+00  1.00782504E+00
  1.00782504E+00  1.00782504E+00  1.00782504E+00  1.00782504E+00  1.00782504E+00
  1.00782504E+00  1.00782504E+00
Atom fragment info                         I   N=          17
           0           0           0           0           0           0
           0           0           0           0           0           0
           0           0           0           0           0
Atom residue num                           I   N=          17
           0           0           0           0           0           0
           0           0           0           0           0           0
           0           0           0           0           0
Nuclear spins                              I   N=          17
           0           0           0           0           0           0
           0           1           1           1           1           1
           1           1           1           1           1
Nuclear ZEff                               R   N=          17
 -5.60000000E+00 -5.60000000E+00 -3.60000000E+00 -3.60000000E+00 -3.60000000E+00
 -3.60000000E+00 -3.60000000E+00 -1.00000000E+00 -1.00000000E+00 -1.00000000E+00
 -1.00000000E+00 -1.00000000E+00 -1.00000000E+00 -1.00000000E+00 -1.00000000E+00
 -1.00000000E+00 -1.00000000E+00
Nuclear QMom                               R   N=          17
  0.00000000E+00  0.00000000E+00  0.00000000E+00  0.00000000E+00  0.00000000E+00
  0.00000000E+00  0.00000000E+00  0.00000000E+00  0.00000000E+00  0.00000000E+00
  0.00000000E+00  0.00000000E+00  0.00000000E+00  0.00000000E+00  0.00000000E+00
  0.00000000E+00  0.00000000E+00
Nuclear GFac                               R   N=          17
  0.00000000E+00  0.00000000E+00  0.00000000E+00  0.00000000E+00  0.00000000E+00
  0.00000000E+00  0.00000000E+00  2.79284600E+00  2.79284600E+00  2.79284600E+00
  2.79284600E+00  2.79284600E+00  2.79284600E+00  2.79284600E+00  2.79284600E+00
  2.79284600E+00  2.79284600E+00
MicOpt                                     I   N=          17
          -1          -1          -1          -1          -1          -1
          -1          -1          -1          -1          -1          -1
          -1          -1          -1          -1          -1
Number of contracted shells                I               48
Number of primitive shells                 I              117
Pure/Cartesian d shells                    I                1
Pure/Cartesian f shells                    I                0
Highest angular momentum                   I                2
Largest degree of contraction              I                6
Shell types                                I   N=          48
           0          -1          -1           2           0          -1
          -1           2           0          -1          -1           2
           0          -1          -1           2           0          -1
          -1           2           0          -1          -1           2
           0          -1          -1           2           0           0
           0           0           0           0           0           0
           0           0           0           0           0           0
           0           0           0           0           0           0
Number of primitives per shell             I   N=          48
           6           3           1           1           6           3
           1           1           6           3           1           1
           6           3           1           1           6           3
           1           1           6           3           1           1
           6           3           1           1           3           1
           3           1           3           1           3           1
           3           1           3           1           3           1
           3           1           3           1           3           1
Shell to atom map                          I   N=          48
           1           1           1           1           2           2
           2           2           3           3           3           3
           4           4           4           4           5           5
           5           5           6           6           6           6
           7           7           7           7           8           8
           9           9          10          10          11          11
          12          12          13          13          14          14
          15          15          16          16          17          17
Primitive exponents                        R   N=         117
  5.48467166E+03  8.25234946E+02  1.88046958E+02  5.29645000E+01  1.68975704E+01
  5.79963534E+00  1.55396162E+01  3.59993359E+00  1.01376175E+00  2.70005823E-01
  8.00000000E-01  5.48467166E+03  8.25234946E+02  1.88046958E+02  5.29645000E+01
  1.68975704E+01  5.79963534E+00  1.55396162E+01  3.59993359E+00  1.01376175E+00
  2.70005823E-01  8.00000000E-01  3.04752488E+03  4.57369518E+02  1.03948685E+02
  2.92101553E+01  9.28666296E+00  3.16392696E+00  7.86827235E+00  1.88128854E+00
  5.44249258E-01  1.68714478E-01  8.00000000E-01  3.04752488E+03  4.57369518E+02
  1.03948685E+02  2.92101553E+01  9.28666296E+00  3.16392696E+00  7.86827235E+00
  1.88128854E+00  5.44249258E-01  1.68714478E-01  8.00000000E-01  3.04752488E+03
  4.57369518E+02  1.03948685E+02  2.92101553E+01  9.28666296E+00  3.16392696E+00
  7.86827235E+00  1.88128854E+00  5.44249258E-01  1.68714478E-01  8.00000000E-01
  3.04752488E+03  4.57369518E+02  1.03948685E+02  2.92101553E+01  9.28666296E+00
  3.16392696E+00  7.86827235E+00  1.88128854E+00  5.44249258E-01  1.68714478E-01
  8.00000000E-01  3.04752488E+03  4.57369518E+02  1.03948685E+02  2.92101553E+01
  9.28666296E+00  3.16392696E+00  7.86827235E+00  1.88128854E+00  5.44249258E-01
  1.68714478E-01  8.00000000E-01  1.87311370E+01  2.82539436E+00  6.40121692E-01
  1.61277759E-01  1.87311370E+01  2.82539436E+00  6.40121692E-01  1.61277759E-01
  1.87311370E+01  2.82539436E+00  6.40121692E-01  1.61277759E-01  1.87311370E+01
  2.82539436E+00  6.40121692E-01  1.61277759E-01  1.87311370E+01  2.82539436E+00
  6.40121692E-01  1.61277759E-01  1.87311370E+01  2.82539436E+00  6.40121692E-01
  1.61277759E-01  1.87311370E+01  2.82539436E+00  6.40121692E-01  1.61277759E-01
  1.87311370E+01  2.82539436E+00  6.40121692E-01  1.61277759E-01  1.87311370E+01
  2.82539436E+00  6.40121692E-01  1.61277759E-01  1.87311370E+01  2.82539436E+00
  6.40121692E-01  1.61277759E-01
Contraction coefficients                   R   N=         117
  1.83107443E-03  1.39501722E-02  6.84450781E-02  2.32714336E-01  4.70192898E-01
  3.58520853E-01 -1.10777550E-01 -1.48026263E-01  1.13076702E+00  1.00000000E+00
  1.00000000E+00  1.83107443E-03  1.39501722E-02  6.84450781E-02  2.32714336E-01
  4.70192898E-01  3.58520853E-01 -1.10777550E-01 -1.48026263E-01  1.13076702E+00
  1.00000000E+00  1.00000000E+00  1.83473713E-03  1.40373228E-02  6.88426223E-02
  2.32184443E-01  4.67941348E-01  3.62311985E-01 -1.19332420E-01 -1.60854152E-01
  1.14345644E+00  1.00000000E+00  1.00000000E+00  1.83473713E-03  1.40373228E-02
  6.88426223E-02  2.32184443E-01  4.67941348E-01  3.62311985E-01 -1.19332420E-01
 -1.60854152E-01  1.14345644E+00  1.00000000E+00  1.00000000E+00  1.83473713E-03
  1.40373228E-02  6.88426223E-02  2.32184443E-01  4.67941348E-01  3.62311985E-01
 -1.19332420E-01 -1.60854152E-01  1.14345644E+00  1.00000000E+00  1.00000000E+00
  1.83473713E-03  1.40373228E-02  6.88426223E-02  2.32184443E-01  4.67941348E-01
  3.62311985E-01 -1.19332420E-01 -1.60854152E-01  1.14345644E+00  1.00000000E+00
  1.00000000E+00  1.83473713E-03  1.40373228E-02  6.88426223E-02  2.32184443E-01
  4.67941348E-01  3.62311985E-01 -1.19332420E-01 -1.60854152E-01  1.14345644E+00
  1.00000000E+00  1.00000000E+00  3.34946043E-02  2.34726953E-01  8.13757326E-01
  1.00000000E+00  3.34946043E-02  2.34726953E-01  8.13757326E-01  1.00000000E+00
  3.34946043E-02  2.34726953E-01  8.13757326E-01  1.00000000E+00  3.34946043E-02
  2.34726953E-01  8.13757326E-01  1.00000000E+00  3.34946043E-02  2.34726953E-01
  8.13757326E-01  1.00000000E+00  3.34946043E-02  2.34726953E-01  8.13757326E-01
  1.00000000E+00  3.34946043E-02  2.34726953E-01  8.13757326E-01  1.00000000E+00
  3.34946043E-02  2.34726953E-01  8.13757326E-01  1.00000000E+00  3.34946043E-02
  2.34726953E-01  8.13757326E-01  1.00000000E+00  3.34946043E-02  2.34726953E-01
  8.13757326E-01  1.00000000E+00
P(S=P) Contraction coefficients            R   N=         117
  0.00000000E+00  0.00000000E+00  0.00000000E+00  0.00000000E+00  0.00000000E+00
  0.00000000E+00  7.08742682E-02  3.39752839E-01  7.27158577E-01  1.00000000E+00
  0.00000000E+00  0.00000000E+00  0.00000000E+00  0.00000000E+00  0.00000000E+00
  0.00000000E+00  0.00000000E+00  7.08742682E-02  3.39752839E-01  7.27158577E-01
  1.00000000E+00  0.00000000E+00  0.00000000E+00  0.00000000E+00  0.00000000E+00
  0.00000000E+00  0.00000000E+00  0.00000000E+00  6.89990666E-02  3.16423961E-01
  7.44308291E-01  1.00000000E+00  0.00000000E+00  0.00000000E+00  0.00000000E+00
  0.00000000E+00  0.00000000E+00  0.00000000E+00  0.00000000E+00  6.89990666E-02
  3.16423961E-01  7.44308291E-01  1.00000000E+00  0.00000000E+00  0.00000000E+00
  0.00000000E+00  0.00000000E+00  0.00000000E+00  0.00000000E+00  0.00000000E+00
  6.89990666E-02  3.16423961E-01  7.44308291E-01  1.00000000E+00  0.00000000E+00
  0.00000000E+00  0.00000000E+00  0.00000000E+00  0.00000000E+00  0.00000000E+00
  0.00000000E+00  6.89990666E-02  3.16423961E-01  7.44308291E-01  1.00000000E+00
  0.00000000E+00  0.00000000E+00  0.00000000E+00  0.00000000E+00  0.00000000E+00
  0.00000000E+00  0.00000000E+00  6.89990666E-02  3.16423961E-01  7.44308291E-01
  1.00000000E+00  0.00000000E+00  0.00000000E+00  0.00000000E+00  0.00000000E+00
  0.00000000E+00  0.00000000E+00  0.00000000E+00  0.00000000E+00  0.00000000E+00
  0.00000000E+00  0.00000000E+00  0.00000000E+00  0.00000000E+00  0.00000000E+00
  0.00000000E+00  0.00000000E+00  0.00000000E+00  0.00000000E+00  0.00000000E+00
  0.00000000E+00  0.00000000E+00  0.00000000E+00  0.00000000E+00  0.00000000E+00
  0.00000000E+00  0.00000000E+00  0.00000000E+00  0.00000000E+00  0.00000000E+00
  0.00000000E+00  0.00000000E+00  0.00000000E+00  0.00000000E+00  0.00000000E+00
  0.00000000E+00  0.00000000E+00  0.00000000E+00  0.00000000E+00  0.00000000E+00
  0.00000000E+00  0.00000000E+00
Coordinates of each shell                  R   N=         144
 -2.03709691E-01 -1.06287031E+00  3.92955287E-01 -2.03709691E-01 -1.06287031E+00
  3.92955287E-01 -2.03709691E-01 -1.06287031E+00  3.92955287E-01 -2.03709691E-01
 -1.06287031E+00  3.92955287E-01 -2.46066677E+00  2.09251091E+00 -1.48163809E+00
 -2.46066677E+00  2.09251091E+00 -1.48163809E+00 -2.46066677E+00  2.09251091E+00
 -1.48163809E+00 -2.46066677E+00  2.09251091E+00 -1.48163809E+00  2.13159072E+00
  1.02432356E-01 -4.89926378E-01  2.13159072E+00  1.02432356E-01 -4.89926378E-01
  2.13159072E+00  1.02432356E-01 -4.89926378E-01  2.13159072E+00  1.02432356E-01
 -4.89926378E-01  2.86475726E+00  2.21932486E+00  1.30013872E+00  2.86475726E+00
  2.21932486E+00  1.30013872E+00  2.86475726E+00  2.21932486E+00  1.30013872E+00
  2.86475726E+00  2.21932486E+00  1.30013872E+00  4.04729701E+00 -2.02253917E+00
 -5.91122605E-01  4.04729701E+00 -2.02253917E+00 -5.91122605E-01  4.04729701E+00
 -2.02253917E+00 -5.91122605E-01  4.04729701E+00 -2.02253917E+00 -5.91122605E-01
 -2.37436142E+00  1.47335277E-01 -2.45558374E-01 -2.37436142E+00  1.47335277E-01
 -2.45558374E-01 -2.37436142E+00  1.47335277E-01 -2.45558374E-01 -2.37436142E+00
  1.47335277E-01 -2.45558374E-01 -4.62410260E+00 -1.25582291E+00  7.86560753E-01
 -4.62410260E+00 -1.25582291E+00  7.86560753E-01 -4.62410260E+00 -1.25582291E+00
  7.86560753E-01 -4.62410260E+00 -1.25582291E+00  7.86560753E-01  1.77509713E+00
  8.65571950E-01 -2.37743414E+00  1.77509713E+00  8.65571950E-01 -2.37743414E+00
  4.65714312E+00  3.06514747E+00  7.09907159E-01  4.65714312E+00  3.06514747E+00
  7.09907159E-01  1.41832119E+00  3.68980919E+00  1.30312331E+00  1.41832119E+00
  3.68980919E+00  1.30312331E+00  3.08614998E+00  1.47484516E+00  3.21543095E+00
  3.08614998E+00  1.47484516E+00  3.21543095E+00  5.86177800E+00 -1.30865597E+00
 -1.27722356E+00  5.86177800E+00 -1.30865597E+00 -1.27722356E+00  3.40496465E+00
 -3.52074594E+00 -1.85799438E+00  3.40496465E+00 -3.52074594E+00 -1.85799438E+00
  4.32382730E+00 -2.82476197E+00  1.29266537E+00  4.32382730E+00 -2.82476197E+00
  1.29266537E+00 -4.50154903E+00 -1.35011843E+00  2.84553790E+00 -4.50154903E+00
 -1.35011843E+00  2.84553790E+00 -4.63383956E+00 -3.19159153E+00  6.96002379E-02
 -4.63383956E+00 -3.19159153E+00  6.96002379E-02 -6.34796685E+00 -2.81007220E-01
  2.25296927E-01 -6.34796685E+00 -2.81007220E-01  2.25296927E-01
Constraint Structure                       R   N=          51
 -2.03709691E-01 -1.06287031E+00  3.92955287E-01 -2.46066677E+00  2.09251091E+00
 -1.48163809E+00  2.13159072E+00  1.02432356E-01 -4.89926378E-01  2.86475726E+00
  2.21932486E+00  1.30013872E+00  4.04729701E+00 -2.02253917E+00 -5.91122605E-01
 -2.37436142E+00  1.47335277E-01 -2.45558374E-01 -4.62410260E+00 -1.25582291E+00
  7.86560753E-01  1.77509713E+00  8.65571950E-01 -2.37743414E+00  4.65714312E+00
  3.06514747E+00  7.09907159E-01  1.41832119E+00  3.68980919E+00  1.30312331E+00
  3.08614998E+00  1.47484516E+00  3.21543095E+00  5.86177800E+00 -1.30865597E+00
 -1.27722356E+00  3.40496465E+00 -3.52074594E+00 -1.85799438E+00  4.32382730E+00
 -2.82476197E+00  1.29266537E+00 -4.50154903E+00 -1.35011843E+00  2.84553790E+00
 -4.63383956E+00 -3.19159153E+00  6.96002379E-02 -6.34796685E+00 -2.81007220E-01
  2.25296927E-01
Num ILSW                                   I              100
ILSW                                       I   N=         100
           0           1           0           0           2           0
           0           0           0           0           0          -1
           0           0           0           0           0           0
           0           0           0           0           1           0
           1           0           0           0           0           0
           0           0      100000           0          -1           0
           0           0           0           0           0           0
           0           0           0           1           1           0
           0           0           1           0           0           0
           0           0           4          40           0           0
           0           0           0           0           0           0
           0           0           0           0           0           0
           0           0           0           0           0           0
           0           0           0           0           0           0
           0           0           0           0           0           0
           0           0           0           0           0           0
           0           0           0           0
Num RLSW                                   I               40
RLSW                                       R   N=          40
  1.00000000E+00  1.00000000E+00  1.00000000E+00  1.00000000E+00  1.00000000E+00
  0.00000000E+00  0.00000000E+00  1.00000000E+00  0.00000000E+00  0.00000000E+00
  0.00000000E+00  0.00000000E+00  1.00000000E+00  0.00000000E+00  0.00000000E+00
  0.00000000E+00  0.00000000E+00  1.00000000E+00  0.00000000E+00  0.00000000E+00
  0.00000000E+00  0.00000000E+00  1.00000000E+00  0.00000000E+00  0.00000000E+00
  0.00000000E+00  0.00000000E+00  1.00000000E+00  0.00000000E+00  0.00000000E+00
  0.00000000E+00  0.00000000E+00  0.00000000E+00  0.00000000E+00  0.00000000E+00
  0.00000000E+00  0.00000000E+00  0.00000000E+00  1.00000000E+00  1.00000000E+00
MxBond                                     I                4
NBond                                      I   N=          17
           2           1           4           4           4           3
           4           1           1           1           1           1
           1           1           1           1           1
IBond                                      I   N=          68
           3           6           0           0           6           0
           0           0           1           4           5           8
           3           9          10          11           3          12
          13          14           1           2           7           0
           6          15          16          17           3           0
           0           0           4           0           0           0
           4           0           0           0           4           0
           0           0           5           0           0           0
           5           0           0           0           5           0
           0           0           7           0           0           0
           7           0           0           0           7           0
           0           0
RBond                                      R   N=          68
  1.00000000E+00  1.50000000E+00  0.00000000E+00  0.00000000E+00  2.00000000E+00
  0.00000000E+00  0.00000000E+00  0.00000000E+00  1.00000000E+00  1.00000000E+00
  1.00000000E+00  1.00000000E+00  1.00000000E+00  1.00000000E+00  1.00000000E+00
  1.00000000E+00  1.00000000E+00  1.00000000E+00  1.00000000E+00  1.00000000E+00
  1.50000000E+00  2.00000000E+00  1.00000000E+00  0.00000000E+00  1.00000000E+00
  1.00000000E+00  1.00000000E+00  1.00000000E+00  1.00000000E+00  0.00000000E+00
  0.00000000E+00  0.00000000E+00  1.00000000E+00  0.00000000E+00  0.00000000E+00
  0.00000000E+00  1.00000000E+00  0.00000000E+00  0.00000000E+00  0.00000000E+00
  1.00000000E+00  0.00000000E+00  0.00000000E+00  0.00000000E+00  1.00000000E+00
  0.00000000E+00  0.00000000E+00  0.00000000E+00  1.00000000E+00  0.00000000E+00
  0.00000000E+00  0.00000000E+00  1.00000000E+00  0.00000000E+00  0.00000000E+00
  0.00000000E+00  1.00000000E+00  0.00000000E+00  0.00000000E+00  0.00000000E+00
  1.00000000E+00  0.00000000E+00  0.00000000E+00  0.00000000E+00  1.00000000E+00
  0.00000000E+00  0.00000000E+00  0.00000000E+00
Virial Ratio                               R      2.002408112315257E+00
SCF Energy                                 R     -3.449108186120450E+02
MP2 Energy                                 R     -3.459164536079265E+02
Total Energy                               R     -3.459164536079265E+02
Post-SCF wavefunction norm                 R      1.621527937719760E+00
RMS Force                                  R      2.035275539007957E-07
RMS Density                                R      1.379226740190614E-09
External E-field                           R   N=          35
  0.00000000E+00  0.00000000E+00  0.00000000E+00  0.00000000E+00  0.00000000E+00
  0.00000000E+00  0.00000000E+00  0.00000000E+00  0.00000000E+00  0.00000000E+00
  0.00000000E+00  0.00000000E+00  0.00000000E+00  0.00000000E+00  0.00000000E+00
  0.00000000E+00  0.00000000E+00  0.00000000E+00  0.00000000E+00  0.00000000E+00
  0.00000000E+00  0.00000000E+00  0.00000000E+00  0.00000000E+00  0.00000000E+00
  0.00000000E+00  0.00000000E+00  0.00000000E+00  0.00000000E+00  0.00000000E+00
  0.00000000E+00  0.00000000E+00  0.00000000E+00  0.00000000E+00  0.00000000E+00
IOpCl                                      I                0
IROHF                                      I                0
Alpha Orbital Energies                     R   N=         125
 -2.06013949E+01 -2.05491486E+01 -1.13841182E+01 -1.12910769E+01 -1.12397361E+01
 -1.12222262E+01 -1.12178084E+01 -1.44568679E+00 -1.34714873E+00 -1.07456316E+00
 -1.00533735E+00 -9.44889083E-01 -8.35307989E-01 -7.62264618E-01 -6.88503466E-01
 -6.61747860E-01 -6.51010971E-01 -6.10041056E-01 -5.84222504E-01 -5.77697146E-01
 -5.60202261E-01 -5.48034224E-01 -5.32638849E-01 -5.16060591E-01 -4.99077694E-01
 -4.80984536E-01 -4.47323466E-01 -4.37073672E-01  1.84648896E-01  2.34064913E-01
  2.55964867E-01  2.79015895E-01  2.88098161E-01  3.00641047E-01  3.08880625E-01
  3.21793372E-01  3.31761662E-01  3.44386022E-01  3.49026648E-01  3.72204932E-01
  3.89686675E-01  4.17215998E-01  4.36234549E-01  4.93453046E-01  5.39119678E-01
  6.93812479E-01  7.13950453E-01  7.33835258E-01  7.56010873E-01  7.67102718E-01
  7.82009089E-01  8.14285500E-01  8.25202160E-01  8.75554563E-01  9.16627971E-01
  9.26045603E-01  9.42876031E-01  9.82662163E-01  9.85571964E-01  1.01409658E+00
  1.08553979E+00  1.09629833E+00  1.12435729E+00  1.14975854E+00  1.15780961E+00
  1.16175850E+00  1.17458575E+00  1.18590422E+00  1.19807999E+00  1.21029674E+00
  1.21467053E+00  1.24523645E+00  1.24632661E+00  1.31987853E+00  1.36757577E+00
  1.38850514E+00  1.42654822E+00  1.44593520E+00  1.60803596E+00  1.63959355E+00
  1.68403687E+00  1.71641128E+00  1.75381824E+00  1.78937579E+00  1.81469699E+00
  1.97168631E+00  1.98271564E+00  2.03071552E+00  2.07491869E+00  2.10012304E+00
  2.10959654E+00  2.13631576E+00  2.17411492E+00  2.21424635E+00  2.27899358E+00
  2.28359023E+00  2.31431241E+00  2.33519434E+00  2.40562519E+00  2.45121885E+00
  2.47570193E+00  2.50520797E+00  2.55273003E+00  2.57341418E+00  2.58852951E+00
  2.59330100E+00  2.71993081E+00  2.75355785E+00  2.79359034E+00  2.83799255E+00
  2.87214100E+00  3.01062106E+00  3.02278599E+00  3.08218109E+00  3.12168944E+00
  3.31767679E+00  3.39918747E+00  3.49024609E+00  4.41094441E+00  4.49917967E+00
  4.58850674E+00  4.63149677E+00  4.72297412E+00  4.86082225E+00  4.97640187E+00
Alpha MO coefficients                      R   N=       15625
  9.94652928E-01  2.12540501E-02 -1.43712170E-04  1.00851074E-03 -6.22502563E-04
  3.63393309E-03 -6.98778899E-05 -6.78963620E-04  4.08836625E-04 -4.19198294E-03
 -4.01237210E-03 -3.95707611E-03 -2.87873627E-05  3.25053301E-05  8.69929697E-05
 -3.02117537E-04  5.34068035E-05 -2.36388662E-05  2.26014163E-05 -1.14801480E-05
 -3.77137706E-04 -9.07446704E-05  9.47197037E-05 -6.81225610E-05  2.16152226E-05
  2.28284488E-06  1.60017745E-05  6.09763818E-05 -3.89326749E-05  1.36886527E-05
 -2.97003039E-05  6.67943218E-05 -2.97229773E-04 -1.67275989E-04  1.27633186E-04
  5.82894785E-04 -1.27940155E-04  8.22159210E-05 -7.64865459E-06  1.20927880E-04
 -4.00982842E-06 -2.63449798E-05  8.26048526E-05 -7.07876604E-05 -1.91705966E-05
  3.05895798E-06  5.78838129E-05  1.25489991E-05  2.09059932E-05  8.67987020E-06
 -1.68401839E-04  1.34606463E-04  8.10539284E-05  8.11138238E-05 -2.96845419E-05
 -2.89322088E-05 -1.45563962E-05 -2.97752092E-05 -1.92569884E-05 -7.73168015E-06
  1.01516827E-05  9.10330323E-05 -1.67071760E-05 -1.69039325E-05  1.11712999E-05
 -1.56107523E-04  3.14181109E-04  4.48977657E-05 -9.28868128E-05 -4.79119682E-05
  1.06490205E-05 -6.44568511E-06  2.51465852E-05  7.69005689E-06 -6.48893299E-06
  2.75827301E-06  3.74016080E-04  3.11417158E-04 -1.52987890E-04  7.14194403E-05
  1.42185009E-04  8.23197923E-05  2.52502388E-04 -1.28733469E-04 -1.89079335E-05
 -1.11279000E-05 -3.12384174E-05  3.37966107E-05 -2.27717183E-05 -2.82990998E-05
  5.55650932E-06  7.66652715E-05  8.31024313E-06 -1.37465983E-05  1.17986104E-05
  6.62609955E-05 -2.24112573E-04  7.53768329E-05 -6.35930382E-05 -7.72989806E-05
  3.25111604E-06 -6.36705340E-06 -1.82590913E-05  1.47199450E-05 -1.04812713E-05
 -6.25929809E-05 -1.36070409E-04  1.47335781E-06 -3.27101124E-05  1.76140344E-05
  8.31734425E-06  2.56968821E-05 -6.20351189E-05 -1.34434335E-05 -1.51391492E-04
  4.43028729E-05  1.32457097E-05  5.34933767E-05 -9.84475301E-06  4.09454359E-05
 -1.27806927E-05  3.89941015E-05 -3.32298269E-05 -1.42713047E-05 -1.59584850E-04
  3.12506527E-04 -2.46059778E-05  1.25318838E-05 -2.72353678E-05  1.43882988E-05
  6.10407524E-05 -6.54023082E-05  3.52622986E-05 -4.34977633E-06  9.16395439E-05
 -7.35662752E-05 -6.06535020E-05  2.12491048E-05 -2.00883152E-05  1.64469041E-05
  9.94692314E-01  2.10025860E-02  9.19470642E-05 -1.32094657E-03  8.32759570E-04
  4.39055730E-03  1.54191455E-05  5.96173336E-05 -3.27568215E-05 -3.90251485E-03
 -3.75436383E-03 -3.97830854E-03 -1.00190521E-05 -5.71645994E-06 -2.77280229E-04
 -5.74119789E-06 -8.80802487E-07 -1.87571805E-07  1.81711681E-05  2.84537997E-06
  2.01288177E-04  1.02098908E-04 -6.34694824E-05 -5.06653125E-05 -3.27746515E-05
 -1.95427349E-05 -1.72364731E-05 -1.22449251E-05  8.68684546E-06  1.09981229E-05
 -1.79332853E-06 -1.29895593E-05 -3.66980002E-06 -8.07698595E-06 -5.87103351E-06
  9.05447945E-05 -4.38808208E-05  6.57077962E-05  2.34664504E-05  3.63999048E-06
 -5.52520560E-06 -5.86928282E-07  2.80802606E-06  2.77740573E-06 -6.43282962E-06
  7.42026575E-07  5.77244940E-06  7.55677563E-06 -7.04039625E-06  1.02310984E-07
 -1.27750989E-04  1.81382917E-05 -4.20557963E-05  1.17288523E-05  2.36074962E-07
 -4.42824253E-06  1.19610055E-06  7.91320823E-07 -2.36647259E-06  2.60653646E-06
 -3.50831287E-06  4.96766385E-04 -1.54111180E-05 -4.34327919E-05  2.54816274E-05
 -3.15856006E-04 -1.10076409E-05 -3.28930415E-04  2.15337304E-04 -6.52149719E-05
 -5.86818577E-04 -2.58415466E-04  4.07480372E-05 -2.52308272E-05  4.02235888E-04
  4.37585757E-07 -3.89971498E-07  2.23277210E-05 -1.65997210E-05  1.01564182E-05
 -3.21706871E-05 -9.71079738E-05 -1.26469924E-05  7.77217233E-06  5.62550957E-05
 -4.12031158E-05 -2.43215145E-05 -9.64441790E-06  8.66408472E-07  2.25469980E-05
  1.47557823E-05 -1.24023303E-04 -5.77368792E-06  6.07014514E-07  2.27886849E-05
 -1.40524353E-04 -5.47830864E-06 -2.90269653E-06  4.44278678E-06  1.46491527E-05
  2.44560567E-06  5.55284707E-06 -3.59395349E-07  6.51416169E-06  1.15885042E-05
 -2.72138437E-05  1.03993707E-05 -3.06747280E-05  4.39556016E-06 -6.78301620E-05
 -7.84216074E-05  7.14835906E-04 -1.11149742E-04  1.98812417E-04 -1.07402759E-04
 -1.82298266E-03  8.92183912E-04 -1.53112488E-03  9.31067318E-04 -3.98308811E-04
  7.67920360E-05  3.64577372E-04  4.02657565E-04 -1.92147417E-04  3.24634722E-04
 -2.82186983E-04  5.97341497E-04  7.94862672E-05 -2.41687371E-04  1.56660092E-04
 -2.81148600E-03 -7.46294915E-04  1.37209111E-03 -8.47730955E-04  1.51932490E-04
  1.33494038E-04  2.97737567E-04  1.34468152E-04 -7.38878820E-05  1.86374933E-04
 -6.97043761E-05 -1.65593888E-04 -5.01928755E-05 -8.05489421E-05  7.81031966E-05
  3.92796894E-04 -8.72185995E-04  1.24585963E-05 -5.99281397E-04  2.56640484E-04
 -1.17856456E-05  2.11853319E-05  3.51582319E-05 -3.68836933E-05 -2.31350373E-05