12888062                                                                
Freq      RMP2-FC                                                     6-31G(d)            
Number of atoms                            I               26
Info1-9                                    I   N=           9
          38          36        1002           0           0         100
           6           2           1
Charge                                     I                0
Multiplicity                               I                1
Number of electrons                        I               98
Number of alpha electrons                  I               49
Number of beta electrons                   I               49
Number of basis functions                  I              234
Number of independent functions            I              234
Number of point charges in /Mol/           I                0
Number of translation vectors              I                0
Atomic numbers                             I   N=          26
           7           7           6           6           6           6
           6           6           6           6           6           6
           6           6           1           1           1           1
           1           1           1           1           1           1
           1           1
Nuclear charges                            R   N=          26
  7.00000000E+00  7.00000000E+00  6.00000000E+00  6.00000000E+00  6.00000000E+00
  6.00000000E+00  6.00000000E+00  6.00000000E+00  6.00000000E+00  6.00000000E+00
  6.00000000E+00  6.00000000E+00  6.00000000E+00  6.00000000E+00  1.00000000E+00
  1.00000000E+00  1.00000000E+00  1.00000000E+00  1.00000000E+00  1.00000000E+00
  1.00000000E+00  1.00000000E+00  1.00000000E+00  1.00000000E+00  1.00000000E+00
  1.00000000E+00
Current cartesian coordinates              R   N=          78
 -9.28621449E-01  2.02649721E+00 -5.97941764E-01  1.90597088E+00 -1.35761559E+00
 -2.52272152E-02 -3.23148186E+00  7.52633729E-01 -2.34926189E-01  1.52107914E+00
  1.13032706E+00 -2.93116613E-01  6.43003068E+00 -6.00908894E-01  2.12374815E-01
  3.53167170E+00  2.88182830E+00 -3.41218038E-01  5.97940913E+00  1.99746048E+00
 -8.22816681E-02 -5.32667472E+00  2.21538989E+00  4.87069798E-01 -3.56523348E+00
 -1.83541854E+00 -7.18353881E-01  4.30928455E+00 -2.16014811E+00  2.21051037E-01
  9.05765214E+00 -1.64441327E+00  4.95300131E-01 -7.70155090E+00  1.11682544E+00
  7.65109918E-01 -5.94946706E+00 -2.91552583E+00 -3.97002914E-01 -8.02999140E+00
 -1.46392952E+00  3.25149153E-01 -1.07395397E+00  3.93196058E+00 -4.54395118E-01
  3.16158492E+00  4.89173977E+00 -5.71817046E-01  7.55305949E+00  3.32403304E+00
 -1.06706906E-01 -5.07919213E+00  4.22459357E+00  8.65147729E-01 -1.96449108E+00
 -2.97407377E+00 -1.28174262E+00  4.52826690E+00 -4.19748719E+00  4.40935830E-01
  1.02225389E+01 -1.20319471E+00 -1.15647428E+00  1.00035056E+01 -8.53788719E-01
  2.15665041E+00  9.01141470E+00 -3.69923176E+00  7.09069910E-01 -9.29454792E+00
  2.28571294E+00  1.33079945E+00 -6.18074329E+00 -4.92558474E+00 -7.59908943E-01
 -9.87725565E+00 -2.33157473E+00  5.55691141E-01
Force Field                                I                0
Int Atom Types                             I   N=          26
           0           0           0           0           0           0
           0           0           0           0           0           0
           0           0           0           0           0           0
           0           0           0           0           0           0
           0           0
MM charges                                 R   N=          26
  0.00000000E+00  0.00000000E+00  0.00000000E+00  0.00000000E+00  0.00000000E+00
  0.00000000E+00  0.00000000E+00  0.00000000E+00  0.00000000E+00  0.00000000E+00
  0.00000000E+00  0.00000000E+00  0.00000000E+00  0.00000000E+00  0.00000000E+00
  0.00000000E+00  0.00000000E+00  0.00000000E+00  0.00000000E+00  0.00000000E+00
  0.00000000E+00  0.00000000E+00  0.00000000E+00  0.00000000E+00  0.00000000E+00
  0.00000000E+00
Integer atomic weights                     I   N=          26
          14          14          12          12          12          12
          12          12          12          12          12          12
          12          12           1           1           1           1
           1           1           1           1           1           1
           1           1
Real atomic weights                        R   N=          26
  1.40030740E+01  1.40030740E+01  1.20000000E+01  1.20000000E+01  1.20000000E+01
  1.20000000E+01  1.20000000E+01  1.20000000E+01  1.20000000E+01  1.20000000E+01
  1.20000000E+01  1.20000000E+01  1.20000000E+01  1.20000000E+01  1.00782504E+00
  1.00782504E+00  1.00782504E+00  1.00782504E+00  1.00782504E+00  1.00782504E+00
  1.00782504E+00  1.00782504E+00  1.00782504E+00  1.00782504E+00  1.00782504E+00
  1.00782504E+00
Atom fragment info                         I   N=          26
           0           0           0           0           0           0
           0           0           0           0           0           0
           0           0           0           0           0           0
           0           0           0           0           0           0
           0           0
Atom residue num                           I   N=          26
           0           0           0           0           0           0
           0           0           0           0           0           0
           0           0           0           0           0           0
           0           0           0           0           0           0
           0           0
Nuclear spins                              I   N=          26
           2           2           0           0           0           0
           0           0           0           0           0           0
           0           0           1           1           1           1
           1           1           1           1           1           1
           1           1
Nuclear ZEff                               R   N=          26
 -4.55000000E+00 -4.55000000E+00 -3.60000000E+00 -3.60000000E+00 -3.60000000E+00
 -3.60000000E+00 -3.60000000E+00 -3.60000000E+00 -3.60000000E+00 -3.60000000E+00
 -3.60000000E+00 -3.60000000E+00 -3.60000000E+00 -3.60000000E+00 -1.00000000E+00
 -1.00000000E+00 -1.00000000E+00 -1.00000000E+00 -1.00000000E+00 -1.00000000E+00
 -1.00000000E+00 -1.00000000E+00 -1.00000000E+00 -1.00000000E+00 -1.00000000E+00
 -1.00000000E+00
Nuclear QMom                               R   N=          26
  2.04400000E+00  2.04400000E+00  0.00000000E+00  0.00000000E+00  0.00000000E+00
  0.00000000E+00  0.00000000E+00  0.00000000E+00  0.00000000E+00  0.00000000E+00
  0.00000000E+00  0.00000000E+00  0.00000000E+00  0.00000000E+00  0.00000000E+00
  0.00000000E+00  0.00000000E+00  0.00000000E+00  0.00000000E+00  0.00000000E+00
  0.00000000E+00  0.00000000E+00  0.00000000E+00  0.00000000E+00  0.00000000E+00
  0.00000000E+00
Nuclear GFac                               R   N=          26
  4.03761000E-01  4.03761000E-01  0.00000000E+00  0.00000000E+00  0.00000000E+00
  0.00000000E+00  0.00000000E+00  0.00000000E+00  0.00000000E+00  0.00000000E+00
  0.00000000E+00  0.00000000E+00  0.00000000E+00  0.00000000E+00  2.79284600E+00
  2.79284600E+00  2.79284600E+00  2.79284600E+00  2.79284600E+00  2.79284600E+00
  2.79284600E+00  2.79284600E+00  2.79284600E+00  2.79284600E+00  2.79284600E+00
  2.79284600E+00
MicOpt                                     I   N=          26
          -1          -1          -1          -1          -1          -1
          -1          -1          -1          -1          -1          -1
          -1          -1          -1          -1          -1          -1
          -1          -1          -1          -1          -1          -1
          -1          -1
Number of contracted shells                I               80
Number of primitive shells                 I              202
Pure/Cartesian d shells                    I                1
Pure/Cartesian f shells                    I                0
Highest angular momentum                   I                2
Largest degree of contraction              I                6
Shell types                                I   N=          80
           0          -1          -1           2           0          -1
          -1           2           0          -1          -1           2
           0          -1          -1           2           0          -1
          -1           2           0          -1          -1           2
           0          -1          -1           2           0          -1
          -1           2           0          -1          -1           2
           0          -1          -1           2           0          -1
          -1           2           0          -1          -1           2
           0          -1          -1           2           0          -1
          -1           2           0           0           0           0
           0           0           0           0           0           0
           0           0           0           0           0           0
           0           0           0           0           0           0
           0           0
Number of primitives per shell             I   N=          80
           6           3           1           1           6           3
           1           1           6           3           1           1
           6           3           1           1           6           3
           1           1           6           3           1           1
           6           3           1           1           6           3
           1           1           6           3           1           1
           6           3           1           1           6           3
           1           1           6           3           1           1
           6           3           1           1           6           3
           1           1           3           1           3           1
           3           1           3           1           3           1
           3           1           3           1           3           1
           3           1           3           1           3           1
           3           1
Shell to atom map                          I   N=          80
           1           1           1           1           2           2
           2           2           3           3           3           3
           4           4           4           4           5           5
           5           5           6           6           6           6
           7           7           7           7           8           8
           8           8           9           9           9           9
          10          10          10          10          11          11
          11          11          12          12          12          12
          13          13          13          13          14          14
          14          14          15          15          16          16
          17          17          18          18          19          19
          20          20          21          21          22          22
          23          23          24          24          25          25
          26          26
Primitive exponents                        R   N=         202
  4.17351146E+03  6.27457911E+02  1.42902093E+02  4.02343293E+01  1.28202129E+01
  4.39043701E+00  1.16263619E+01  2.71627981E+00  7.72218397E-01  2.12031498E-01
  8.00000000E-01  4.17351146E+03  6.27457911E+02  1.42902093E+02  4.02343293E+01
  1.28202129E+01  4.39043701E+00  1.16263619E+01  2.71627981E+00  7.72218397E-01
  2.12031498E-01  8.00000000E-01  3.04752488E+03  4.57369518E+02  1.03948685E+02
  2.92101553E+01  9.28666296E+00  3.16392696E+00  7.86827235E+00  1.88128854E+00
  5.44249258E-01  1.68714478E-01  8.00000000E-01  3.04752488E+03  4.57369518E+02
  1.03948685E+02  2.92101553E+01  9.28666296E+00  3.16392696E+00  7.86827235E+00
  1.88128854E+00  5.44249258E-01  1.68714478E-01  8.00000000E-01  3.04752488E+03
  4.57369518E+02  1.03948685E+02  2.92101553E+01  9.28666296E+00  3.16392696E+00
  7.86827235E+00  1.88128854E+00  5.44249258E-01  1.68714478E-01  8.00000000E-01
  3.04752488E+03  4.57369518E+02  1.03948685E+02  2.92101553E+01  9.28666296E+00
  3.16392696E+00  7.86827235E+00  1.88128854E+00  5.44249258E-01  1.68714478E-01
  8.00000000E-01  3.04752488E+03  4.57369518E+02  1.03948685E+02  2.92101553E+01
  9.28666296E+00  3.16392696E+00  7.86827235E+00  1.88128854E+00  5.44249258E-01
  1.68714478E-01  8.00000000E-01  3.04752488E+03  4.57369518E+02  1.03948685E+02
  2.92101553E+01  9.28666296E+00  3.16392696E+00  7.86827235E+00  1.88128854E+00
  5.44249258E-01  1.68714478E-01  8.00000000E-01  3.04752488E+03  4.57369518E+02
  1.03948685E+02  2.92101553E+01  9.28666296E+00  3.16392696E+00  7.86827235E+00
  1.88128854E+00  5.44249258E-01  1.68714478E-01  8.00000000E-01  3.04752488E+03
  4.57369518E+02  1.03948685E+02  2.92101553E+01  9.28666296E+00  3.16392696E+00
  7.86827235E+00  1.88128854E+00  5.44249258E-01  1.68714478E-01  8.00000000E-01
  3.04752488E+03  4.57369518E+02  1.03948685E+02  2.92101553E+01  9.28666296E+00
  3.16392696E+00  7.86827235E+00  1.88128854E+00  5.44249258E-01  1.68714478E-01
  8.00000000E-01  3.04752488E+03  4.57369518E+02  1.03948685E+02  2.92101553E+01
  9.28666296E+00  3.16392696E+00  7.86827235E+00  1.88128854E+00  5.44249258E-01
  1.68714478E-01  8.00000000E-01  3.04752488E+03  4.57369518E+02  1.03948685E+02
  2.92101553E+01  9.28666296E+00  3.16392696E+00  7.86827235E+00  1.88128854E+00
  5.44249258E-01  1.68714478E-01  8.00000000E-01  3.04752488E+03  4.57369518E+02
  1.03948685E+02  2.92101553E+01  9.28666296E+00  3.16392696E+00  7.86827235E+00
  1.88128854E+00  5.44249258E-01  1.68714478E-01  8.00000000E-01  1.87311370E+01
  2.82539436E+00  6.40121692E-01  1.61277759E-01  1.87311370E+01  2.82539436E+00
  6.40121692E-01  1.61277759E-01  1.87311370E+01  2.82539436E+00  6.40121692E-01
  1.61277759E-01  1.87311370E+01  2.82539436E+00  6.40121692E-01  1.61277759E-01
  1.87311370E+01  2.82539436E+00  6.40121692E-01  1.61277759E-01  1.87311370E+01
  2.82539436E+00  6.40121692E-01  1.61277759E-01  1.87311370E+01  2.82539436E+00
  6.40121692E-01  1.61277759E-01  1.87311370E+01  2.82539436E+00  6.40121692E-01
  1.61277759E-01  1.87311370E+01  2.82539436E+00  6.40121692E-01  1.61277759E-01
  1.87311370E+01  2.82539436E+00  6.40121692E-01  1.61277759E-01  1.87311370E+01
  2.82539436E+00  6.40121692E-01  1.61277759E-01  1.87311370E+01  2.82539436E+00
  6.40121692E-01  1.61277759E-01
Contraction coefficients                   R   N=         202
  1.83477216E-03  1.39946270E-02  6.85865518E-02  2.32240873E-01  4.69069948E-01
  3.60455199E-01 -1.14961182E-01 -1.69117479E-01  1.14585195E+00  1.00000000E+00
  1.00000000E+00  1.83477216E-03  1.39946270E-02  6.85865518E-02  2.32240873E-01
  4.69069948E-01  3.60455199E-01 -1.14961182E-01 -1.69117479E-01  1.14585195E+00
  1.00000000E+00  1.00000000E+00  1.83473713E-03  1.40373228E-02  6.88426223E-02
  2.32184443E-01  4.67941348E-01  3.62311985E-01 -1.19332420E-01 -1.60854152E-01
  1.14345644E+00  1.00000000E+00  1.00000000E+00  1.83473713E-03  1.40373228E-02
  6.88426223E-02  2.32184443E-01  4.67941348E-01  3.62311985E-01 -1.19332420E-01
 -1.60854152E-01  1.14345644E+00  1.00000000E+00  1.00000000E+00  1.83473713E-03
  1.40373228E-02  6.88426223E-02  2.32184443E-01  4.67941348E-01  3.62311985E-01
 -1.19332420E-01 -1.60854152E-01  1.14345644E+00  1.00000000E+00  1.00000000E+00
  1.83473713E-03  1.40373228E-02  6.88426223E-02  2.32184443E-01  4.67941348E-01
  3.62311985E-01 -1.19332420E-01 -1.60854152E-01  1.14345644E+00  1.00000000E+00
  1.00000000E+00  1.83473713E-03  1.40373228E-02  6.88426223E-02  2.32184443E-01
  4.67941348E-01  3.62311985E-01 -1.19332420E-01 -1.60854152E-01  1.14345644E+00
  1.00000000E+00  1.00000000E+00  1.83473713E-03  1.40373228E-02  6.88426223E-02
  2.32184443E-01  4.67941348E-01  3.62311985E-01 -1.19332420E-01 -1.60854152E-01
  1.14345644E+00  1.00000000E+00  1.00000000E+00  1.83473713E-03  1.40373228E-02
  6.88426223E-02  2.32184443E-01  4.67941348E-01  3.62311985E-01 -1.19332420E-01
 -1.60854152E-01  1.14345644E+00  1.00000000E+00  1.00000000E+00  1.83473713E-03
  1.40373228E-02  6.88426223E-02  2.32184443E-01  4.67941348E-01  3.62311985E-01
 -1.19332420E-01 -1.60854152E-01  1.14345644E+00  1.00000000E+00  1.00000000E+00
  1.83473713E-03  1.40373228E-02  6.88426223E-02  2.32184443E-01  4.67941348E-01
  3.62311985E-01 -1.19332420E-01 -1.60854152E-01  1.14345644E+00  1.00000000E+00
  1.00000000E+00  1.83473713E-03  1.40373228E-02  6.88426223E-02  2.32184443E-01
  4.67941348E-01  3.62311985E-01 -1.19332420E-01 -1.60854152E-01  1.14345644E+00
  1.00000000E+00  1.00000000E+00  1.83473713E-03  1.40373228E-02  6.88426223E-02
  2.32184443E-01  4.67941348E-01  3.62311985E-01 -1.19332420E-01 -1.60854152E-01
  1.14345644E+00  1.00000000E+00  1.00000000E+00  1.83473713E-03  1.40373228E-02
  6.88426223E-02  2.32184443E-01  4.67941348E-01  3.62311985E-01 -1.19332420E-01
 -1.60854152E-01  1.14345644E+00  1.00000000E+00  1.00000000E+00  3.34946043E-02
  2.34726953E-01  8.13757326E-01  1.00000000E+00  3.34946043E-02  2.34726953E-01
  8.13757326E-01  1.00000000E+00  3.34946043E-02  2.34726953E-01  8.13757326E-01
  1.00000000E+00  3.34946043E-02  2.34726953E-01  8.13757326E-01  1.00000000E+00
  3.34946043E-02  2.34726953E-01  8.13757326E-01  1.00000000E+00  3.34946043E-02
  2.34726953E-01  8.13757326E-01  1.00000000E+00  3.34946043E-02  2.34726953E-01
  8.13757326E-01  1.00000000E+00  3.34946043E-02  2.34726953E-01  8.13757326E-01
  1.00000000E+00  3.34946043E-02  2.34726953E-01  8.13757326E-01  1.00000000E+00
  3.34946043E-02  2.34726953E-01  8.13757326E-01  1.00000000E+00  3.34946043E-02
  2.34726953E-01  8.13757326E-01  1.00000000E+00  3.34946043E-02  2.34726953E-01
  8.13757326E-01  1.00000000E+00
P(S=P) Contraction coefficients            R   N=         202
  0.00000000E+00  0.00000000E+00  0.00000000E+00  0.00000000E+00  0.00000000E+00
  0.00000000E+00  6.75797439E-02  3.23907296E-01  7.40895140E-01  1.00000000E+00
  0.00000000E+00  0.00000000E+00  0.00000000E+00  0.00000000E+00  0.00000000E+00
  0.00000000E+00  0.00000000E+00  6.75797439E-02  3.23907296E-01  7.40895140E-01
  1.00000000E+00  0.00000000E+00  0.00000000E+00  0.00000000E+00  0.00000000E+00
  0.00000000E+00  0.00000000E+00  0.00000000E+00  6.89990666E-02  3.16423961E-01
  7.44308291E-01  1.00000000E+00  0.00000000E+00  0.00000000E+00  0.00000000E+00
  0.00000000E+00  0.00000000E+00  0.00000000E+00  0.00000000E+00  6.89990666E-02
  3.16423961E-01  7.44308291E-01  1.00000000E+00  0.00000000E+00  0.00000000E+00
  0.00000000E+00  0.00000000E+00  0.00000000E+00  0.00000000E+00  0.00000000E+00
  6.89990666E-02  3.16423961E-01  7.44308291E-01  1.00000000E+00  0.00000000E+00
  0.00000000E+00  0.00000000E+00  0.00000000E+00  0.00000000E+00  0.00000000E+00
  0.00000000E+00  6.89990666E-02  3.16423961E-01  7.44308291E-01  1.00000000E+00
  0.00000000E+00  0.00000000E+00  0.00000000E+00  0.00000000E+00  0.00000000E+00
  0.00000000E+00  0.00000000E+00  6.89990666E-02  3.16423961E-01  7.44308291E-01
  1.00000000E+00  0.00000000E+00  0.00000000E+00  0.00000000E+00  0.00000000E+00
  0.00000000E+00  0.00000000E+00  0.00000000E+00  6.89990666E-02  3.16423961E-01
  7.44308291E-01  1.00000000E+00  0.00000000E+00  0.00000000E+00  0.00000000E+00
  0.00000000E+00  0.00000000E+00  0.00000000E+00  0.00000000E+00  6.89990666E-02
  3.16423961E-01  7.44308291E-01  1.00000000E+00  0.00000000E+00  0.00000000E+00
  0.00000000E+00  0.00000000E+00  0.00000000E+00  0.00000000E+00  0.00000000E+00
  6.89990666E-02  3.16423961E-01  7.44308291E-01  1.00000000E+00  0.00000000E+00
  0.00000000E+00  0.00000000E+00  0.00000000E+00  0.00000000E+00  0.00000000E+00
  0.00000000E+00  6.89990666E-02  3.16423961E-01  7.44308291E-01  1.00000000E+00
  0.00000000E+00  0.00000000E+00  0.00000000E+00  0.00000000E+00  0.00000000E+00
  0.00000000E+00  0.00000000E+00  6.89990666E-02  3.16423961E-01  7.44308291E-01
  1.00000000E+00  0.00000000E+00  0.00000000E+00  0.00000000E+00  0.00000000E+00
  0.00000000E+00  0.00000000E+00  0.00000000E+00  6.89990666E-02  3.16423961E-01
  7.44308291E-01  1.00000000E+00  0.00000000E+00  0.00000000E+00  0.00000000E+00
  0.00000000E+00  0.00000000E+00  0.00000000E+00  0.00000000E+00  6.89990666E-02
  3.16423961E-01  7.44308291E-01  1.00000000E+00  0.00000000E+00  0.00000000E+00
  0.00000000E+00  0.00000000E+00  0.00000000E+00  0.00000000E+00  0.00000000E+00
  0.00000000E+00  0.00000000E+00  0.00000000E+00  0.00000000E+00  0.00000000E+00
  0.00000000E+00  0.00000000E+00  0.00000000E+00  0.00000000E+00  0.00000000E+00
  0.00000000E+00  0.00000000E+00  0.00000000E+00  0.00000000E+00  0.00000000E+00
  0.00000000E+00  0.00000000E+00  0.00000000E+00  0.00000000E+00  0.00000000E+00
  0.00000000E+00  0.00000000E+00  0.00000000E+00  0.00000000E+00  0.00000000E+00
  0.00000000E+00  0.00000000E+00  0.00000000E+00  0.00000000E+00  0.00000000E+00
  0.00000000E+00  0.00000000E+00  0.00000000E+00  0.00000000E+00  0.00000000E+00
  0.00000000E+00  0.00000000E+00  0.00000000E+00  0.00000000E+00  0.00000000E+00
  0.00000000E+00  0.00000000E+00
Coordinates of each shell                  R   N=         240
 -9.28621449E-01  2.02649721E+00 -5.97941764E-01 -9.28621449E-01  2.02649721E+00
 -5.97941764E-01 -9.28621449E-01  2.02649721E+00 -5.97941764E-01 -9.28621449E-01
  2.02649721E+00 -5.97941764E-01  1.90597088E+00 -1.35761559E+00 -2.52272152E-02
  1.90597088E+00 -1.35761559E+00 -2.52272152E-02  1.90597088E+00 -1.35761559E+00
 -2.52272152E-02  1.90597088E+00 -1.35761559E+00 -2.52272152E-02 -3.23148186E+00
  7.52633729E-01 -2.34926189E-01 -3.23148186E+00  7.52633729E-01 -2.34926189E-01
 -3.23148186E+00  7.52633729E-01 -2.34926189E-01 -3.23148186E+00  7.52633729E-01
 -2.34926189E-01  1.52107914E+00  1.13032706E+00 -2.93116613E-01  1.52107914E+00
  1.13032706E+00 -2.93116613E-01  1.52107914E+00  1.13032706E+00 -2.93116613E-01
  1.52107914E+00  1.13032706E+00 -2.93116613E-01  6.43003068E+00 -6.00908894E-01
  2.12374815E-01  6.43003068E+00 -6.00908894E-01  2.12374815E-01  6.43003068E+00
 -6.00908894E-01  2.12374815E-01  6.43003068E+00 -6.00908894E-01  2.12374815E-01
  3.53167170E+00  2.88182830E+00 -3.41218038E-01  3.53167170E+00  2.88182830E+00
 -3.41218038E-01  3.53167170E+00  2.88182830E+00 -3.41218038E-01  3.53167170E+00
  2.88182830E+00 -3.41218038E-01  5.97940913E+00  1.99746048E+00 -8.22816681E-02
  5.97940913E+00  1.99746048E+00 -8.22816681E-02  5.97940913E+00  1.99746048E+00
 -8.22816681E-02  5.97940913E+00  1.99746048E+00 -8.22816681E-02 -5.32667472E+00
  2.21538989E+00  4.87069798E-01 -5.32667472E+00  2.21538989E+00  4.87069798E-01
 -5.32667472E+00  2.21538989E+00  4.87069798E-01 -5.32667472E+00  2.21538989E+00
  4.87069798E-01 -3.56523348E+00 -1.83541854E+00 -7.18353881E-01 -3.56523348E+00
 -1.83541854E+00 -7.18353881E-01 -3.56523348E+00 -1.83541854E+00 -7.18353881E-01
 -3.56523348E+00 -1.83541854E+00 -7.18353881E-01  4.30928455E+00 -2.16014811E+00
  2.21051037E-01  4.30928455E+00 -2.16014811E+00  2.21051037E-01  4.30928455E+00
 -2.16014811E+00  2.21051037E-01  4.30928455E+00 -2.16014811E+00  2.21051037E-01
  9.05765214E+00 -1.64441327E+00  4.95300131E-01  9.05765214E+00 -1.64441327E+00
  4.95300131E-01  9.05765214E+00 -1.64441327E+00  4.95300131E-01  9.05765214E+00
 -1.64441327E+00  4.95300131E-01 -7.70155090E+00  1.11682544E+00  7.65109918E-01
 -7.70155090E+00  1.11682544E+00  7.65109918E-01 -7.70155090E+00  1.11682544E+00
  7.65109918E-01 -7.70155090E+00  1.11682544E+00  7.65109918E-01 -5.94946706E+00
 -2.91552583E+00 -3.97002914E-01 -5.94946706E+00 -2.91552583E+00 -3.97002914E-01
 -5.94946706E+00 -2.91552583E+00 -3.97002914E-01 -5.94946706E+00 -2.91552583E+00
 -3.97002914E-01 -8.02999140E+00 -1.46392952E+00  3.25149153E-01 -8.02999140E+00
 -1.46392952E+00  3.25149153E-01 -8.02999140E+00 -1.46392952E+00  3.25149153E-01
 -8.02999140E+00 -1.46392952E+00  3.25149153E-01 -1.07395397E+00  3.93196058E+00
 -4.54395118E-01 -1.07395397E+00  3.93196058E+00 -4.54395118E-01  3.16158492E+00
  4.89173977E+00 -5.71817046E-01  3.16158492E+00  4.89173977E+00 -5.71817046E-01
  7.55305949E+00  3.32403304E+00 -1.06706906E-01  7.55305949E+00  3.32403304E+00
 -1.06706906E-01 -5.07919213E+00  4.22459357E+00  8.65147729E-01 -5.07919213E+00
  4.22459357E+00  8.65147729E-01 -1.96449108E+00 -2.97407377E+00 -1.28174262E+00
 -1.96449108E+00 -2.97407377E+00 -1.28174262E+00  4.52826690E+00 -4.19748719E+00
  4.40935830E-01  4.52826690E+00 -4.19748719E+00  4.40935830E-01  1.02225389E+01
 -1.20319471E+00 -1.15647428E+00  1.02225389E+01 -1.20319471E+00 -1.15647428E+00
  1.00035056E+01 -8.53788719E-01  2.15665041E+00  1.00035056E+01 -8.53788719E-01
  2.15665041E+00  9.01141470E+00 -3.69923176E+00  7.09069910E-01  9.01141470E+00
 -3.69923176E+00  7.09069910E-01 -9.29454792E+00  2.28571294E+00  1.33079945E+00
 -9.29454792E+00  2.28571294E+00  1.33079945E+00 -6.18074329E+00 -4.92558474E+00
 -7.59908943E-01 -6.18074329E+00 -4.92558474E+00 -7.59908943E-01 -9.87725565E+00
 -2.33157473E+00  5.55691141E-01 -9.87725565E+00 -2.33157473E+00  5.55691141E-01
Constraint Structure                       R   N=          78
 -9.28621449E-01  2.02649721E+00 -5.97941764E-01  1.90597088E+00 -1.35761559E+00
 -2.52272152E-02 -3.23148186E+00  7.52633729E-01 -2.34926189E-01  1.52107914E+00
  1.13032706E+00 -2.93116613E-01  6.43003068E+00 -6.00908894E-01  2.12374815E-01
  3.53167170E+00  2.88182830E+00 -3.41218038E-01  5.97940913E+00  1.99746048E+00
 -8.22816681E-02 -5.32667472E+00  2.21538989E+00  4.87069798E-01 -3.56523348E+00
 -1.83541854E+00 -7.18353881E-01  4.30928455E+00 -2.16014811E+00  2.21051037E-01
  9.05765214E+00 -1.64441327E+00  4.95300131E-01 -7.70155090E+00  1.11682544E+00
  7.65109918E-01 -5.94946706E+00 -2.91552583E+00 -3.97002914E-01 -8.02999140E+00
 -1.46392952E+00  3.25149153E-01 -1.07395397E+00  3.93196058E+00 -4.54395118E-01
  3.16158492E+00  4.89173977E+00 -5.71817046E-01  7.55305949E+00  3.32403304E+00
 -1.06706906E-01 -5.07919213E+00  4.22459357E+00  8.65147729E-01 -1.96449108E+00
 -2.97407377E+00 -1.28174262E+00  4.52826690E+00 -4.19748719E+00  4.40935830E-01
  1.02225389E+01 -1.20319471E+00 -1.15647428E+00  1.00035056E+01 -8.53788719E-01
  2.15665041E+00  9.01141470E+00 -3.69923176E+00  7.09069910E-01 -9.29454792E+00
  2.28571294E+00  1.33079945E+00 -6.18074329E+00 -4.92558474E+00 -7.59908943E-01
 -9.87725565E+00 -2.33157473E+00  5.55691141E-01
Num ILSW                                   I              100
ILSW                                       I   N=         100
           0           1           0           0           2           0
           0           0           0           0           0          -1
           0           0           0           0           0           0
           0           0           0           0           1           0
           1           0           0           0           0           0
           0           0      100000           0          -1           0
           0           0           0           0           0           0
           0           0           0           1           1           0
           0           0           1           0           0           0
           0           0           4          40           0           0
           0           0           0           0           0           0
           0           0           0           0           0           0
           0           0           0           0           0           0
           0           0           0           0           0           0
           0           0           0           0           0           0
           0           0           0           0           0           0
           0           0           0           0
Num RLSW                                   I               40
RLSW                                       R   N=          40
  1.00000000E+00  1.00000000E+00  1.00000000E+00  1.00000000E+00  1.00000000E+00
  0.00000000E+00  0.00000000E+00  1.00000000E+00  0.00000000E+00  0.00000000E+00
  0.00000000E+00  0.00000000E+00  1.00000000E+00  0.00000000E+00  0.00000000E+00
  0.00000000E+00  0.00000000E+00  1.00000000E+00  0.00000000E+00  0.00000000E+00
  0.00000000E+00  0.00000000E+00  1.00000000E+00  0.00000000E+00  0.00000000E+00
  0.00000000E+00  0.00000000E+00  1.00000000E+00  0.00000000E+00  0.00000000E+00
  0.00000000E+00  0.00000000E+00  0.00000000E+00  0.00000000E+00  0.00000000E+00
  0.00000000E+00  0.00000000E+00  0.00000000E+00  1.00000000E+00  1.00000000E+00
MxBond                                     I                4
NBond                                      I   N=          26
           3           2           3           3           3           3
           3           3           3           3           4           3
           3           3           1           1           1           1
           1           1           1           1           1           1
           1           1
IBond                                      I   N=         104
           3           4          15           0           4          10
           0           0           1           8           9           0
           1           2           6           0           7          10
          11           0           4           7          16           0
           5           6          17           0           3          12
          18           0           3          13          19           0
           2           5          20           0           5          21
          22          23           8          14          24           0
           9          14          25           0          12          13