
    -----------------------------------------------------------------------
          Psi4: An Open-Source Ab Initio Electronic Structure Package
                               Psi4 1.4a3.dev225 

                         Git: Rev {master} 7105e37 


    D. G. A. Smith, L. A. Burns, A. C. Simmonett, R. M. Parrish,
    M. C. Schieber, R. Galvelis, P. Kraus, H. Kruse, R. Di Remigio,
    A. Alenaizan, A. M. James, S. Lehtola, J. P. Misiewicz, M. Scheurer,
    R. A. Shaw, J. B. Schriber, Y. Xie, Z. L. Glick, D. A. Sirianni,
    J. S. O'Brien, J. M. Waldrop, A. Kumar, E. G. Hohenstein,
    B. P. Pritchard, B. R. Brooks, H. F. Schaefer III, A. Yu. Sokolov,
    K. Patkowski, A. E. DePrince III, U. Bozkaya, R. A. King,
    F. A. Evangelista, J. M. Turney, T. D. Crawford, C. D. Sherrill,
    J. Chem. Phys. 152(18) 184108 (2020). https://doi.org/10.1063/5.0006002

                            Additional Code Authors
    E. T. Seidl, C. L. Janssen, E. F. Valeev, M. L. Leininger,
    J. F. Gonthier, R. M. Richard, H. R. McAlexander, M. Saitow, X. Wang,
    P. Verma, and M. H. Lechner

             Previous Authors, Complete List of Code Contributors,
                       and Citations for Specific Modules
    https://github.com/psi4/psi4/blob/master/codemeta.json
    https://github.com/psi4/psi4/graphs/contributors
    http://psicode.org/psi4manual/master/introduction.html#citing-psifour

    -----------------------------------------------------------------------


    Psi4 started on: Monday, 01 March 2021 05:36AM

    Process ID: 52471
    Host:       c405-024.stampede2.tacc.utexas.edu
    PSIDATADIR: /home1/07844/xy3866/miniconda3/envs/p4env/share/psi4
    Memory:     500.0 MiB
    Threads:    32
    
  ==> Input File <==

--------------------------------------------------------------------------
#psi4
#
memory 32 gb

molecule  {
0 1
  N       -1.3887980     0.0000000    -0.3392240
  N        1.3887980     0.0000000     0.3392250
  C        0.7344320    -1.1908000    -0.1932070
  C       -0.7265978    -1.2362493     0.2193502
  C        0.7344330     1.1908010    -0.1932060
  C       -0.7344330     1.1908010     0.1932070
  C       -2.8075490    -0.0000010    -0.0148730
  C        2.8075480    -0.0000010     0.0148720
  H        0.8178840    -1.2446340    -1.2957380
  H        1.2273880    -2.0759070     0.2263630
  H        1.2273890     2.0759080     0.2263640
  H        0.8178840     1.2446360    -1.2957370
  H       -1.2273880    -2.0759070    -0.2263610
  H       -0.8178840    -1.2446340     1.2957380
  H       -0.8178830     1.2446350     1.2957380
  H       -1.2273890     2.0759080    -0.2263620
  H       -3.2785690     0.8871010    -0.4480200
  H       -2.9984770    -0.0000010     1.0736860
  H       -3.2785690    -0.8871030    -0.4480190
  H        2.9984750    -0.0000010    -1.0736880
  H        3.2785690    -0.8871030     0.4480170
  H        3.2785700     0.8871010     0.4480170
units angstrom
no_reorient  #important for SAPT in psi4, default
symmetry c1  #important for SAPT in psi4, default
}

set PROPERTIES_ORIGIN ["COM"]
properties('MP2/aug-cc-pvtz', properties = ['dipole'])
--------------------------------------------------------------------------

  Memory set to  29.802 GiB by Python driver.
    SCF Algorithm Type (re)set to DF.

*** tstart() called on c405-024.stampede2.tacc.utexas.edu
*** at Mon Mar  1 05:36:30 2021

   => Loading Basis Set <=

    Name: AUG-CC-PVTZ
    Role: ORBITAL
    Keyword: BASIS
    atoms 1-2  entry N          line   285 file /home1/07844/xy3866/miniconda3/envs/p4env/share/psi4/basis/aug-cc-pvtz.gbs 
    atoms 3-8  entry C          line   239 file /home1/07844/xy3866/miniconda3/envs/p4env/share/psi4/basis/aug-cc-pvtz.gbs 
    atoms 9-22 entry H          line    40 file /home1/07844/xy3866/miniconda3/envs/p4env/share/psi4/basis/aug-cc-pvtz.gbs 


         ---------------------------------------------------------
                                   SCF
               by Justin Turney, Rob Parrish, Andy Simmonett
                          and Daniel G. A. Smith
                              RHF Reference
                       32 Threads,  30517 MiB Core
         ---------------------------------------------------------

  ==> Geometry <==

    Molecular point group: c1
    Full point group: C1

    Geometry (in Angstrom), charge = 0, multiplicity = 1:

       Center              X                  Y                   Z               Mass       
    ------------   -----------------  -----------------  -----------------  -----------------
         N           -1.389621711385     0.004779295182    -0.341973230751    14.003074004430
         N            1.387974288615     0.004779295182     0.336475769249    14.003074004430
         C            0.733608288615    -1.186020704818    -0.195956230751    12.000000000000
         C           -0.727421511385    -1.231470004818     0.216600969249    12.000000000000
         C            0.733609288615     1.195580295182    -0.195955230751    12.000000000000
         C           -0.735256711385     1.195580295182     0.190457769249    12.000000000000
         C           -2.808372711385     0.004778295182    -0.017622230751    12.000000000000
         C            2.806724288615     0.004778295182     0.012122769249    12.000000000000
         H            0.817060288615    -1.239854704818    -1.298487230751     1.007825032230
         H            1.226564288615    -2.071127704818     0.223613769249     1.007825032230
         H            1.226565288615     2.080687295182     0.223614769249     1.007825032230
         H            0.817060288615     1.249415295182    -1.298486230751     1.007825032230
         H           -1.228211711385    -2.071127704818    -0.229110230751     1.007825032230
         H           -0.818707711385    -1.239854704818     1.292988769249     1.007825032230
         H           -0.818706711385     1.249414295182     1.292988769249     1.007825032230
         H           -1.228212711385     2.080687295182    -0.229111230751     1.007825032230
         H           -3.279392711385     0.891880295182    -0.450769230751     1.007825032230
         H           -2.999300711385     0.004778295182     1.070936769249     1.007825032230
         H           -3.279392711385    -0.882323704818    -0.450768230751     1.007825032230
         H            2.997651288615     0.004778295182    -1.076437230751     1.007825032230
         H            3.277745288615    -0.882323704818     0.445267769249     1.007825032230
         H            3.277746288615     0.891880295182     0.445267769249     1.007825032230

  Running in c1 symmetry.

  Rotational constants: A =      0.15133  B =      0.04756  C =      0.03872 [cm^-1]
  Rotational constants: A =   4536.85547  B =   1425.91466  C =   1160.76048 [MHz]
  Nuclear repulsion =  419.538759814144555

  Charge       = 0
  Multiplicity = 1
  Electrons    = 64
  Nalpha       = 32
  Nbeta        = 32

  ==> Algorithm <==

  SCF Algorithm Type is DF.
  DIIS enabled.
  MOM disabled.
  Fractional occupation disabled.
  Guess Type is SAD.
  Energy threshold   = 1.00e-10
  Density threshold  = 1.00e-10
  Integral threshold = 1.00e-12

  ==> Primary Basis <==

  Basis Set: AUG-CC-PVTZ
    Blend: AUG-CC-PVTZ
    Number of shells: 238
    Number of basis functions: 690
    Number of Cartesian functions: 790
    Spherical Harmonics?: true
    Max angular momentum: 3

   => Loading Basis Set <=

    Name: (AUG-CC-PVTZ AUX)
    Role: JKFIT
    Keyword: DF_BASIS_SCF
    atoms 1-2  entry N          line   224 file /home1/07844/xy3866/miniconda3/envs/p4env/share/psi4/basis/aug-cc-pvtz-jkfit.gbs 
    atoms 3-8  entry C          line   162 file /home1/07844/xy3866/miniconda3/envs/p4env/share/psi4/basis/aug-cc-pvtz-jkfit.gbs 
    atoms 9-22 entry H          line    70 file /home1/07844/xy3866/miniconda3/envs/p4env/share/psi4/basis/aug-cc-pvtz-jkfit.gbs 

  ==> Integral Setup <==

  DFHelper Memory: AOs need 5.098 GiB; user supplied 22.352 GiB. Using in-core AOs.

  ==> MemDFJK: Density-Fitted J/K Matrices <==

    J tasked:                   Yes
    K tasked:                   Yes
    wK tasked:                   No
    OpenMP threads:              32
    Memory [MiB]:             22888
    Algorithm:                 Core
    Schwarz Cutoff:           1E-12
    Mask sparsity (%):       6.9435
    Fitting Condition:        1E-10

   => Auxiliary Basis Set <=

  Basis Set: (AUG-CC-PVTZ AUX)
    Blend: AUG-CC-PVTZ-JKFIT
    Number of shells: 436
    Number of basis functions: 1476
    Number of Cartesian functions: 1818
    Spherical Harmonics?: true
    Max angular momentum: 4

  Minimum eigenvalue in the overlap matrix is 1.7740648365E-06.
  Reciprocal condition number of the overlap matrix is 7.5896389515E-08.
    Using symmetric orthogonalization.

  ==> Pre-Iterations <==

  SCF Guess: Superposition of Atomic Densities via on-the-fly atomic UHF (no occupation information).

   -------------------------
    Irrep   Nso     Nmo    
   -------------------------
     A        690     690 
   -------------------------
    Total     690     690
   -------------------------

  ==> Iterations <==

                           Total Energy        Delta E     RMS |[F,P]|

   @DF-RHF iter SAD:  -344.43132655422340   -3.44431e+02   0.00000e+00 
   @DF-RHF iter   1:  -344.04290539047992    3.88421e-01   9.87332e-04 DIIS
   @DF-RHF iter   2:  -344.28010493130489   -2.37200e-01   5.24366e-04 DIIS
   @DF-RHF iter   3:  -344.34350610289130   -6.34012e-02   1.27753e-04 DIIS
   @DF-RHF iter   4:  -344.34858244801899   -5.07635e-03   3.78451e-05 DIIS
   @DF-RHF iter   5:  -344.34900811369033   -4.25666e-04   6.14513e-06 DIIS
   @DF-RHF iter   6:  -344.34902451675282   -1.64031e-05   1.41267e-06 DIIS
   @DF-RHF iter   7:  -344.34902532096299   -8.04210e-07   4.29158e-07 DIIS
   @DF-RHF iter   8:  -344.34902538575454   -6.47915e-08   1.36242e-07 DIIS
   @DF-RHF iter   9:  -344.34902539230609   -6.55155e-09   2.71044e-08 DIIS
   @DF-RHF iter  10:  -344.34902539272969   -4.23597e-10   9.97459e-09 DIIS
   @DF-RHF iter  11:  -344.34902539276572   -3.60387e-11   3.40637e-09 DIIS
   @DF-RHF iter  12:  -344.34902539277289   -7.16227e-12   6.21284e-10 DIIS
   @DF-RHF iter  13:  -344.34902539277260    2.84217e-13   1.47752e-10 DIIS
   @DF-RHF iter  14:  -344.34902539277294   -3.41061e-13   5.55205e-11 DIIS
  Energy and wave function converged.


  ==> Post-Iterations <==

    Orbital Energies [Eh]
    ---------------------

    Doubly Occupied:                                                      

       1A    -15.545545     2A    -15.544047     3A    -11.243283  
       4A    -11.242120     5A    -11.241721     6A    -11.241272  
       7A    -11.240384     8A    -11.238383     9A     -1.249392  
      10A     -1.196873    11A     -1.022713    12A     -0.988055  
      13A     -0.904794    14A     -0.861466    15A     -0.831992  
      16A     -0.758191    17A     -0.660996    18A     -0.633942  
      19A     -0.627763    20A     -0.623708    21A     -0.619681  
      22A     -0.577162    23A     -0.548643    24A     -0.540361  
      25A     -0.539577    26A     -0.518529    27A     -0.496655  
      28A     -0.490989    29A     -0.461686    30A     -0.449265  
      31A     -0.358985    32A     -0.357717  

    Virtual:                                                              

      33A      0.030516    34A      0.034497    35A      0.036863  
      36A      0.040045    37A      0.049879    38A      0.051094  
      39A      0.053368    40A      0.056377    41A      0.063329  
      42A      0.069129    43A      0.072430    44A      0.073801  
      45A      0.080216    46A      0.091753    47A      0.104935  
      48A      0.119448    49A      0.120678    50A      0.122305  
      51A      0.127480    52A      0.128109    53A      0.135203  
      54A      0.135995    55A      0.136743    56A      0.137051  
      57A      0.144261    58A      0.145238    59A      0.156117  
      60A      0.159038    61A      0.164966    62A      0.165454  
      63A      0.170207    64A      0.186160    65A      0.187666  
      66A      0.188126    67A      0.194259    68A      0.203960  
      69A      0.213864    70A      0.214344    71A      0.216459  
      72A      0.235998    73A      0.242123    74A      0.246690  
      75A      0.251611    76A      0.252804    77A      0.258776  
      78A      0.274599    79A      0.276441    80A      0.295750  
      81A      0.296073    82A      0.300861    83A      0.302430  
      84A      0.304274    85A      0.316190    86A      0.317868  
      87A      0.319303    88A      0.320169    89A      0.324101  
      90A      0.325282    91A      0.340480    92A      0.349405  
      93A      0.350601    94A      0.351715    95A      0.365486  
      96A      0.366826    97A      0.368459    98A      0.372202  
      99A      0.375974   100A      0.380672   101A      0.385991  
     102A      0.393356   103A      0.394189   104A      0.400568  
     105A      0.401971   106A      0.402864   107A      0.413056  
     108A      0.416814   109A      0.423859   110A      0.425211  
     111A      0.427840   112A      0.432113   113A      0.436777  
     114A      0.440169   115A      0.448678   116A      0.452264  
     117A      0.453077   118A      0.459777   119A      0.463669  
     120A      0.468053   121A      0.471893   122A      0.476010  
     123A      0.484620   124A      0.485580   125A      0.492423  
     126A      0.497949   127A      0.499697   128A      0.502512  
     129A      0.502874   130A      0.505431   131A      0.511240  
     132A      0.518790   133A      0.521020   134A      0.526471  
     135A      0.528583   136A      0.537235   137A      0.544566  
     138A      0.545847   139A      0.547593   140A      0.550298  
     141A      0.563199   142A      0.566485   143A      0.567298  
     144A      0.568612   145A      0.575809   146A      0.583360  
     147A      0.588689   148A      0.590369   149A      0.595733  
     150A      0.597555   151A      0.602474   152A      0.617459  
     153A      0.619326   154A      0.621238   155A      0.622972  
     156A      0.640189   157A      0.649353   158A      0.652177  
     159A      0.655756   160A      0.662821   161A      0.664799  
     162A      0.673984   163A      0.684424   164A      0.685334  
     165A      0.692164   166A      0.697990   167A      0.713458  
     168A      0.724588   169A      0.744359   170A      0.745382  
     171A      0.758633   172A      0.762505   173A      0.777058  
     174A      0.780307   175A      0.791877   176A      0.792528  
     177A      0.802499   178A      0.808315   179A      0.811008  
     180A      0.825835   181A      0.835725   182A      0.837460  
     183A      0.838947   184A      0.845837   185A      0.846354  
     186A      0.861671   187A      0.868352   188A      0.872127  
     189A      0.876971   190A      0.880339   191A      0.883281  
     192A      0.891753   193A      0.907313   194A      0.908503  
     195A      0.914093   196A      0.918375   197A      0.920129  
     198A      0.932456   199A      0.940419   200A      0.946218  
     201A      0.952613   202A      0.957836   203A      0.960236  
     204A      0.967697   205A      0.976477   206A      0.986160  
     207A      0.986470   208A      0.987216   209A      0.990425  
     210A      0.999405   211A      1.002166   212A      1.007561  
     213A      1.025942   214A      1.031172   215A      1.038378  
     216A      1.040982   217A      1.045263   218A      1.049239  
     219A      1.050392   220A      1.054066   221A      1.068590  
     222A      1.076302   223A      1.080493   224A      1.080644  
     225A      1.089693   226A      1.097510   227A      1.110914  
     228A      1.123400   229A      1.126177   230A      1.129161  
     231A      1.131589   232A      1.146807   233A      1.148848  
     234A      1.151427   235A      1.162852   236A      1.172070  
     237A      1.177122   238A      1.181264   239A      1.184364  
     240A      1.195774   241A      1.201612   242A      1.209378  
     243A      1.211803   244A      1.219387   245A      1.222981  
     246A      1.224388   247A      1.233696   248A      1.237884  
     249A      1.241427   250A      1.244758   251A      1.254236  
     252A      1.257027   253A      1.261234   254A      1.269329  
     255A      1.275221   256A      1.281827   257A      1.290239  
     258A      1.311238   259A      1.312507   260A      1.320283  
     261A      1.332498   262A      1.341181   263A      1.354786  
     264A      1.358239   265A      1.370062   266A      1.379569  
     267A      1.386657   268A      1.397392   269A      1.399734  
     270A      1.403574   271A      1.413739   272A      1.435019  
     273A      1.438502   274A      1.439201   275A      1.444184  
     276A      1.456795   277A      1.460526   278A      1.463899  
     279A      1.479097   280A      1.486285   281A      1.496665  
     282A      1.501894   283A      1.504543   284A      1.505885  
     285A      1.515327   286A      1.520133   287A      1.535131  
     288A      1.548664   289A      1.554348   290A      1.575951  
     291A      1.577831   292A      1.583104   293A      1.593398  
     294A      1.597757   295A      1.606786   296A      1.612421  
     297A      1.614272   298A      1.627855   299A      1.629620  
     300A      1.631756   301A      1.648305   302A      1.651466  
     303A      1.655785   304A      1.660827   305A      1.670858  
     306A      1.672926   307A      1.684454   308A      1.686358  
     309A      1.687544   310A      1.702735   311A      1.704694  
     312A      1.729467   313A      1.731755   314A      1.738694  
     315A      1.746569   316A      1.750911   317A      1.756106  
     318A      1.757743   319A      1.760607   320A      1.764606  
     321A      1.770953   322A      1.773839   323A      1.777875  
     324A      1.783649   325A      1.794877   326A      1.818402  
     327A      1.822301   328A      1.827352   329A      1.832106  
     330A      1.842232   331A      1.845153   332A      1.856051  
     333A      1.859734   334A      1.864070   335A      1.885692  
     336A      1.890956   337A      1.893785   338A      1.898925  
     339A      1.899073   340A      1.914267   341A      1.918874  
     342A      1.926737   343A      1.951860   344A      1.965321  
     345A      1.970685   346A      1.978104   347A      1.990684  
     348A      2.002848   349A      2.004284   350A      2.009663  
     351A      2.012581   352A      2.015259   353A      2.023711  
     354A      2.033091   355A      2.037278   356A      2.060479  
     357A      2.080402   358A      2.090503   359A      2.097137  
     360A      2.117059   361A      2.121030   362A      2.133389  
     363A      2.138424   364A      2.141494   365A      2.183290  
     366A      2.192112   367A      2.195864   368A      2.198797  
     369A      2.206332   370A      2.211092   371A      2.224242  
     372A      2.226161   373A      2.236332   374A      2.240476  
     375A      2.246382   376A      2.252248   377A      2.282737  
     378A      2.286815   379A      2.297568   380A      2.305921  
     381A      2.327590   382A      2.332099   383A      2.334668  
     384A      2.338321   385A      2.348686   386A      2.351408  
     387A      2.391749   388A      2.399080   389A      2.421313  
     390A      2.426880   391A      2.433932   392A      2.456575  
     393A      2.461996   394A      2.465037   395A      2.487743  
     396A      2.509684   397A      2.516981   398A      2.536035  
     399A      2.556909   400A      2.577068   401A      2.593484  
     402A      2.597463   403A      2.599010   404A      2.606190  
     405A      2.611421   406A      2.620949   407A      2.631521  
     408A      2.641558   409A      2.678186   410A      2.695382  
     411A      2.702998   412A      2.714138   413A      2.733147  
     414A      2.740743   415A      2.749596   416A      2.773748  
     417A      2.807408   418A      2.815179   419A      2.826810  
     420A      2.847359   421A      2.859693   422A      2.884065  
     423A      2.891162   424A      2.916497   425A      2.950675  
     426A      2.976509   427A      3.039817   428A      3.076522  
     429A      3.095375   430A      3.132844   431A      3.143948  
     432A      3.156974   433A      3.201324   434A      3.271962  
     435A      3.293558   436A      3.352637   437A      3.411747  
     438A      3.417918   439A      3.485525   440A      3.510513  
     441A      3.513743   442A      3.524514   443A      3.534897  
     444A      3.537472   445A      3.552319   446A      3.584645  
     447A      3.607824   448A      3.615045   449A      3.622173  
     450A      3.654234   451A      3.661354   452A      3.665927  
     453A      3.673521   454A      3.679330   455A      3.684953  
     456A      3.692907   457A      3.711474   458A      3.730905  
     459A      3.750840   460A      3.760010   461A      3.765920  
     462A      3.771137   463A      3.790263   464A      3.802452  
     465A      3.806303   466A      3.819367   467A      3.828828  
     468A      3.843208   469A      3.851739   470A      3.863327  
     471A      3.865738   472A      3.878193   473A      3.884680  
     474A      3.894287   475A      3.902876   476A      3.921396  
     477A      3.937088   478A      3.946264   479A      3.949231  
     480A      3.952579   481A      3.960795   482A      3.971410  
     483A      3.983394   484A      3.987166   485A      3.990327  
     486A      3.993842   487A      4.006981   488A      4.007811  
     489A      4.042931   490A      4.050432   491A      4.054091  
     492A      4.064439   493A      4.071427   494A      4.084142  
     495A      4.099399   496A      4.101857   497A      4.107617  
     498A      4.111520   499A      4.117741   500A      4.122149  
     501A      4.137419   502A      4.162763   503A      4.175638  
     504A      4.198351   505A      4.215848   506A      4.233381  
     507A      4.249843   508A      4.252831   509A      4.269650  
     510A      4.272031   511A      4.278255   512A      4.290041  
     513A      4.294951   514A      4.301586   515A      4.304254  
     516A      4.319270   517A      4.328204   518A      4.330795  
     519A      4.335699   520A      4.360318   521A      4.389646  
     522A      4.399111   523A      4.402672   524A      4.411870  
     525A      4.452903   526A      4.453809   527A      4.471711  
     528A      4.472859   529A      4.477284   530A      4.488359  
     531A      4.497206   532A      4.515031   533A      4.525231  
     534A      4.532447   535A      4.556288   536A      4.559888  
     537A      4.576280   538A      4.603782   539A      4.608482  
     540A      4.612196   541A      4.626724   542A      4.641203  
     543A      4.664926   544A      4.686027   545A      4.688221  
     546A      4.706952   547A      4.709557   548A      4.739199  
     549A      4.750270   550A      4.775893   551A      4.784227  
     552A      4.794456   553A      4.797236   554A      4.826935  
     555A      4.839826   556A      4.860502   557A      4.867403  
     558A      4.874423   559A      4.888456   560A      4.893725  
     561A      4.896996   562A      4.907534   563A      4.927578  
     564A      4.946943   565A      4.980029   566A      4.985933  
     567A      4.998632   568A      5.003928   569A      5.019706  
     570A      5.028773   571A      5.051499   572A      5.063096  
     573A      5.068437   574A      5.071396   575A      5.092240  
     576A      5.105498   577A      5.112334   578A      5.119654  
     579A      5.142275   580A      5.169750   581A      5.179517  
     582A      5.188735   583A      5.234432   584A      5.245916  
     585A      5.248634   586A      5.257078   587A      5.278243  
     588A      5.283800   589A      5.301404   590A      5.326181  
     591A      5.332007   592A      5.338019   593A      5.348297  
     594A      5.360093   595A      5.364327   596A      5.367951  
     597A      5.376882   598A      5.379827   599A      5.396332  
     600A      5.408053   601A      5.452880   602A      5.466037  
     603A      5.469110   604A      5.483267   605A      5.510551  
     606A      5.522611   607A      5.523221   608A      5.526366  
     609A      5.551314   610A      5.575492   611A      5.579869  
     612A      5.586179   613A      5.600405   614A      5.606132  
     615A      5.634157   616A      5.649422   617A      5.655733  
     618A      5.690494   619A      5.697121   620A      5.699781  
     621A      5.714943   622A      5.736462   623A      5.752549  
     624A      5.755817   625A      5.771141   626A      5.790644  
     627A      5.825083   628A      5.833444   629A      5.855693  
     630A      5.872484   631A      5.879721   632A      5.910292  
     633A      5.955857   634A      5.974955   635A      5.995668  
     636A      6.007976   637A      6.016535   638A      6.047060  
     639A      6.055912   640A      6.058560   641A      6.079756  
     642A      6.090666   643A      6.130317   644A      6.158078  
     645A      6.169083   646A      6.210022   647A      6.218831  
     648A      6.242549   649A      6.255301   650A      6.263635  
     651A      6.307608   652A      6.332018   653A      6.385712  
     654A      6.392453   655A      6.419341   656A      6.428941  
     657A      6.489715   658A      6.498983   659A      6.509905  
     660A      6.527982   661A      6.551732   662A      6.611191  
     663A      6.633549   664A      6.686166   665A      6.786868  
     666A      6.832362   667A      6.861583   668A      6.863439  
     669A      6.872687   670A      6.904007   671A      6.914869  
     672A      6.930359   673A      6.932203   674A      6.944727  
     675A      7.009280   676A      7.033577   677A      7.047268  
     678A      7.088730   679A      7.104113   680A      7.109620  
     681A      7.123564   682A      7.149043   683A     17.158562  
     684A     17.898608   685A     18.445525   686A     18.570689  
     687A     18.808004   688A     18.955588   689A     19.224243  
     690A     20.000495  

    Final Occupation by Irrep:
              A 
    DOCC [    32 ]

  @DF-RHF Final Energy:  -344.34902539277294

   => Energetics <=

    Nuclear Repulsion Energy =            419.5387598141445551
    One-Electron Energy =               -1298.0637904911798159
    Two-Electron Energy =                 534.1760052842623736
    Total Energy =                       -344.3490253927728872

Computation Completed

*** tstop() called on c405-024.stampede2.tacc.utexas.edu at Mon Mar  1 05:37:05 2021
Module time:
	user time   =     585.54 seconds =       9.76 minutes
	system time =      41.84 seconds =       0.70 minutes
	total time  =         35 seconds =       0.58 minutes
Total time:
	user time   =     585.54 seconds =       9.76 minutes
	system time =      41.84 seconds =       0.70 minutes
	total time  =         35 seconds =       0.58 minutes
   => Loading Basis Set <=

    Name: (AUG-CC-PVTZ AUX)
    Role: RIFIT
    Keyword: DF_BASIS_MP2
    atoms 1-2  entry N          line   206 file /home1/07844/xy3866/miniconda3/envs/p4env/share/psi4/basis/aug-cc-pvtz-ri.gbs 
    atoms 3-8  entry C          line   148 file /home1/07844/xy3866/miniconda3/envs/p4env/share/psi4/basis/aug-cc-pvtz-ri.gbs 
    atoms 9-22 entry H          line    30 file /home1/07844/xy3866/miniconda3/envs/p4env/share/psi4/basis/aug-cc-pvtz-ri.gbs 


*** tstart() called on c405-024.stampede2.tacc.utexas.edu
*** at Mon Mar  1 05:37:06 2021


  //>>>>>>>>>>>>>>>>>>>>>>>>>>>>>>>>>>>//
  //               DFMP2               //
  //<<<<<<<<<<<<<<<<<<<<<<<<<<<<<<<<<<<//

	 --------------------------------------------------------
	                          DF-MP2                         
	      2nd-Order Density-Fitted Moller-Plesset Theory     
	              RMP2 Wavefunction,  32 Threads             
	                                                         
	        Rob Parrish, Justin Turney, Andy Simmonett,      
	           Ed Hohenstein, and C. David Sherrill          
	 --------------------------------------------------------

   => Auxiliary Basis Set <=

  Basis Set: (AUG-CC-PVTZ AUX)
    Blend: AUG-CC-PVTZ-RI
    Number of shells: 420
    Number of basis functions: 1492
    Number of Cartesian functions: 1858
    Spherical Harmonics?: true
    Max angular momentum: 4

	 --------------------------------------------------------
	                 NBF =   690, NAUX =  1492
	 --------------------------------------------------------
	   CLASS    FOCC     OCC    AOCC    AVIR     VIR    FVIR
	   PAIRS       0      32      32     658     658       0
	 --------------------------------------------------------

  DFHelper Memory: AOs need 5.247 GiB; user supplied 22.352 GiB. Using in-core AOs.


         ------------------------------------------------------------
                                     CPHF                           
                                  Rob Parrish                       
         ------------------------------------------------------------

  ==> Geometry <==

    Molecular point group: c1
    Full point group: C1

    Geometry (in Angstrom), charge = 0, multiplicity = 1:

       Center              X                  Y                   Z               Mass       
    ------------   -----------------  -----------------  -----------------  -----------------
         N           -1.389621711385     0.004779295182    -0.341973230751    14.003074004430
         N            1.387974288615     0.004779295182     0.336475769249    14.003074004430
         C            0.733608288615    -1.186020704818    -0.195956230751    12.000000000000
         C           -0.727421511385    -1.231470004818     0.216600969249    12.000000000000
         C            0.733609288615     1.195580295182    -0.195955230751    12.000000000000
         C           -0.735256711385     1.195580295182     0.190457769249    12.000000000000
         C           -2.808372711385     0.004778295182    -0.017622230751    12.000000000000
         C            2.806724288615     0.004778295182     0.012122769249    12.000000000000
         H            0.817060288615    -1.239854704818    -1.298487230751     1.007825032230
         H            1.226564288615    -2.071127704818     0.223613769249     1.007825032230
         H            1.226565288615     2.080687295182     0.223614769249     1.007825032230
         H            0.817060288615     1.249415295182    -1.298486230751     1.007825032230
         H           -1.228211711385    -2.071127704818    -0.229110230751     1.007825032230
         H           -0.818707711385    -1.239854704818     1.292988769249     1.007825032230
         H           -0.818706711385     1.249414295182     1.292988769249     1.007825032230
         H           -1.228212711385     2.080687295182    -0.229111230751     1.007825032230
         H           -3.279392711385     0.891880295182    -0.450769230751     1.007825032230
         H           -2.999300711385     0.004778295182     1.070936769249     1.007825032230
         H           -3.279392711385    -0.882323704818    -0.450768230751     1.007825032230
         H            2.997651288615     0.004778295182    -1.076437230751     1.007825032230
         H            3.277745288615    -0.882323704818     0.445267769249     1.007825032230
         H            3.277746288615     0.891880295182     0.445267769249     1.007825032230

  Nuclear repulsion =  419.538759814144555
  Reference energy  = -344.349025392772944

  ==> Basis Set <==

  Basis Set: AUG-CC-PVTZ
    Blend: AUG-CC-PVTZ
    Number of shells: 238
    Number of basis functions: 690
    Number of Cartesian functions: 790
    Spherical Harmonics?: true
    Max angular momentum: 3

  ==> CGRSolver (by Rob Parrish) <==

   Number of roots    =         1
   Preconditioning    =    JACOBI
   Convergence cutoff =     1E-06
   Maximum iterations =       100

  ==> CPHFRHamiltonian (by Rob Parrish) <== 

  ==> MemDFJK: Density-Fitted J/K Matrices <==

    J tasked:                   Yes
    K tasked:                   Yes
    wK tasked:                   No
    OpenMP threads:              32
    Memory [MiB]:             22888
    Algorithm:                 Core
    Schwarz Cutoff:           1E-12
    Mask sparsity (%):       4.0878
    Fitting Condition:        1E-10

   => Auxiliary Basis Set <=

  Basis Set: (AUG-CC-PVTZ AUX)
    Blend: AUG-CC-PVTZ-JKFIT
    Number of shells: 436
    Number of basis functions: 1476
    Number of Cartesian functions: 1818
    Spherical Harmonics?: true
    Max angular momentum: 4

  ==> CPHF Iterations <==

  => Iterations <=

             Iter  Converged  Remaining    Residual
  CGR           1          0          1   7.470E-02
  CGR           2          0          1   1.658E-02
  CGR           3          0          1   6.559E-03
  CGR           4          0          1   1.906E-03
  CGR           5          0          1   5.331E-04
  CGR           6          0          1   1.547E-04
  CGR           7          0          1   3.605E-05
  CGR           8          0          1   8.012E-06
  CGR           9          0          1   2.171E-06
  CGR          10          1          0   7.321E-07

    CGRSolver converged.

	-----------------------------------------------------------
	 ==================> DF-MP2 Energies <==================== 
	-----------------------------------------------------------
	 Reference Energy          =    -344.3490253927729441 [Eh]
	 Singles Energy            =      -0.0000000000000000 [Eh]
	 Same-Spin Energy          =      -0.3687147676757093 [Eh]
	 Opposite-Spin Energy      =      -1.2706072433775473 [Eh]
	 Correlation Energy        =      -1.6393220110532565 [Eh]
	 Total Energy              =    -345.9883474038261966 [Eh]
	-----------------------------------------------------------
	 ================> DF-SCS-MP2 Energies <================== 
	-----------------------------------------------------------
	 SCS Same-Spin Scale       =       0.3333333333333333 [-]
	 SCS Opposite-Spin Scale   =       1.2000000000000000 [-]
	 SCS Same-Spin Energy      =      -0.1229049225585698 [Eh]
	 SCS Opposite-Spin Energy  =      -1.5247286920530567 [Eh]
	 SCS Correlation Energy    =      -1.6476336146116264 [Eh]
	 SCS Total Energy          =    -345.9966590073845509 [Eh]
	-----------------------------------------------------------



Properties will be evaluated at  -0.000000,   0.000000,   0.000000 [a0]

Properties computed using the MP2 density matrix

  Nuclear Dipole Moment: [e a0]
     X:    -0.0108      Y:     0.0627      Z:    -0.0361

  Electronic Dipole Moment: [e a0]
     X:     0.0283      Y:    -0.0984      Z:     0.0588

  Dipole Moment: [e a0]
     X:     0.0175      Y:    -0.0357      Z:     0.0227     Total:     0.0458

  Dipole Moment: [D]
     X:     0.0446      Y:    -0.0907      Z:     0.0577     Total:     0.1164


*** tstop() called on c405-024.stampede2.tacc.utexas.edu at Mon Mar  1 05:40:19 2021
Module time:
	user time   =    1827.90 seconds =      30.46 minutes
	system time =      59.88 seconds =       1.00 minutes
	total time  =        193 seconds =       3.22 minutes
Total time:
	user time   =    2414.52 seconds =      40.24 minutes
	system time =     101.73 seconds =       1.70 minutes
	total time  =        229 seconds =       3.82 minutes

    Psi4 stopped on: Monday, 01 March 2021 05:40AM
    Psi4 wall time for execution: 0:03:49.63

*** Psi4 exiting successfully. Buy a developer a beer!
