
    -----------------------------------------------------------------------
          Psi4: An Open-Source Ab Initio Electronic Structure Package
                               Psi4 1.3.2 release

                         Git: Rev {HEAD} ecbda83 


    R. M. Parrish, L. A. Burns, D. G. A. Smith, A. C. Simmonett,
    A. E. DePrince III, E. G. Hohenstein, U. Bozkaya, A. Yu. Sokolov,
    R. Di Remigio, R. M. Richard, J. F. Gonthier, A. M. James,
    H. R. McAlexander, A. Kumar, M. Saitow, X. Wang, B. P. Pritchard,
    P. Verma, H. F. Schaefer III, K. Patkowski, R. A. King, E. F. Valeev,
    F. A. Evangelista, J. M. Turney, T. D. Crawford, and C. D. Sherrill,
    J. Chem. Theory Comput. 13(7) pp 3185--3197 (2017).
    (doi: 10.1021/acs.jctc.7b00174)


                         Additional Contributions by
    P. Kraus, H. Kruse, M. H. Lechner, M. C. Schieber, R. A. Shaw,
    A. Alenaizan, R. Galvelis, Z. L. Glick, S. Lehtola, and J. P. Misiewicz

    -----------------------------------------------------------------------


    Psi4 started on: Tuesday, 03 November 2020 06:51AM

    Process ID: 37935
    Host:       node37.bme.utexas.edu
    PSIDATADIR: /home/xy3866/psi4conda/share/psi4
    Memory:     500.0 MiB
    Threads:    8
    
  ==> Input File <==

--------------------------------------------------------------------------
#psi4
#
memory 32 gb

molecule  {
0 1
  O        0.3002923    -0.6927509     1.0656342
  N       -0.6919670     0.7804610    -0.3498900
  C       -2.0331630     0.4428770     0.0915860
  C        1.7290747     0.5745863    -0.4616137
  C        0.4068390     0.1581200     0.1784230
  C       -2.5721020    -0.8329900    -0.5555930
  C        2.8806560    -0.3237650     0.0245060
  H       -1.9910630     0.3248240     1.1818950
  H       -2.6829100     1.2983230    -0.1207890
  H        1.6432190     0.5393270    -1.5482860
  H        1.9198310     1.6196100    -0.1921910
  H       -0.5759590     1.3845000    -1.1569370
  H       -2.6081430    -0.7287990    -1.6478990
  H       -1.9207320    -1.6762470    -0.2982990
  H       -3.5840310    -1.0569410    -0.1969260
  H        2.7105400    -1.3693420    -0.2530710
  H        3.8280690     0.0048160    -0.4188000
  H        2.9664850    -0.2871200     1.1156770
units angstrom
no_reorient  #important for SAPT in psi4, default
symmetry c1  #important for SAPT in psi4, default
}

set PROPERTIES_ORIGIN ["COM"]
properties('MP2/aug-cc-pvtz', properties = ['dipole'])
--------------------------------------------------------------------------

  Memory set to  29.802 GiB by Python driver.
    SCF Algorithm Type (re)set to DF.

*** tstart() called on node37.bme.utexas.edu
*** at Tue Nov  3 06:51:24 2020

   => Loading Basis Set <=

    Name: AUG-CC-PVTZ
    Role: ORBITAL
    Keyword: BASIS
    atoms 1    entry O          line   327 file /home/xy3866/psi4conda/share/psi4/basis/aug-cc-pvtz.gbs 
    atoms 2    entry N          line   281 file /home/xy3866/psi4conda/share/psi4/basis/aug-cc-pvtz.gbs 
    atoms 3-7  entry C          line   235 file /home/xy3866/psi4conda/share/psi4/basis/aug-cc-pvtz.gbs 
    atoms 8-18 entry H          line    36 file /home/xy3866/psi4conda/share/psi4/basis/aug-cc-pvtz.gbs 


         ---------------------------------------------------------
                                   SCF
               by Justin Turney, Rob Parrish, Andy Simmonett
                          and Daniel G. A. Smith
                              RHF Reference
                        8 Threads,  30517 MiB Core
         ---------------------------------------------------------

  ==> Geometry <==

    Molecular point group: c1
    Full point group: C1

    Geometry (in Angstrom), charge = 0, multiplicity = 1:

       Center              X                  Y                   Z               Mass       
    ------------   -----------------  -----------------  -----------------  -----------------
         O            0.302744308660    -0.694013874407     1.066528508188    15.994914619570
         N           -0.689514991340     0.779198025593    -0.348995691812    14.003074004430
         C           -2.030710991340     0.441614025593     0.092480308188    12.000000000000
         C            1.731526708660     0.573323325593    -0.460719391812    12.000000000000
         C            0.409291008660     0.156857025593     0.179317308188    12.000000000000
         C           -2.569649991340    -0.834252974407    -0.554698691812    12.000000000000
         C            2.883108008660    -0.325027974407     0.025400308188    12.000000000000
         H           -1.988610991340     0.323561025593     1.182789308188     1.007825032230
         H           -2.680457991340     1.297060025593    -0.119894691812     1.007825032230
         H            1.645671008660     0.538064025593    -1.547391691812     1.007825032230
         H            1.922283008660     1.618347025593    -0.191296691812     1.007825032230
         H           -0.573506991340     1.383237025593    -1.156042691812     1.007825032230
         H           -2.605690991340    -0.730061974407    -1.647004691812     1.007825032230
         H           -1.918279991340    -1.677509974407    -0.297404691812     1.007825032230
         H           -3.581578991340    -1.058203974407    -0.196031691812     1.007825032230
         H            2.712992008660    -1.370604974407    -0.252176691812     1.007825032230
         H            3.830521008660     0.003553025593    -0.417905691812     1.007825032230
         H            2.968937008660    -0.288382974407     1.116571308188     1.007825032230

  Running in c1 symmetry.

  Rotational constants: A =      0.20939  B =      0.04506  C =      0.04181 [cm^-1]
  Rotational constants: A =   6277.26105  B =   1350.76020  C =   1253.44826 [MHz]
  Nuclear repulsion =  313.639972807762376

  Charge       = 0
  Multiplicity = 1
  Electrons    = 56
  Nalpha       = 28
  Nbeta        = 28

  ==> Algorithm <==

  SCF Algorithm Type is DF.
  DIIS enabled.
  MOM disabled.
  Fractional occupation disabled.
  Guess Type is SAD.
  Energy threshold   = 1.00e-10
  Density threshold  = 1.00e-10
  Integral threshold = 0.00e+00

  ==> Primary Basis <==

  Basis Set: AUG-CC-PVTZ
    Blend: AUG-CC-PVTZ
    Number of shells: 197
    Number of basis function: 575
    Number of Cartesian functions: 660
    Spherical Harmonics?: true
    Max angular momentum: 3

   => Loading Basis Set <=

    Name: (AUG-CC-PVTZ AUX)
    Role: JKFIT
    Keyword: DF_BASIS_SCF
    atoms 1    entry O          line   286 file /home/xy3866/psi4conda/share/psi4/basis/aug-cc-pvtz-jkfit.gbs 
    atoms 2    entry N          line   224 file /home/xy3866/psi4conda/share/psi4/basis/aug-cc-pvtz-jkfit.gbs 
    atoms 3-7  entry C          line   162 file /home/xy3866/psi4conda/share/psi4/basis/aug-cc-pvtz-jkfit.gbs 
    atoms 8-18 entry H          line    70 file /home/xy3866/psi4conda/share/psi4/basis/aug-cc-pvtz-jkfit.gbs 

  ==> Pre-Iterations <==

   -------------------------------------------------------
    Irrep   Nso     Nmo     Nalpha   Nbeta   Ndocc  Nsocc
   -------------------------------------------------------
     A        575     575       0       0       0       0
   -------------------------------------------------------
    Total     575     575      28      28      28       0
   -------------------------------------------------------

  ==> Integral Setup <==

  DFHelper Memory: AOs need 2.976 GiB; user supplied 22.352 GiB. Using in-core AOs.

  ==> MemDFJK: Density-Fitted J/K Matrices <==

    J tasked:                   Yes
    K tasked:                   Yes
    wK tasked:                   No
    OpenMP threads:               8
    Memory [MiB]:             22888
    Algorithm:                 Disk
    Schwarz Cutoff:           1E-12
    Mask sparsity (%):       5.3160
    Fitting Condition:        1E-10

   => Auxiliary Basis Set <=

  Basis Set: (AUG-CC-PVTZ AUX)
    Blend: AUG-CC-PVTZ-JKFIT
    Number of shells: 364
    Number of basis function: 1234
    Number of Cartesian functions: 1522
    Spherical Harmonics?: true
    Max angular momentum: 4

  Minimum eigenvalue in the overlap matrix is 6.2816504076E-06.
  Using Symmetric Orthogonalization.

  SCF Guess: Superposition of Atomic Densities via on-the-fly atomic UHF.

  ==> Iterations <==

                           Total Energy        Delta E     RMS |[F,P]|

   @DF-RHF iter SAD:  -324.28545961150093   -3.24285e+02   0.00000e+00 
   @DF-RHF iter   1:  -324.90492888349144   -6.19469e-01   1.27311e-03 DIIS
   @DF-RHF iter   2:  -325.13168250108765   -2.26754e-01   6.91813e-04 DIIS
   @DF-RHF iter   3:  -325.19306900565550   -6.13865e-02   1.48919e-04 DIIS
   @DF-RHF iter   4:  -325.19726489868577   -4.19589e-03   6.66346e-05 DIIS
   @DF-RHF iter   5:  -325.19811647229540   -8.51574e-04   1.06807e-05 DIIS
   @DF-RHF iter   6:  -325.19816254195570   -4.60697e-05   4.72269e-06 DIIS
   @DF-RHF iter   7:  -325.19816944614809   -6.90419e-06   1.79951e-06 DIIS
   @DF-RHF iter   8:  -325.19817101958830   -1.57344e-06   7.78511e-07 DIIS
   @DF-RHF iter   9:  -325.19817134037243   -3.20784e-07   1.92748e-07 DIIS
   @DF-RHF iter  10:  -325.19817136035988   -1.99875e-08   5.40768e-08 DIIS
   @DF-RHF iter  11:  -325.19817136151647   -1.15659e-09   1.65034e-08 DIIS
   @DF-RHF iter  12:  -325.19817136160850   -9.20295e-11   4.90893e-09 DIIS
   @DF-RHF iter  13:  -325.19817136161697   -8.46967e-12   1.45089e-09 DIIS
   @DF-RHF iter  14:  -325.19817136161709   -1.13687e-13   5.83221e-10 DIIS
   @DF-RHF iter  15:  -325.19817136161686    2.27374e-13   1.54225e-10 DIIS
   @DF-RHF iter  16:  -325.19817136161828   -1.42109e-12   5.02189e-11 DIIS
  Energy and wave function converged.


  ==> Post-Iterations <==

    Orbital Energies [Eh]
    ---------------------

    Doubly Occupied:                                                      

       1A    -20.514471     2A    -15.580254     3A    -11.346150  
       4A    -11.261657     5A    -11.242490     6A    -11.217004  
       7A    -11.214675     8A     -1.369022     9A     -1.224440  
      10A     -1.053818    11A     -1.005412    12A     -0.894191  
      13A     -0.836323    14A     -0.776195    15A     -0.692814  
      16A     -0.648026    17A     -0.635065    18A     -0.604790  
      19A     -0.586960    20A     -0.573382    21A     -0.533453  
      22A     -0.515403    23A     -0.513828    24A     -0.508926  
      25A     -0.496057    26A     -0.483452    27A     -0.419048  
      28A     -0.386007  

    Virtual:                                                              

      29A      0.023172    30A      0.032698    31A      0.036828  
      32A      0.039579    33A      0.050339    34A      0.052061  
      35A      0.054264    36A      0.061360    37A      0.066875  
      38A      0.073291    39A      0.078646    40A      0.099445  
      41A      0.107355    42A      0.109213    43A      0.113096  
      44A      0.120622    45A      0.125284    46A      0.131416  
      47A      0.136224    48A      0.140111    49A      0.141749  
      50A      0.145127    51A      0.152636    52A      0.157422  
      53A      0.157830    54A      0.167839    55A      0.177076  
      56A      0.184510    57A      0.187211    58A      0.193265  
      59A      0.200939    60A      0.209725    61A      0.215182  
      62A      0.230269    63A      0.231666    64A      0.242846  
      65A      0.246158    66A      0.251889    67A      0.255447  
      68A      0.272050    69A      0.277861    70A      0.278654  
      71A      0.289068    72A      0.290883    73A      0.304499  
      74A      0.309430    75A      0.312301    76A      0.313617  
      77A      0.326573    78A      0.333777    79A      0.334874  
      80A      0.343224    81A      0.344354    82A      0.351122  
      83A      0.356589    84A      0.361396    85A      0.365975  
      86A      0.367079    87A      0.368904    88A      0.382621  
      89A      0.383971    90A      0.386549    91A      0.401399  
      92A      0.405349    93A      0.411305    94A      0.414480  
      95A      0.417634    96A      0.420858    97A      0.422107  
      98A      0.429541    99A      0.430789   100A      0.438137  
     101A      0.442190   102A      0.444475   103A      0.451793  
     104A      0.453237   105A      0.459637   106A      0.465443  
     107A      0.469698   108A      0.475019   109A      0.477150  
     110A      0.487639   111A      0.493610   112A      0.498412  
     113A      0.503399   114A      0.504967   115A      0.510117  
     116A      0.512163   117A      0.522353   118A      0.531233  
     119A      0.532286   120A      0.537925   121A      0.546037  
     122A      0.552879   123A      0.559959   124A      0.564124  
     125A      0.567395   126A      0.574203   127A      0.579529  
     128A      0.587367   129A      0.592679   130A      0.600878  
     131A      0.605449   132A      0.616624   133A      0.619855  
     134A      0.628785   135A      0.635881   136A      0.651145  
     137A      0.656220   138A      0.660148   139A      0.692718  
     140A      0.702351   141A      0.710839   142A      0.716165  
     143A      0.737821   144A      0.745389   145A      0.755596  
     146A      0.766026   147A      0.767794   148A      0.783861  
     149A      0.801139   150A      0.805030   151A      0.810654  
     152A      0.820645   153A      0.824821   154A      0.831229  
     155A      0.838604   156A      0.842478   157A      0.848306  
     158A      0.851652   159A      0.860212   160A      0.864157  
     161A      0.868190   162A      0.881250   163A      0.887303  
     164A      0.888680   165A      0.893179   166A      0.903437  
     167A      0.911554   168A      0.918535   169A      0.926760  
     170A      0.930054   171A      0.939350   172A      0.943381  
     173A      0.946883   174A      0.952848   175A      0.955257  
     176A      0.966627   177A      0.969929   178A      0.983586  
     179A      0.991281   180A      1.001848   181A      1.003940  
     182A      1.006204   183A      1.014087   184A      1.027273  
     185A      1.033477   186A      1.038882   187A      1.048250  
     188A      1.052162   189A      1.062192   190A      1.069131  
     191A      1.077061   192A      1.083621   193A      1.093650  
     194A      1.097863   195A      1.104289   196A      1.105917  
     197A      1.116144   198A      1.122543   199A      1.127356  
     200A      1.137919   201A      1.147181   202A      1.154530  
     203A      1.157736   204A      1.165311   205A      1.175428  
     206A      1.183699   207A      1.187059   208A      1.198936  
     209A      1.207035   210A      1.213530   211A      1.219297  
     212A      1.230539   213A      1.236705   214A      1.240500  
     215A      1.254055   216A      1.263213   217A      1.265515  
     218A      1.272472   219A      1.277028   220A      1.284306  
     221A      1.302080   222A      1.315753   223A      1.318669  
     224A      1.319730   225A      1.334042   226A      1.336985  
     227A      1.351139   228A      1.355984   229A      1.364310  
     230A      1.375531   231A      1.389195   232A      1.392809  
     233A      1.406133   234A      1.412443   235A      1.415865  
     236A      1.428973   237A      1.448523   238A      1.454391  
     239A      1.462322   240A      1.475982   241A      1.478534  
     242A      1.487314   243A      1.505864   244A      1.511391  
     245A      1.519459   246A      1.530283   247A      1.543298  
     248A      1.545937   249A      1.566764   250A      1.577786  
     251A      1.590552   252A      1.597672   253A      1.603121  
     254A      1.611287   255A      1.618918   256A      1.633632  
     257A      1.646066   258A      1.649571   259A      1.662045  
     260A      1.672841   261A      1.677377   262A      1.681812  
     263A      1.686234   264A      1.694118   265A      1.707833  
     266A      1.712286   267A      1.722160   268A      1.725051  
     269A      1.728976   270A      1.733629   271A      1.744035  
     272A      1.757449   273A      1.767826   274A      1.779796  
     275A      1.788637   276A      1.793339   277A      1.800033  
     278A      1.809314   279A      1.827270   280A      1.833944  
     281A      1.842668   282A      1.848681   283A      1.858040  
     284A      1.862199   285A      1.878276   286A      1.892354  
     287A      1.902392   288A      1.910785   289A      1.925709  
     290A      1.932835   291A      1.946303   292A      1.955771  
     293A      1.968190   294A      1.974761   295A      1.981472  
     296A      1.992327   297A      2.001982   298A      2.012917  
     299A      2.020479   300A      2.032145   301A      2.038019  
     302A      2.043563   303A      2.056128   304A      2.080950  
     305A      2.104260   306A      2.121123   307A      2.157039  
     308A      2.163503   309A      2.170559   310A      2.187630  
     311A      2.197947   312A      2.212450   313A      2.222004  
     314A      2.233192   315A      2.246423   316A      2.257988  
     317A      2.261275   318A      2.269865   319A      2.273591  
     320A      2.283964   321A      2.290965   322A      2.312048  
     323A      2.327782   324A      2.347332   325A      2.359896  
     326A      2.369926   327A      2.386122   328A      2.400556  
     329A      2.416865   330A      2.440709   331A      2.450372  
     332A      2.468349   333A      2.474561   334A      2.500958  
     335A      2.526154   336A      2.526847   337A      2.558940  
     338A      2.569611   339A      2.587233   340A      2.611006  
     341A      2.645104   342A      2.660232   343A      2.686091  
     344A      2.720794   345A      2.731148   346A      2.740678  
     347A      2.761056   348A      2.805154   349A      2.811012  
     350A      2.839426   351A      2.873784   352A      2.878345  
     353A      2.900877   354A      2.934130   355A      2.986419  
     356A      3.017252   357A      3.029412   358A      3.070735  
     359A      3.093263   360A      3.137875   361A      3.207261  
     362A      3.236056   363A      3.257201   364A      3.296275  
     365A      3.339041   366A      3.356293   367A      3.391169  
     368A      3.406070   369A      3.422364   370A      3.442546  
     371A      3.456029   372A      3.476403   373A      3.491647  
     374A      3.500343   375A      3.513098   376A      3.536235  
     377A      3.549196   378A      3.578733   379A      3.590719  
     380A      3.597451   381A      3.622683   382A      3.646659  
     383A      3.663806   384A      3.669567   385A      3.677148  
     386A      3.685912   387A      3.705612   388A      3.710217  
     389A      3.719700   390A      3.727446   391A      3.743696  
     392A      3.763700   393A      3.775105   394A      3.776710  
     395A      3.793877   396A      3.804882   397A      3.821677  
     398A      3.829783   399A      3.845250   400A      3.865659  
     401A      3.872667   402A      3.893244   403A      3.900582  
     404A      3.915403   405A      3.924742   406A      3.945094  
     407A      3.957017   408A      3.966151   409A      3.973213  
     410A      3.980632   411A      3.997562   412A      4.011632  
     413A      4.024316   414A      4.030484   415A      4.041767  
     416A      4.060746   417A      4.077576   418A      4.079803  
     419A      4.087231   420A      4.095942   421A      4.104551  
     422A      4.124047   423A      4.138556   424A      4.155628  
     425A      4.162517   426A      4.186043   427A      4.198562  
     428A      4.208618   429A      4.215903   430A      4.235109  
     431A      4.247250   432A      4.267890   433A      4.276263  
     434A      4.287912   435A      4.306233   436A      4.317952  
     437A      4.347350   438A      4.357833   439A      4.394697  
     440A      4.405743   441A      4.420661   442A      4.433556  
     443A      4.442956   444A      4.458442   445A      4.470513  
     446A      4.497049   447A      4.513107   448A      4.530265  
     449A      4.552438   450A      4.563812   451A      4.583723  
     452A      4.595108   453A      4.608346   454A      4.640505  
     455A      4.643961   456A      4.663120   457A      4.680558  
     458A      4.697505   459A      4.719044   460A      4.738586  
     461A      4.754386   462A      4.768797   463A      4.783777  
     464A      4.801826   465A      4.838187   466A      4.842152  
     467A      4.856182   468A      4.857009   469A      4.872448  
     470A      4.877038   471A      4.881521   472A      4.895281  
     473A      4.917989   474A      4.926838   475A      4.959662  
     476A      4.967026   477A      4.983690   478A      5.006584  
     479A      5.029129   480A      5.048014   481A      5.059658  
     482A      5.080141   483A      5.091069   484A      5.113857  
     485A      5.141174   486A      5.153852   487A      5.160073  
     488A      5.173050   489A      5.198663   490A      5.211695  
     491A      5.240951   492A      5.257683   493A      5.264600  
     494A      5.308092   495A      5.326205   496A      5.344910  
     497A      5.349294   498A      5.367546   499A      5.378572  
     500A      5.378824   501A      5.400588   502A      5.418804  
     503A      5.428997   504A      5.452260   505A      5.467778  
     506A      5.482400   507A      5.516415   508A      5.554604  
     509A      5.576147   510A      5.600900   511A      5.612241  
     512A      5.621865   513A      5.639486   514A      5.648486  
     515A      5.684121   516A      5.715020   517A      5.721539  
     518A      5.751033   519A      5.775556   520A      5.794186  
     521A      5.804249   522A      5.831350   523A      5.856109  
     524A      5.898294   525A      5.949628   526A      5.978109  
     527A      6.001822   528A      6.021039   529A      6.058085  
     530A      6.080375   531A      6.116873   532A      6.164948  
     533A      6.183655   534A      6.194504   535A      6.197554  
     536A      6.218045   537A      6.233595   538A      6.238804  
     539A      6.271680   540A      6.305748   541A      6.354438  
     542A      6.393647   543A      6.412258   544A      6.497836  
     545A      6.534672   546A      6.731920   547A      6.750585  
     548A      6.763582   549A      6.795524   550A      6.813114  
     551A      6.849927   552A      6.861396   553A      6.867550  
     554A      6.912242   555A      6.931598   556A      6.959720  
     557A      6.992804   558A      7.123776   559A      7.243638  
     560A      7.267761   561A      7.489191   562A      7.517399  
     563A      7.621357   564A      7.712756   565A      7.738009  
     566A      7.774990   567A      7.994436   568A      8.087686  
     569A     15.633139   570A     16.923381   571A     17.481683  
     572A     17.781749   573A     18.407439   574A     18.837348  
     575A     20.491157  

    Final Occupation by Irrep:
              A 
    DOCC [    28 ]

  @DF-RHF Final Energy:  -325.19817136161828

   => Energetics <=

    Nuclear Repulsion Energy =            313.6399728077623763
    One-Electron Energy =               -1063.4096610170315671
    Two-Electron Energy =                 424.5715168476508552
    Total Energy =                       -325.1981713616182788

Computation Completed

*** tstop() called on node37.bme.utexas.edu at Tue Nov  3 06:52:30 2020
Module time:
	user time   =     225.03 seconds =       3.75 minutes
	system time =      53.05 seconds =       0.88 minutes
	total time  =         66 seconds =       1.10 minutes
Total time:
	user time   =     225.03 seconds =       3.75 minutes
	system time =      53.05 seconds =       0.88 minutes
	total time  =         66 seconds =       1.10 minutes
   => Loading Basis Set <=

    Name: (AUG-CC-PVTZ AUX)
    Role: RIFIT
    Keyword: DF_BASIS_MP2
    atoms 1    entry O          line   264 file /home/xy3866/psi4conda/share/psi4/basis/aug-cc-pvtz-ri.gbs 
    atoms 2    entry N          line   206 file /home/xy3866/psi4conda/share/psi4/basis/aug-cc-pvtz-ri.gbs 
    atoms 3-7  entry C          line   148 file /home/xy3866/psi4conda/share/psi4/basis/aug-cc-pvtz-ri.gbs 
    atoms 8-18 entry H          line    30 file /home/xy3866/psi4conda/share/psi4/basis/aug-cc-pvtz-ri.gbs 


*** tstart() called on node37.bme.utexas.edu
*** at Tue Nov  3 06:52:30 2020


  //>>>>>>>>>>>>>>>>>>>>>>>>>>>>>>>>>>>//
  //               DFMP2               //
  //<<<<<<<<<<<<<<<<<<<<<<<<<<<<<<<<<<<//

	 --------------------------------------------------------
	                          DF-MP2                         
	      2nd-Order Density-Fitted Moller-Plesset Theory     
	              RMP2 Wavefunction,   8 Threads             
	                                                         
	        Rob Parrish, Justin Turney, Andy Simmonett,      
	           Ed Hohenstein, and C. David Sherrill          
	 --------------------------------------------------------

   => Auxiliary Basis Set <=

  Basis Set: (AUG-CC-PVTZ AUX)
    Blend: AUG-CC-PVTZ-RI
    Number of shells: 350
    Number of basis function: 1248
    Number of Cartesian functions: 1557
    Spherical Harmonics?: true
    Max angular momentum: 4

	 --------------------------------------------------------
	                 NBF =   575, NAUX =  1248
	 --------------------------------------------------------
	   CLASS    FOCC     OCC    AOCC    AVIR     VIR    FVIR
	   PAIRS       0      28      28     547     547       0
	 --------------------------------------------------------

  DFHelper Memory: AOs need 2.976 GiB; user supplied 22.352 GiB. Using in-core AOs.


         ------------------------------------------------------------
                                     CPHF                           
                                  Rob Parrish                       
         ------------------------------------------------------------

  ==> Geometry <==

    Molecular point group: c1
    Full point group: C1

    Geometry (in Angstrom), charge = 0, multiplicity = 1:

       Center              X                  Y                   Z               Mass       
    ------------   -----------------  -----------------  -----------------  -----------------
         O            0.302744308660    -0.694013874407     1.066528508188    15.994914619570
         N           -0.689514991340     0.779198025593    -0.348995691812    14.003074004430
         C           -2.030710991340     0.441614025593     0.092480308188    12.000000000000
         C            1.731526708660     0.573323325593    -0.460719391812    12.000000000000
         C            0.409291008660     0.156857025593     0.179317308188    12.000000000000
         C           -2.569649991340    -0.834252974407    -0.554698691812    12.000000000000
         C            2.883108008660    -0.325027974407     0.025400308188    12.000000000000
         H           -1.988610991340     0.323561025593     1.182789308188     1.007825032230
         H           -2.680457991340     1.297060025593    -0.119894691812     1.007825032230
         H            1.645671008660     0.538064025593    -1.547391691812     1.007825032230
         H            1.922283008660     1.618347025593    -0.191296691812     1.007825032230
         H           -0.573506991340     1.383237025593    -1.156042691812     1.007825032230
         H           -2.605690991340    -0.730061974407    -1.647004691812     1.007825032230
         H           -1.918279991340    -1.677509974407    -0.297404691812     1.007825032230
         H           -3.581578991340    -1.058203974407    -0.196031691812     1.007825032230
         H            2.712992008660    -1.370604974407    -0.252176691812     1.007825032230
         H            3.830521008660     0.003553025593    -0.417905691812     1.007825032230
         H            2.968937008660    -0.288382974407     1.116571308188     1.007825032230

  Nuclear repulsion =  313.639972807762376
  Reference energy  = -325.198171361618279

  ==> Basis Set <==

  Basis Set: AUG-CC-PVTZ
    Blend: AUG-CC-PVTZ
    Number of shells: 197
    Number of basis function: 575
    Number of Cartesian functions: 660
    Spherical Harmonics?: true
    Max angular momentum: 3

  ==> CGRSolver (by Rob Parrish) <==

   Number of roots    =         1
   Preconditioning    =    JACOBI
   Convergence cutoff =     1E-06
   Maximum iterations =       100

  ==> CPHFRHamiltonian (by Rob Parrish) <== 

  ==> MemDFJK: Density-Fitted J/K Matrices <==

    J tasked:                   Yes
    K tasked:                   Yes
    wK tasked:                   No
    OpenMP threads:               8
    Memory [MiB]:             22888
    Algorithm:                 Disk
    Schwarz Cutoff:           1E-12
    Mask sparsity (%):       5.3160
    Fitting Condition:        1E-10

   => Auxiliary Basis Set <=

  Basis Set: (AUG-CC-PVTZ AUX)
    Blend: AUG-CC-PVTZ-JKFIT
    Number of shells: 364
    Number of basis function: 1234
    Number of Cartesian functions: 1522
    Spherical Harmonics?: true
    Max angular momentum: 4

  ==> CPHF Iterations <==

  => Iterations <=

             Iter  Converged  Remaining    Residual
  CGR           1          0          1   1.173E-01
  CGR           2          0          1   3.515E-02
  CGR           3          0          1   1.302E-02
  CGR           4          0          1   3.369E-03
  CGR           5          0          1   1.215E-03
  CGR           6          0          1   3.901E-04
  CGR           7          0          1   1.300E-04
  CGR           8          0          1   5.391E-05
  CGR           9          0          1   1.880E-05
  CGR          10          0          1   6.226E-06
  CGR          11          0          1   1.625E-06
  CGR          12          1          0   5.369E-07

    CGRSolver converged.

	-----------------------------------------------------------
	 ==================> DF-MP2 Energies <==================== 
	-----------------------------------------------------------
	 Reference Energy          =    -325.1981713616182788 [Eh]
	 Singles Energy            =      -0.0000000000000000 [Eh]
	 Same-Spin Energy          =      -0.3318063551801994 [Eh]
	 Opposite-Spin Energy      =      -1.1194568662228388 [Eh]
	 Correlation Energy        =      -1.4512632214030381 [Eh]
	 Total Energy              =    -326.6494345830213319 [Eh]
	-----------------------------------------------------------
	 ================> DF-SCS-MP2 Energies <================== 
	-----------------------------------------------------------
	 SCS Same-Spin Scale       =       0.3333333333333333 [-]
	 SCS Opposite-Spin Scale   =       1.2000000000000000 [-]
	 SCS Same-Spin Energy      =      -0.1106021183933998 [Eh]
	 SCS Opposite-Spin Energy  =      -1.3433482394674066 [Eh]
	 SCS Correlation Energy    =      -1.4539503578608064 [Eh]
	 SCS Total Energy          =    -326.6521217194791120 [Eh]
	-----------------------------------------------------------



Properties will be evaluated at   0.000000,  -0.000000,   0.000000 [a0]

Properties computed using the MP2 density matrix

  Nuclear Dipole Moment: [e a0]
     X:    -0.2475      Y:     0.0310      Z:    -3.2992

  Electronic Dipole Moment: [e a0]
     X:    -0.0161      Y:     0.8525      Z:     2.2830

  Dipole Moment: [e a0]
     X:    -0.2636      Y:     0.8835      Z:    -1.0162     Total:     1.3722

  Dipole Moment: [D]
     X:    -0.6700      Y:     2.2457      Z:    -2.5830     Total:     3.4877


*** tstop() called on node37.bme.utexas.edu at Tue Nov  3 06:54:36 2020
Module time:
	user time   =     599.01 seconds =       9.98 minutes
	system time =      71.99 seconds =       1.20 minutes
	total time  =        126 seconds =       2.10 minutes
Total time:
	user time   =     825.24 seconds =      13.75 minutes
	system time =     125.15 seconds =       2.09 minutes
	total time  =        192 seconds =       3.20 minutes

    Psi4 stopped on: Tuesday, 03 November 2020 06:54AM
    Psi4 wall time for execution: 0:03:13.43

*** Psi4 exiting successfully. Buy a developer a beer!
