
    -----------------------------------------------------------------------
          Psi4: An Open-Source Ab Initio Electronic Structure Package
                               Psi4 1.3.2 release

                         Git: Rev {HEAD} ecbda83 


    R. M. Parrish, L. A. Burns, D. G. A. Smith, A. C. Simmonett,
    A. E. DePrince III, E. G. Hohenstein, U. Bozkaya, A. Yu. Sokolov,
    R. Di Remigio, R. M. Richard, J. F. Gonthier, A. M. James,
    H. R. McAlexander, A. Kumar, M. Saitow, X. Wang, B. P. Pritchard,
    P. Verma, H. F. Schaefer III, K. Patkowski, R. A. King, E. F. Valeev,
    F. A. Evangelista, J. M. Turney, T. D. Crawford, and C. D. Sherrill,
    J. Chem. Theory Comput. 13(7) pp 3185--3197 (2017).
    (doi: 10.1021/acs.jctc.7b00174)


                         Additional Contributions by
    P. Kraus, H. Kruse, M. H. Lechner, M. C. Schieber, R. A. Shaw,
    A. Alenaizan, R. Galvelis, Z. L. Glick, S. Lehtola, and J. P. Misiewicz

    -----------------------------------------------------------------------


    Psi4 started on: Tuesday, 03 November 2020 08:29AM

    Process ID: 48877
    Host:       node37.bme.utexas.edu
    PSIDATADIR: /home/xy3866/psi4conda/share/psi4
    Memory:     500.0 MiB
    Threads:    8
    
  ==> Input File <==

--------------------------------------------------------------------------
#psi4
#
memory 32 gb

molecule  {
0 1
  O        0.3109550    -0.6942360     1.0654250
  N       -0.6848898     0.7864416    -0.3574294
  C       -2.0331630     0.4428770     0.0915860
  C        1.7290209     0.5742094    -0.4619699
  C        0.4068390     0.1581200     0.1784230
  C       -2.5721020    -0.8329900    -0.5555930
  C        2.8806560    -0.3237650     0.0245060
  H       -1.9910630     0.3248240     1.1818950
  H       -2.6829100     1.2983230    -0.1207890
  H        1.6432190     0.5393270    -1.5482860
  H        1.9198310     1.6196100    -0.1921910
  H       -0.5759590     1.3845000    -1.1569370
  H       -2.6081430    -0.7287990    -1.6478990
  H       -1.9207320    -1.6762470    -0.2982990
  H       -3.5840310    -1.0569410    -0.1969260
  H        2.7105400    -1.3693420    -0.2530710
  H        3.8280690     0.0048160    -0.4188000
  H        2.9664850    -0.2871200     1.1156770
units angstrom
no_reorient  #important for SAPT in psi4, default
symmetry c1  #important for SAPT in psi4, default
}

set PROPERTIES_ORIGIN ["COM"]
properties('MP2/aug-cc-pvtz', properties = ['dipole'])
--------------------------------------------------------------------------

  Memory set to  29.802 GiB by Python driver.
    SCF Algorithm Type (re)set to DF.

*** tstart() called on node37.bme.utexas.edu
*** at Tue Nov  3 08:29:55 2020

   => Loading Basis Set <=

    Name: AUG-CC-PVTZ
    Role: ORBITAL
    Keyword: BASIS
    atoms 1    entry O          line   327 file /home/xy3866/psi4conda/share/psi4/basis/aug-cc-pvtz.gbs 
    atoms 2    entry N          line   281 file /home/xy3866/psi4conda/share/psi4/basis/aug-cc-pvtz.gbs 
    atoms 3-7  entry C          line   235 file /home/xy3866/psi4conda/share/psi4/basis/aug-cc-pvtz.gbs 
    atoms 8-18 entry H          line    36 file /home/xy3866/psi4conda/share/psi4/basis/aug-cc-pvtz.gbs 


         ---------------------------------------------------------
                                   SCF
               by Justin Turney, Rob Parrish, Andy Simmonett
                          and Daniel G. A. Smith
                              RHF Reference
                        8 Threads,  30517 MiB Core
         ---------------------------------------------------------

  ==> Geometry <==

    Molecular point group: c1
    Full point group: C1

    Geometry (in Angstrom), charge = 0, multiplicity = 1:

       Center              X                  Y                   Z               Mass       
    ------------   -----------------  -----------------  -----------------  -----------------
         O            0.310745798565    -0.696047724966     1.067439121815    15.994914619570
         N           -0.685099001435     0.784629875034    -0.355415278185    14.003074004430
         C           -2.033372201435     0.441065275034     0.093600121815    12.000000000000
         C            1.728811698565     0.572397675034    -0.459955778185    12.000000000000
         C            0.406629798565     0.156308275034     0.180437121815    12.000000000000
         C           -2.572311201435    -0.834801724966    -0.553578878185    12.000000000000
         C            2.880446798565    -0.325576724966     0.026520121815    12.000000000000
         H           -1.991272201435     0.323012275034     1.183909121815     1.007825032230
         H           -2.683119201435     1.296511275034    -0.118774878185     1.007825032230
         H            1.643009798565     0.537515275034    -1.546271878185     1.007825032230
         H            1.919621798565     1.617798275034    -0.190176878185     1.007825032230
         H           -0.576168201435     1.382688275034    -1.154922878185     1.007825032230
         H           -2.608352201435    -0.730610724966    -1.645884878185     1.007825032230
         H           -1.920941201435    -1.678058724966    -0.296284878185     1.007825032230
         H           -3.584240201435    -1.058752724966    -0.194911878185     1.007825032230
         H            2.710330798565    -1.371153724966    -0.251056878185     1.007825032230
         H            3.827859798565     0.003004275034    -0.416785878185     1.007825032230
         H            2.966275798565    -0.288931724966     1.117691121815     1.007825032230

  Running in c1 symmetry.

  Rotational constants: A =      0.20884  B =      0.04506  C =      0.04179 [cm^-1]
  Rotational constants: A =   6260.75854  B =   1350.96492  C =   1252.71267 [MHz]
  Nuclear repulsion =  313.496195329728437

  Charge       = 0
  Multiplicity = 1
  Electrons    = 56
  Nalpha       = 28
  Nbeta        = 28

  ==> Algorithm <==

  SCF Algorithm Type is DF.
  DIIS enabled.
  MOM disabled.
  Fractional occupation disabled.
  Guess Type is SAD.
  Energy threshold   = 1.00e-10
  Density threshold  = 1.00e-10
  Integral threshold = 0.00e+00

  ==> Primary Basis <==

  Basis Set: AUG-CC-PVTZ
    Blend: AUG-CC-PVTZ
    Number of shells: 197
    Number of basis function: 575
    Number of Cartesian functions: 660
    Spherical Harmonics?: true
    Max angular momentum: 3

   => Loading Basis Set <=

    Name: (AUG-CC-PVTZ AUX)
    Role: JKFIT
    Keyword: DF_BASIS_SCF
    atoms 1    entry O          line   286 file /home/xy3866/psi4conda/share/psi4/basis/aug-cc-pvtz-jkfit.gbs 
    atoms 2    entry N          line   224 file /home/xy3866/psi4conda/share/psi4/basis/aug-cc-pvtz-jkfit.gbs 
    atoms 3-7  entry C          line   162 file /home/xy3866/psi4conda/share/psi4/basis/aug-cc-pvtz-jkfit.gbs 
    atoms 8-18 entry H          line    70 file /home/xy3866/psi4conda/share/psi4/basis/aug-cc-pvtz-jkfit.gbs 

  ==> Pre-Iterations <==

   -------------------------------------------------------
    Irrep   Nso     Nmo     Nalpha   Nbeta   Ndocc  Nsocc
   -------------------------------------------------------
     A        575     575       0       0       0       0
   -------------------------------------------------------
    Total     575     575      28      28      28       0
   -------------------------------------------------------

  ==> Integral Setup <==

  DFHelper Memory: AOs need 2.976 GiB; user supplied 22.352 GiB. Using in-core AOs.

  ==> MemDFJK: Density-Fitted J/K Matrices <==

    J tasked:                   Yes
    K tasked:                   Yes
    wK tasked:                   No
    OpenMP threads:               8
    Memory [MiB]:             22888
    Algorithm:                 Disk
    Schwarz Cutoff:           1E-12
    Mask sparsity (%):       5.3172
    Fitting Condition:        1E-10

   => Auxiliary Basis Set <=

  Basis Set: (AUG-CC-PVTZ AUX)
    Blend: AUG-CC-PVTZ-JKFIT
    Number of shells: 364
    Number of basis function: 1234
    Number of Cartesian functions: 1522
    Spherical Harmonics?: true
    Max angular momentum: 4

  Minimum eigenvalue in the overlap matrix is 6.2761043424E-06.
  Using Symmetric Orthogonalization.

  SCF Guess: Superposition of Atomic Densities via on-the-fly atomic UHF.

  ==> Iterations <==

                           Total Energy        Delta E     RMS |[F,P]|

   @DF-RHF iter SAD:  -324.27344895839565   -3.24273e+02   0.00000e+00 
   @DF-RHF iter   1:  -324.90629190480183   -6.32843e-01   1.27046e-03 DIIS
   @DF-RHF iter   2:  -325.13252170280742   -2.26230e-01   6.87771e-04 DIIS
   @DF-RHF iter   3:  -325.19319043293729   -6.06687e-02   1.48963e-04 DIIS
   @DF-RHF iter   4:  -325.19737143106892   -4.18100e-03   6.66928e-05 DIIS
   @DF-RHF iter   5:  -325.19822300598651   -8.51575e-04   1.05648e-05 DIIS
   @DF-RHF iter   6:  -325.19826845342902   -4.54474e-05   4.59494e-06 DIIS
   @DF-RHF iter   7:  -325.19827508514976   -6.63172e-06   1.77501e-06 DIIS
   @DF-RHF iter   8:  -325.19827659291809   -1.50777e-06   7.68090e-07 DIIS
   @DF-RHF iter   9:  -325.19827690475614   -3.11838e-07   1.90778e-07 DIIS
   @DF-RHF iter  10:  -325.19827692442914   -1.96730e-08   5.30277e-08 DIIS
   @DF-RHF iter  11:  -325.19827692554190   -1.11277e-09   1.61340e-08 DIIS
   @DF-RHF iter  12:  -325.19827692562654   -8.46399e-11   4.79185e-09 DIIS
   @DF-RHF iter  13:  -325.19827692563518   -8.64020e-12   1.42082e-09 DIIS
   @DF-RHF iter  14:  -325.19827692563683   -1.64846e-12   5.67188e-10 DIIS
   @DF-RHF iter  15:  -325.19827692563632    5.11591e-13   1.48577e-10 DIIS
   @DF-RHF iter  16:  -325.19827692563638   -5.68434e-14   4.73301e-11 DIIS
  Energy and wave function converged.


  ==> Post-Iterations <==

    Orbital Energies [Eh]
    ---------------------

    Doubly Occupied:                                                      

       1A    -20.515081     2A    -15.580255     3A    -11.346280  
       4A    -11.262904     5A    -11.241290     6A    -11.216230  
       7A    -11.215385     8A     -1.368730     9A     -1.224659  
      10A     -1.052946    11A     -1.005881    12A     -0.893455  
      13A     -0.835891    14A     -0.779511    15A     -0.692195  
      16A     -0.647042    17A     -0.634499    18A     -0.604480  
      19A     -0.588298    20A     -0.573213    21A     -0.533486  
      22A     -0.514963    23A     -0.513667    24A     -0.508060  
      25A     -0.496202    26A     -0.483723    27A     -0.418737  
      28A     -0.387441  

    Virtual:                                                              

      29A      0.023193    30A      0.032725    31A      0.036833  
      32A      0.039573    33A      0.050335    34A      0.052104  
      35A      0.054234    36A      0.061361    37A      0.066867  
      38A      0.073280    39A      0.078639    40A      0.099509  
      41A      0.107304    42A      0.109304    43A      0.113158  
      44A      0.120695    45A      0.125223    46A      0.131395  
      47A      0.136285    48A      0.140177    49A      0.141818  
      50A      0.145267    51A      0.152552    52A      0.157429  
      53A      0.157815    54A      0.167945    55A      0.177088  
      56A      0.184342    57A      0.187366    58A      0.193174  
      59A      0.200905    60A      0.209718    61A      0.215193  
      62A      0.230285    63A      0.231683    64A      0.242843  
      65A      0.246280    66A      0.251894    67A      0.255565  
      68A      0.271993    69A      0.277814    70A      0.278649  
      71A      0.289134    72A      0.291070    73A      0.304339  
      74A      0.309366    75A      0.312299    76A      0.313738  
      77A      0.326658    78A      0.333825    79A      0.334756  
      80A      0.343099    81A      0.344437    82A      0.351033  
      83A      0.356627    84A      0.361394    85A      0.365991  
      86A      0.367271    87A      0.369062    88A      0.382683  
      89A      0.384020    90A      0.386485    91A      0.401437  
      92A      0.405105    93A      0.411205    94A      0.414533  
      95A      0.417683    96A      0.420943    97A      0.421819  
      98A      0.429664    99A      0.430603   100A      0.437663  
     101A      0.442200   102A      0.444138   103A      0.451297  
     104A      0.453288   105A      0.459763   106A      0.465331  
     107A      0.469698   108A      0.475180   109A      0.477440  
     110A      0.487640   111A      0.493507   112A      0.498152  
     113A      0.503790   114A      0.505042   115A      0.510388  
     116A      0.512282   117A      0.522490   118A      0.531045  
     119A      0.532246   120A      0.537972   121A      0.546066  
     122A      0.552704   123A      0.559972   124A      0.564154  
     125A      0.566928   126A      0.574154   127A      0.579328  
     128A      0.586369   129A      0.592612   130A      0.600063  
     131A      0.605450   132A      0.616344   133A      0.619951  
     134A      0.629318   135A      0.635416   136A      0.651243  
     137A      0.656435   138A      0.659056   139A      0.691940  
     140A      0.702755   141A      0.710501   142A      0.716702  
     143A      0.737171   144A      0.745309   145A      0.756367  
     146A      0.766208   147A      0.768584   148A      0.783860  
     149A      0.800810   150A      0.804922   151A      0.810667  
     152A      0.820386   153A      0.824545   154A      0.830662  
     155A      0.838703   156A      0.842643   157A      0.848692  
     158A      0.851353   159A      0.859740   160A      0.863868  
     161A      0.868053   162A      0.881028   163A      0.887438  
     164A      0.888630   165A      0.893348   166A      0.903939  
     167A      0.911879   168A      0.918468   169A      0.926599  
     170A      0.930588   171A      0.939217   172A      0.943460  
     173A      0.947167   174A      0.953110   175A      0.955288  
     176A      0.966594   177A      0.969643   178A      0.983614  
     179A      0.991461   180A      1.001878   181A      1.003802  
     182A      1.006025   183A      1.014174   184A      1.026954  
     185A      1.033020   186A      1.038849   187A      1.047964  
     188A      1.052544   189A      1.062030   190A      1.069372  
     191A      1.076583   192A      1.083719   193A      1.093782  
     194A      1.097956   195A      1.105118   196A      1.105964  
     197A      1.116032   198A      1.122596   199A      1.127583  
     200A      1.137611   201A      1.146740   202A      1.154518  
     203A      1.157893   204A      1.165217   205A      1.174910  
     206A      1.184100   207A      1.187297   208A      1.198848  
     209A      1.207366   210A      1.214070   211A      1.219156  
     212A      1.229982   213A      1.236701   214A      1.240393  
     215A      1.253578   216A      1.262559   217A      1.265436  
     218A      1.272891   219A      1.277506   220A      1.284662  
     221A      1.302349   222A      1.315637   223A      1.319154  
     224A      1.319711   225A      1.334430   226A      1.336506  
     227A      1.350583   228A      1.356305   229A      1.364454  
     230A      1.375476   231A      1.389238   232A      1.392351  
     233A      1.404931   234A      1.412554   235A      1.416549  
     236A      1.428931   237A      1.448603   238A      1.454639  
     239A      1.462272   240A      1.476877   241A      1.477854  
     242A      1.487396   243A      1.505536   244A      1.511594  
     245A      1.519439   246A      1.530731   247A      1.542358  
     248A      1.546167   249A      1.566795   250A      1.578370  
     251A      1.591417   252A      1.596966   253A      1.603296  
     254A      1.611600   255A      1.618658   256A      1.633615  
     257A      1.645660   258A      1.649758   259A      1.660992  
     260A      1.672634   261A      1.677180   262A      1.681893  
     263A      1.686952   264A      1.694600   265A      1.707481  
     266A      1.711132   267A      1.721924   268A      1.724590  
     269A      1.729184   270A      1.733820   271A      1.743857  
     272A      1.756806   273A      1.767444   274A      1.779775  
     275A      1.788769   276A      1.793191   277A      1.799664  
     278A      1.808928   279A      1.827495   280A      1.833312  
     281A      1.841957   282A      1.848548   283A      1.856646  
     284A      1.862356   285A      1.878516   286A      1.892095  
     287A      1.902729   288A      1.910211   289A      1.925064  
     290A      1.932836   291A      1.946678   292A      1.955024  
     293A      1.967565   294A      1.975146   295A      1.980470  
     296A      1.992210   297A      2.001816   298A      2.013516  
     299A      2.020116   300A      2.032830   301A      2.037761  
     302A      2.042569   303A      2.057186   304A      2.081350  
     305A      2.104813   306A      2.121292   307A      2.155180  
     308A      2.162231   309A      2.171323   310A      2.187249  
     311A      2.198792   312A      2.213391   313A      2.222138  
     314A      2.233694   315A      2.246512   316A      2.258440  
     317A      2.261405   318A      2.270408   319A      2.273552  
     320A      2.284114   321A      2.291244   322A      2.312017  
     323A      2.330258   324A      2.347191   325A      2.359148  
     326A      2.370316   327A      2.386827   328A      2.400676  
     329A      2.416670   330A      2.440831   331A      2.450500  
     332A      2.468404   333A      2.474838   334A      2.500439  
     335A      2.524586   336A      2.525629   337A      2.557371  
     338A      2.569143   339A      2.585877   340A      2.611315  
     341A      2.642018   342A      2.658801   343A      2.688011  
     344A      2.718428   345A      2.731202   346A      2.739468  
     347A      2.761821   348A      2.803151   349A      2.810375  
     350A      2.838414   351A      2.869685   352A      2.880655  
     353A      2.897101   354A      2.932665   355A      2.986317  
     356A      3.013757   357A      3.027565   358A      3.069692  
     359A      3.092336   360A      3.135931   361A      3.204544  
     362A      3.231973   363A      3.257539   364A      3.297869  
     365A      3.337625   366A      3.356607   367A      3.390989  
     368A      3.404582   369A      3.422681   370A      3.443006  
     371A      3.455711   372A      3.475727   373A      3.492649  
     374A      3.502578   375A      3.513870   376A      3.536430  
     377A      3.549399   378A      3.579014   379A      3.590633  
     380A      3.597929   381A      3.622221   382A      3.645919  
     383A      3.663943   384A      3.669706   385A      3.677012  
     386A      3.685708   387A      3.705786   388A      3.709707  
     389A      3.719189   390A      3.727874   391A      3.744680  
     392A      3.764059   393A      3.776011   394A      3.777673  
     395A      3.793142   396A      3.805037   397A      3.821675  
     398A      3.831406   399A      3.843850   400A      3.865916  
     401A      3.871968   402A      3.892267   403A      3.899730  
     404A      3.914673   405A      3.924020   406A      3.945466  
     407A      3.954248   408A      3.966171   409A      3.973224  
     410A      3.981247   411A      3.997771   412A      4.011800  
     413A      4.022628   414A      4.030299   415A      4.040399  
     416A      4.061374   417A      4.076692   418A      4.079944  
     419A      4.088809   420A      4.093867   421A      4.103121  
     422A      4.125781   423A      4.137189   424A      4.156738  
     425A      4.162117   426A      4.185653   427A      4.198726  
     428A      4.207600   429A      4.215723   430A      4.233905  
     431A      4.246499   432A      4.267765   433A      4.275550  
     434A      4.287643   435A      4.306380   436A      4.316584  
     437A      4.347050   438A      4.356577   439A      4.394928  
     440A      4.405362   441A      4.418795   442A      4.435669  
     443A      4.444604   444A      4.458263   445A      4.470363  
     446A      4.496960   447A      4.512705   448A      4.530353  
     449A      4.552488   450A      4.561679   451A      4.582099  
     452A      4.594535   453A      4.607901   454A      4.639680  
     455A      4.647457   456A      4.663086   457A      4.680844  
     458A      4.697670   459A      4.717365   460A      4.742075  
     461A      4.755365   462A      4.767145   463A      4.783813  
     464A      4.802185   465A      4.838955   466A      4.840624  
     467A      4.855834   468A      4.857446   469A      4.875022  
     470A      4.876705   471A      4.881144   472A      4.894197  
     473A      4.920325   474A      4.927170   475A      4.959340  
     476A      4.967016   477A      4.983718   478A      5.010005  
     479A      5.030348   480A      5.047809   481A      5.060134  
     482A      5.082147   483A      5.091282   484A      5.114760  
     485A      5.142758   486A      5.155445   487A      5.160390  
     488A      5.172221   489A      5.198375   490A      5.214550  
     491A      5.240492   492A      5.258186   493A      5.264346  
     494A      5.308167   495A      5.324447   496A      5.344123  
     497A      5.348955   498A      5.364987   499A      5.377676  
     500A      5.379844   501A      5.399766   502A      5.419942  
     503A      5.429961   504A      5.452430   505A      5.470857  
     506A      5.481736   507A      5.516204   508A      5.555298  
     509A      5.577086   510A      5.600849   511A      5.612380  
     512A      5.622091   513A      5.641060   514A      5.647975  
     515A      5.683485   516A      5.714228   517A      5.720488  
     518A      5.748974   519A      5.776392   520A      5.794924  
     521A      5.804360   522A      5.831453   523A      5.853838  
     524A      5.897314   525A      5.942688   526A      5.973133  
     527A      6.000922   528A      6.021237   529A      6.066082  
     530A      6.080161   531A      6.117958   532A      6.165396  
     533A      6.182662   534A      6.194997   535A      6.197490  
     536A      6.219966   537A      6.238460   538A      6.240691  
     539A      6.270647   540A      6.303810   541A      6.353985  
     542A      6.391672   543A      6.407570   544A      6.499571  
     545A      6.528673   546A      6.735297   547A      6.751337  
     548A      6.766017   549A      6.796780   550A      6.818255  
     551A      6.858036   552A      6.862934   553A      6.876051  
     554A      6.913310   555A      6.929094   556A      6.953462  
     557A      6.980715   558A      7.124390   559A      7.241346  
     560A      7.267253   561A      7.488550   562A      7.517580  
     563A      7.617648   564A      7.723908   565A      7.751509  
     566A      7.777998   567A      7.993578   568A      8.086736  
     569A     15.634022   570A     16.958724   571A     17.476639  
     572A     17.762374   573A     18.415220   574A     18.778098  
     575A     20.515681  

    Final Occupation by Irrep:
              A 
    DOCC [    28 ]

  @DF-RHF Final Energy:  -325.19827692563638

   => Energetics <=

    Nuclear Repulsion Energy =            313.4961953297284367
    One-Electron Energy =               -1063.1199352341727717
    Two-Electron Energy =                 424.4254629788080138
    Total Energy =                       -325.1982769256363781

Computation Completed

*** tstop() called on node37.bme.utexas.edu at Tue Nov  3 08:31:03 2020
Module time:
	user time   =     231.43 seconds =       3.86 minutes
	system time =      54.65 seconds =       0.91 minutes
	total time  =         68 seconds =       1.13 minutes
Total time:
	user time   =     231.43 seconds =       3.86 minutes
	system time =      54.65 seconds =       0.91 minutes
	total time  =         68 seconds =       1.13 minutes
   => Loading Basis Set <=

    Name: (AUG-CC-PVTZ AUX)
    Role: RIFIT
    Keyword: DF_BASIS_MP2
    atoms 1    entry O          line   264 file /home/xy3866/psi4conda/share/psi4/basis/aug-cc-pvtz-ri.gbs 
    atoms 2    entry N          line   206 file /home/xy3866/psi4conda/share/psi4/basis/aug-cc-pvtz-ri.gbs 
    atoms 3-7  entry C          line   148 file /home/xy3866/psi4conda/share/psi4/basis/aug-cc-pvtz-ri.gbs 
    atoms 8-18 entry H          line    30 file /home/xy3866/psi4conda/share/psi4/basis/aug-cc-pvtz-ri.gbs 


*** tstart() called on node37.bme.utexas.edu
*** at Tue Nov  3 08:31:03 2020


  //>>>>>>>>>>>>>>>>>>>>>>>>>>>>>>>>>>>//
  //               DFMP2               //
  //<<<<<<<<<<<<<<<<<<<<<<<<<<<<<<<<<<<//

	 --------------------------------------------------------
	                          DF-MP2                         
	      2nd-Order Density-Fitted Moller-Plesset Theory     
	              RMP2 Wavefunction,   8 Threads             
	                                                         
	        Rob Parrish, Justin Turney, Andy Simmonett,      
	           Ed Hohenstein, and C. David Sherrill          
	 --------------------------------------------------------

   => Auxiliary Basis Set <=

  Basis Set: (AUG-CC-PVTZ AUX)
    Blend: AUG-CC-PVTZ-RI
    Number of shells: 350
    Number of basis function: 1248
    Number of Cartesian functions: 1557
    Spherical Harmonics?: true
    Max angular momentum: 4

	 --------------------------------------------------------
	                 NBF =   575, NAUX =  1248
	 --------------------------------------------------------
	   CLASS    FOCC     OCC    AOCC    AVIR     VIR    FVIR
	   PAIRS       0      28      28     547     547       0
	 --------------------------------------------------------

  DFHelper Memory: AOs need 2.976 GiB; user supplied 22.352 GiB. Using in-core AOs.


         ------------------------------------------------------------
                                     CPHF                           
                                  Rob Parrish                       
         ------------------------------------------------------------

  ==> Geometry <==

    Molecular point group: c1
    Full point group: C1

    Geometry (in Angstrom), charge = 0, multiplicity = 1:

       Center              X                  Y                   Z               Mass       
    ------------   -----------------  -----------------  -----------------  -----------------
         O            0.310745798565    -0.696047724966     1.067439121815    15.994914619570
         N           -0.685099001435     0.784629875034    -0.355415278185    14.003074004430
         C           -2.033372201435     0.441065275034     0.093600121815    12.000000000000
         C            1.728811698565     0.572397675034    -0.459955778185    12.000000000000
         C            0.406629798565     0.156308275034     0.180437121815    12.000000000000
         C           -2.572311201435    -0.834801724966    -0.553578878185    12.000000000000
         C            2.880446798565    -0.325576724966     0.026520121815    12.000000000000
         H           -1.991272201435     0.323012275034     1.183909121815     1.007825032230
         H           -2.683119201435     1.296511275034    -0.118774878185     1.007825032230
         H            1.643009798565     0.537515275034    -1.546271878185     1.007825032230
         H            1.919621798565     1.617798275034    -0.190176878185     1.007825032230
         H           -0.576168201435     1.382688275034    -1.154922878185     1.007825032230
         H           -2.608352201435    -0.730610724966    -1.645884878185     1.007825032230
         H           -1.920941201435    -1.678058724966    -0.296284878185     1.007825032230
         H           -3.584240201435    -1.058752724966    -0.194911878185     1.007825032230
         H            2.710330798565    -1.371153724966    -0.251056878185     1.007825032230
         H            3.827859798565     0.003004275034    -0.416785878185     1.007825032230
         H            2.966275798565    -0.288931724966     1.117691121815     1.007825032230

  Nuclear repulsion =  313.496195329728437
  Reference energy  = -325.198276925636378

  ==> Basis Set <==

  Basis Set: AUG-CC-PVTZ
    Blend: AUG-CC-PVTZ
    Number of shells: 197
    Number of basis function: 575
    Number of Cartesian functions: 660
    Spherical Harmonics?: true
    Max angular momentum: 3

  ==> CGRSolver (by Rob Parrish) <==

   Number of roots    =         1
   Preconditioning    =    JACOBI
   Convergence cutoff =     1E-06
   Maximum iterations =       100

  ==> CPHFRHamiltonian (by Rob Parrish) <== 

  ==> MemDFJK: Density-Fitted J/K Matrices <==

    J tasked:                   Yes
    K tasked:                   Yes
    wK tasked:                   No
    OpenMP threads:               8
    Memory [MiB]:             22888
    Algorithm:                 Disk
    Schwarz Cutoff:           1E-12
    Mask sparsity (%):       5.3172
    Fitting Condition:        1E-10

   => Auxiliary Basis Set <=

  Basis Set: (AUG-CC-PVTZ AUX)
    Blend: AUG-CC-PVTZ-JKFIT
    Number of shells: 364
    Number of basis function: 1234
    Number of Cartesian functions: 1522
    Spherical Harmonics?: true
    Max angular momentum: 4

  ==> CPHF Iterations <==

  => Iterations <=

             Iter  Converged  Remaining    Residual
  CGR           1          0          1   1.170E-01
  CGR           2          0          1   3.507E-02
  CGR           3          0          1   1.299E-02
  CGR           4          0          1   3.370E-03
  CGR           5          0          1   1.223E-03
  CGR           6          0          1   3.907E-04
  CGR           7          0          1   1.298E-04
  CGR           8          0          1   5.360E-05
  CGR           9          0          1   1.874E-05
  CGR          10          0          1   6.231E-06
  CGR          11          0          1   1.645E-06
  CGR          12          1          0   5.572E-07

    CGRSolver converged.

	-----------------------------------------------------------
	 ==================> DF-MP2 Energies <==================== 
	-----------------------------------------------------------
	 Reference Energy          =    -325.1982769256363781 [Eh]
	 Singles Energy            =      -0.0000000000000000 [Eh]
	 Same-Spin Energy          =      -0.3316919604950410 [Eh]
	 Opposite-Spin Energy      =      -1.1193522919229246 [Eh]
	 Correlation Energy        =      -1.4510442524179656 [Eh]
	 Total Energy              =    -326.6493211780543220 [Eh]
	-----------------------------------------------------------
	 ================> DF-SCS-MP2 Energies <================== 
	-----------------------------------------------------------
	 SCS Same-Spin Scale       =       0.3333333333333333 [-]
	 SCS Opposite-Spin Scale   =       1.2000000000000000 [-]
	 SCS Same-Spin Energy      =      -0.1105639868316803 [Eh]
	 SCS Opposite-Spin Energy  =      -1.3432227503075096 [Eh]
	 SCS Correlation Energy    =      -1.4537867371391899 [Eh]
	 SCS Total Energy          =    -326.6520636627755607 [Eh]
	-----------------------------------------------------------



Properties will be evaluated at   0.000000,   0.000000,   0.000000 [a0]

Properties computed using the MP2 density matrix

  Nuclear Dipole Moment: [e a0]
     X:    -0.2749      Y:     0.0253      Z:    -3.2876

  Electronic Dipole Moment: [e a0]
     X:    -0.0142      Y:     0.8539      Z:     2.2755

  Dipole Moment: [e a0]
     X:    -0.2891      Y:     0.8793      Z:    -1.0121     Total:     1.3715

  Dipole Moment: [D]
     X:    -0.7349      Y:     2.2349      Z:    -2.5725     Total:     3.4860


*** tstop() called on node37.bme.utexas.edu at Tue Nov  3 08:33:07 2020
Module time:
	user time   =     595.00 seconds =       9.92 minutes
	system time =      71.57 seconds =       1.19 minutes
	total time  =        124 seconds =       2.07 minutes
Total time:
	user time   =     827.51 seconds =      13.79 minutes
	system time =     126.32 seconds =       2.11 minutes
	total time  =        192 seconds =       3.20 minutes

    Psi4 stopped on: Tuesday, 03 November 2020 08:33AM
    Psi4 wall time for execution: 0:03:13.22

*** Psi4 exiting successfully. Buy a developer a beer!
