
    -----------------------------------------------------------------------
          Psi4: An Open-Source Ab Initio Electronic Structure Package
                               Psi4 1.4a3.dev225 

                         Git: Rev {master} 7105e37 


    D. G. A. Smith, L. A. Burns, A. C. Simmonett, R. M. Parrish,
    M. C. Schieber, R. Galvelis, P. Kraus, H. Kruse, R. Di Remigio,
    A. Alenaizan, A. M. James, S. Lehtola, J. P. Misiewicz, M. Scheurer,
    R. A. Shaw, J. B. Schriber, Y. Xie, Z. L. Glick, D. A. Sirianni,
    J. S. O'Brien, J. M. Waldrop, A. Kumar, E. G. Hohenstein,
    B. P. Pritchard, B. R. Brooks, H. F. Schaefer III, A. Yu. Sokolov,
    K. Patkowski, A. E. DePrince III, U. Bozkaya, R. A. King,
    F. A. Evangelista, J. M. Turney, T. D. Crawford, C. D. Sherrill,
    J. Chem. Phys. 152(18) 184108 (2020). https://doi.org/10.1063/5.0006002

                            Additional Code Authors
    E. T. Seidl, C. L. Janssen, E. F. Valeev, M. L. Leininger,
    J. F. Gonthier, R. M. Richard, H. R. McAlexander, M. Saitow, X. Wang,
    P. Verma, and M. H. Lechner

             Previous Authors, Complete List of Code Contributors,
                       and Citations for Specific Modules
    https://github.com/psi4/psi4/blob/master/codemeta.json
    https://github.com/psi4/psi4/graphs/contributors
    http://psicode.org/psi4manual/master/introduction.html#citing-psifour

    -----------------------------------------------------------------------


    Psi4 started on: Friday, 19 March 2021 11:38PM

    Process ID: 274249
    Host:       c445-082.stampede2.tacc.utexas.edu
    PSIDATADIR: /home1/07844/xy3866/miniconda3/envs/p4env/share/psi4
    Memory:     500.0 MiB
    Threads:    32
    
  ==> Input File <==

--------------------------------------------------------------------------
#psi4
#
memory 32 gb

molecule  {
0 1
  O        0.3358460     1.2965490    -0.1579670
  N       -0.6355700    -0.7573960    -0.3171250
  C       -1.9537600    -0.2153280    -0.6135720
  C        1.6888930    -0.6226540     0.4213110
  C        0.4180064     0.0499233    -0.0395508
  C       -2.7106350     0.2148780     0.6378230
  C        2.9315370     0.1212560    -0.0546130
  H       -1.8024690     0.6408050    -1.2743770
  H       -2.5093410    -0.9768490    -1.1692540
  H        1.6661620    -0.6499400     1.5181760
  H        1.7013640    -1.6638910     0.0787670
  H       -0.5536820    -1.7388620    -0.0859220
  H       -2.8566760    -0.6308240     1.3159630
  H       -2.1451200     0.9906390     1.1579850
  H       -3.6935760     0.6181720     0.3752940
  H        2.8830370     1.1639450     0.2613510
  H        3.8370830    -0.3350390     0.3539010
  H        2.9990550     0.1035600    -1.1453320
units angstrom
no_reorient  #important for SAPT in psi4, default
symmetry c1  #important for SAPT in psi4, default
}

set PROPERTIES_ORIGIN ["COM"]
properties('MP2/aug-cc-pvtz', properties = ['dipole'])
--------------------------------------------------------------------------

  Memory set to  29.802 GiB by Python driver.
    SCF Algorithm Type (re)set to DF.

*** tstart() called on c445-082.stampede2.tacc.utexas.edu
*** at Fri Mar 19 23:38:30 2021

   => Loading Basis Set <=

    Name: AUG-CC-PVTZ
    Role: ORBITAL
    Keyword: BASIS
    atoms 1    entry O          line   331 file /home1/07844/xy3866/miniconda3/envs/p4env/share/psi4/basis/aug-cc-pvtz.gbs 
    atoms 2    entry N          line   285 file /home1/07844/xy3866/miniconda3/envs/p4env/share/psi4/basis/aug-cc-pvtz.gbs 
    atoms 3-7  entry C          line   239 file /home1/07844/xy3866/miniconda3/envs/p4env/share/psi4/basis/aug-cc-pvtz.gbs 
    atoms 8-18 entry H          line    40 file /home1/07844/xy3866/miniconda3/envs/p4env/share/psi4/basis/aug-cc-pvtz.gbs 


         ---------------------------------------------------------
                                   SCF
               by Justin Turney, Rob Parrish, Andy Simmonett
                          and Daniel G. A. Smith
                              RHF Reference
                       32 Threads,  30517 MiB Core
         ---------------------------------------------------------

  ==> Geometry <==

    Molecular point group: c1
    Full point group: C1

    Geometry (in Angstrom), charge = 0, multiplicity = 1:

       Center              X                  Y                   Z               Mass       
    ------------   -----------------  -----------------  -----------------  -----------------
         O            0.331072568951     1.274670721890    -0.144579990673    15.994914619570
         N           -0.640343431049    -0.779274278110    -0.303737990673    14.003074004430
         C           -1.958533431049    -0.237206278110    -0.600184990673    12.000000000000
         C            1.684119568951    -0.644532278110     0.434698009327    12.000000000000
         C            0.413232968951     0.028045021890    -0.026163790673    12.000000000000
         C           -2.715408431049     0.192999721890     0.651210009327    12.000000000000
         C            2.926763568951     0.099377721890    -0.041225990673    12.000000000000
         H           -1.807242431049     0.618926721890    -1.260989990673     1.007825032230
         H           -2.514114431049    -0.998727278110    -1.155866990673     1.007825032230
         H            1.661388568951    -0.671818278110     1.531563009327     1.007825032230
         H            1.696590568951    -1.685769278110     0.092154009327     1.007825032230
         H           -0.558455431049    -1.760740278110    -0.072534990673     1.007825032230
         H           -2.861449431049    -0.652702278110     1.329350009327     1.007825032230
         H           -2.149893431049     0.968760721890     1.171372009327     1.007825032230
         H           -3.698349431049     0.596293721890     0.388681009327     1.007825032230
         H            2.878263568951     1.142066721890     0.274738009327     1.007825032230
         H            3.832309568951    -0.356917278110     0.367288009327     1.007825032230
         H            2.994281568951     0.081681721890    -1.131944990673     1.007825032230

  Running in c1 symmetry.

  Rotational constants: A =      0.22413  B =      0.04449  C =      0.04140 [cm^-1]
  Rotational constants: A =   6719.38721  B =   1333.75977  C =   1241.19587 [MHz]
  Nuclear repulsion =  313.913464960908584

  Charge       = 0
  Multiplicity = 1
  Electrons    = 56
  Nalpha       = 28
  Nbeta        = 28

  ==> Algorithm <==

  SCF Algorithm Type is DF.
  DIIS enabled.
  MOM disabled.
  Fractional occupation disabled.
  Guess Type is SAD.
  Energy threshold   = 1.00e-10
  Density threshold  = 1.00e-10
  Integral threshold = 1.00e-12

  ==> Primary Basis <==

  Basis Set: AUG-CC-PVTZ
    Blend: AUG-CC-PVTZ
    Number of shells: 197
    Number of basis functions: 575
    Number of Cartesian functions: 660
    Spherical Harmonics?: true
    Max angular momentum: 3

   => Loading Basis Set <=

    Name: (AUG-CC-PVTZ AUX)
    Role: JKFIT
    Keyword: DF_BASIS_SCF
    atoms 1    entry O          line   286 file /home1/07844/xy3866/miniconda3/envs/p4env/share/psi4/basis/aug-cc-pvtz-jkfit.gbs 
    atoms 2    entry N          line   224 file /home1/07844/xy3866/miniconda3/envs/p4env/share/psi4/basis/aug-cc-pvtz-jkfit.gbs 
    atoms 3-7  entry C          line   162 file /home1/07844/xy3866/miniconda3/envs/p4env/share/psi4/basis/aug-cc-pvtz-jkfit.gbs 
    atoms 8-18 entry H          line    70 file /home1/07844/xy3866/miniconda3/envs/p4env/share/psi4/basis/aug-cc-pvtz-jkfit.gbs 

  ==> Integral Setup <==

  DFHelper Memory: AOs need 2.926 GiB; user supplied 22.352 GiB. Using in-core AOs.

  ==> MemDFJK: Density-Fitted J/K Matrices <==

    J tasked:                   Yes
    K tasked:                   Yes
    wK tasked:                   No
    OpenMP threads:              32
    Memory [MiB]:             22888
    Algorithm:                 Core
    Schwarz Cutoff:           1E-12
    Mask sparsity (%):       8.9043
    Fitting Condition:        1E-10

   => Auxiliary Basis Set <=

  Basis Set: (AUG-CC-PVTZ AUX)
    Blend: AUG-CC-PVTZ-JKFIT
    Number of shells: 364
    Number of basis functions: 1234
    Number of Cartesian functions: 1522
    Spherical Harmonics?: true
    Max angular momentum: 4

  Minimum eigenvalue in the overlap matrix is 5.3398056544E-06.
  Reciprocal condition number of the overlap matrix is 2.8686793157E-07.
    Using symmetric orthogonalization.

  ==> Pre-Iterations <==

  SCF Guess: Superposition of Atomic Densities via on-the-fly atomic UHF (no occupation information).

   -------------------------
    Irrep   Nso     Nmo    
   -------------------------
     A        575     575 
   -------------------------
    Total     575     575
   -------------------------

  ==> Iterations <==

                           Total Energy        Delta E     RMS |[F,P]|

   @DF-RHF iter SAD:  -324.32557474715924   -3.24326e+02   0.00000e+00 
   @DF-RHF iter   1:  -324.90115212345916   -5.75577e-01   1.28051e-03 DIIS
   @DF-RHF iter   2:  -325.12889800502467   -2.27746e-01   7.04888e-04 DIIS
   @DF-RHF iter   3:  -325.19210494705789   -6.32069e-02   1.55256e-04 DIIS
   @DF-RHF iter   4:  -325.19648347866075   -4.37853e-03   6.78037e-05 DIIS
   @DF-RHF iter   5:  -325.19738019472481   -8.96716e-04   1.03848e-05 DIIS
   @DF-RHF iter   6:  -325.19742420524591   -4.40105e-05   4.49521e-06 DIIS
   @DF-RHF iter   7:  -325.19743022679631   -6.02155e-06   1.70382e-06 DIIS
   @DF-RHF iter   8:  -325.19743164560401   -1.41881e-06   7.28731e-07 DIIS
   @DF-RHF iter   9:  -325.19743194198617   -2.96382e-07   1.83815e-07 DIIS
   @DF-RHF iter  10:  -325.19743196145396   -1.94678e-08   5.60008e-08 DIIS
   @DF-RHF iter  11:  -325.19743196266609   -1.21213e-09   1.77098e-08 DIIS
   @DF-RHF iter  12:  -325.19743196278097   -1.14881e-10   4.87458e-09 DIIS
   @DF-RHF iter  13:  -325.19743196279165   -1.06866e-11   1.43159e-09 DIIS
   @DF-RHF iter  14:  -325.19743196279222   -5.68434e-13   6.21642e-10 DIIS
   @DF-RHF iter  15:  -325.19743196279217    5.68434e-14   2.00524e-10 DIIS
   @DF-RHF iter  16:  -325.19743196279222   -5.68434e-14   7.73480e-11 DIIS
  Energy and wave function converged.


  ==> Post-Iterations <==

    Orbital Energies [Eh]
    ---------------------

    Doubly Occupied:                                                      

       1A    -20.507967     2A    -15.586135     3A    -11.345610  
       4A    -11.263264     5A    -11.241277     6A    -11.216409  
       7A    -11.215720     8A     -1.356390     9A     -1.227696  
      10A     -1.058772    11A     -1.010989    12A     -0.897572  
      13A     -0.840559    14A     -0.780193    15A     -0.692318  
      16A     -0.656550    17A     -0.621495    18A     -0.604602  
      19A     -0.591903    20A     -0.578253    21A     -0.532610  
      22A     -0.527391    23A     -0.513077    24A     -0.504549  
      25A     -0.496682    26A     -0.480106    27A     -0.415954  
      28A     -0.387958  

    Virtual:                                                              

      29A      0.022783    30A      0.032487    31A      0.036368  
      32A      0.039902    33A      0.051260    34A      0.051802  
      35A      0.053662    36A      0.062071    37A      0.067988  
      38A      0.073260    39A      0.078515    40A      0.098809  
      41A      0.105459    42A      0.109727    43A      0.114318  
      44A      0.120551    45A      0.124018    46A      0.126766  
      47A      0.134769    48A      0.141718    49A      0.144361  
      50A      0.148267    51A      0.151642    52A      0.155080  
      53A      0.160322    54A      0.166845    55A      0.177547  
      56A      0.181057    57A      0.186501    58A      0.191308  
      59A      0.202264    60A      0.211478    61A      0.217553  
      62A      0.225476    63A      0.231859    64A      0.240753  
      65A      0.244236    66A      0.252916    67A      0.257205  
      68A      0.268945    69A      0.277335    70A      0.282959  
      71A      0.286509    72A      0.293136    73A      0.300442  
      74A      0.308432    75A      0.311196    76A      0.316845  
      77A      0.325775    78A      0.332677    79A      0.336123  
      80A      0.343274    81A      0.348871    82A      0.352152  
      83A      0.357115    84A      0.360220    85A      0.362259  
      86A      0.371211    87A      0.374270    88A      0.378157  
      89A      0.385415    90A      0.387387    91A      0.395778  
      92A      0.402168    93A      0.403530    94A      0.410541  
      95A      0.414014    96A      0.419684    97A      0.426865  
      98A      0.429017    99A      0.432451   100A      0.434652  
     101A      0.443154   102A      0.446519   103A      0.452243  
     104A      0.458213   105A      0.460954   106A      0.465194  
     107A      0.471165   108A      0.476990   109A      0.484019  
     110A      0.485088   111A      0.491780   112A      0.496242  
     113A      0.502925   114A      0.509984   115A      0.514117  
     116A      0.516179   117A      0.523510   118A      0.526601  
     119A      0.533318   120A      0.540034   121A      0.548214  
     122A      0.552758   123A      0.557872   124A      0.560514  
     125A      0.566742   126A      0.575622   127A      0.576903  
     128A      0.585218   129A      0.593641   130A      0.601056  
     131A      0.609326   132A      0.616349   133A      0.621236  
     134A      0.637564   135A      0.641813   136A      0.645897  
     137A      0.665190   138A      0.673969   139A      0.675496  
     140A      0.693426   141A      0.705929   142A      0.724575  
     143A      0.729305   144A      0.740376   145A      0.750862  
     146A      0.765595   147A      0.773528   148A      0.782723  
     149A      0.790104   150A      0.797016   151A      0.814549  
     152A      0.823695   153A      0.828463   154A      0.833493  
     155A      0.839854   156A      0.843729   157A      0.848496  
     158A      0.856265   159A      0.864940   160A      0.867195  
     161A      0.875654   162A      0.882781   163A      0.886868  
     164A      0.888634   165A      0.900470   166A      0.903836  
     167A      0.907235   168A      0.915198   169A      0.929042  
     170A      0.934582   171A      0.940195   172A      0.942265  
     173A      0.950548   174A      0.957297   175A      0.968031  
     176A      0.969659   177A      0.973850   178A      0.977906  
     179A      0.992301   180A      0.994230   181A      0.996624  
     182A      1.011714   183A      1.015483   184A      1.021634  
     185A      1.029484   186A      1.034251   187A      1.045438  
     188A      1.050148   189A      1.059397   190A      1.062913  
     191A      1.071354   192A      1.078886   193A      1.094721  
     194A      1.102969   195A      1.105409   196A      1.108892  
     197A      1.117906   198A      1.131366   199A      1.136928  
     200A      1.146311   201A      1.150276   202A      1.154732  
     203A      1.157001   204A      1.168522   205A      1.174532  
     206A      1.180912   207A      1.190511   208A      1.200370  
     209A      1.210883   210A      1.217466   211A      1.222326  
     212A      1.237509   213A      1.240564   214A      1.248860  
     215A      1.256680   216A      1.261142   217A      1.273231  
     218A      1.274616   219A      1.280314   220A      1.287690  
     221A      1.299331   222A      1.307306   223A      1.321311  
     224A      1.326175   225A      1.331464   226A      1.339703  
     227A      1.347474   228A      1.364699   229A      1.368073  
     230A      1.378535   231A      1.380921   232A      1.397059  
     233A      1.404005   234A      1.416109   235A      1.419480  
     236A      1.429126   237A      1.443434   238A      1.458331  
     239A      1.464772   240A      1.474615   241A      1.490170  
     242A      1.498085   243A      1.508892   244A      1.513408  
     245A      1.516588   246A      1.534151   247A      1.549291  
     248A      1.557129   249A      1.564945   250A      1.577833  
     251A      1.585535   252A      1.592767   253A      1.608376  
     254A      1.622254   255A      1.630521   256A      1.639632  
     257A      1.641979   258A      1.659618   259A      1.662720  
     260A      1.670368   261A      1.678784   262A      1.683428  
     263A      1.694626   264A      1.705251   265A      1.710168  
     266A      1.713492   267A      1.726916   268A      1.734134  
     269A      1.737243   270A      1.741632   271A      1.750270  
     272A      1.754592   273A      1.762368   274A      1.789913  
     275A      1.797914   276A      1.799383   277A      1.810511  
     278A      1.812190   279A      1.821684   280A      1.835397  
     281A      1.839073   282A      1.849019   283A      1.859946  
     284A      1.865711   285A      1.877587   286A      1.901503  
     287A      1.915743   288A      1.927824   289A      1.935417  
     290A      1.936291   291A      1.943121   292A      1.958158  
     293A      1.965527   294A      1.971648   295A      1.992081  
     296A      2.002709   297A      2.008842   298A      2.011055  
     299A      2.018184   300A      2.029029   301A      2.040779  
     302A      2.058318   303A      2.063910   304A      2.082137  
     305A      2.101100   306A      2.128616   307A      2.141942  
     308A      2.164663   309A      2.175785   310A      2.181852  
     311A      2.194389   312A      2.204617   313A      2.218964  
     314A      2.226464   315A      2.237368   316A      2.249784  
     317A      2.257680   318A      2.272530   319A      2.278858  
     320A      2.284907   321A      2.297052   322A      2.313547  
     323A      2.327674   324A      2.335172   325A      2.341306  
     326A      2.375211   327A      2.393148   328A      2.410034  
     329A      2.418394   330A      2.431971   331A      2.453403  
     332A      2.461399   333A      2.472719   334A      2.514951  
     335A      2.519915   336A      2.548592   337A      2.558402  
     338A      2.578229   339A      2.598685   340A      2.629788  
     341A      2.650804   342A      2.655000   343A      2.683403  
     344A      2.722972   345A      2.725723   346A      2.744517  
     347A      2.779922   348A      2.789220   349A      2.819728  
     350A      2.835123   351A      2.858175   352A      2.885246  
     353A      2.926149   354A      2.957104   355A      2.982974  
     356A      3.010936   357A      3.058419   358A      3.071483  
     359A      3.102593   360A      3.123741   361A      3.176097  
     362A      3.214552   363A      3.257970   364A      3.302741  
     365A      3.309278   366A      3.359852   367A      3.367660  
     368A      3.406719   369A      3.434760   370A      3.442001  
     371A      3.466137   372A      3.472575   373A      3.475496  
     374A      3.487852   375A      3.514282   376A      3.540816  
     377A      3.563302   378A      3.577378   379A      3.603634  
     380A      3.620418   381A      3.626084   382A      3.637919  
     383A      3.661974   384A      3.670001   385A      3.679051  
     386A      3.689328   387A      3.701923   388A      3.709418  
     389A      3.720590   390A      3.729457   391A      3.747261  
     392A      3.759877   393A      3.775340   394A      3.791465  
     395A      3.797252   396A      3.813471   397A      3.817729  
     398A      3.831531   399A      3.840155   400A      3.862662  
     401A      3.867990   402A      3.895069   403A      3.906864  
     404A      3.923905   405A      3.927477   406A      3.954555  
     407A      3.970630   408A      3.975522   409A      3.976679  
     410A      3.989747   411A      3.994821   412A      4.013197  
     413A      4.017735   414A      4.025003   415A      4.041156  
     416A      4.062738   417A      4.073563   418A      4.078104  
     419A      4.083666   420A      4.095917   421A      4.113772  
     422A      4.135516   423A      4.146909   424A      4.153044  
     425A      4.175763   426A      4.198952   427A      4.215155  
     428A      4.221270   429A      4.225610   430A      4.254354  
     431A      4.259679   432A      4.262354   433A      4.267729  
     434A      4.278246   435A      4.302352   436A      4.308014  
     437A      4.318573   438A      4.360294   439A      4.381113  
     440A      4.409511   441A      4.420821   442A      4.440643  
     443A      4.452821   444A      4.467923   445A      4.499873  
     446A      4.515713   447A      4.524803   448A      4.525210  
     449A      4.559363   450A      4.562878   451A      4.574176  
     452A      4.609349   453A      4.622240   454A      4.635852  
     455A      4.644505   456A      4.675356   457A      4.690101  
     458A      4.703164   459A      4.711752   460A      4.746642  
     461A      4.749236   462A      4.761250   463A      4.802265  
     464A      4.813779   465A      4.829434   466A      4.845306  
     467A      4.851265   468A      4.861168   469A      4.868650  
     470A      4.892962   471A      4.903552   472A      4.903903  
     473A      4.919875   474A      4.938306   475A      4.957131  
     476A      4.978790   477A      5.001086   478A      5.006968  
     479A      5.021880   480A      5.031683   481A      5.076897  
     482A      5.101426   483A      5.112809   484A      5.117259  
     485A      5.136600   486A      5.158754   487A      5.175834  
     488A      5.185600   489A      5.201769   490A      5.221436  
     491A      5.241792   492A      5.260927   493A      5.275687  
     494A      5.285432   495A      5.341682   496A      5.351197  
     497A      5.366660   498A      5.370850   499A      5.381881  
     500A      5.394595   501A      5.410904   502A      5.434787  
     503A      5.443983   504A      5.452349   505A      5.477099  
     506A      5.500132   507A      5.531990   508A      5.549745  
     509A      5.554753   510A      5.581926   511A      5.609948  
     512A      5.625706   513A      5.636644   514A      5.679701  
     515A      5.697576   516A      5.729651   517A      5.736419  
     518A      5.761533   519A      5.786885   520A      5.805074  
     521A      5.831956   522A      5.839483   523A      5.868230  
     524A      5.919246   525A      5.939150   526A      5.983610  
     527A      6.008811   528A      6.027178   529A      6.066394  
     530A      6.095068   531A      6.131609   532A      6.162350  
     533A      6.172735   534A      6.198378   535A      6.203942  
     536A      6.229850   537A      6.238333   538A      6.252905  
     539A      6.272131   540A      6.319271   541A      6.360239  
     542A      6.403619   543A      6.414984   544A      6.505225  
     545A      6.565269   546A      6.739719   547A      6.745321  
     548A      6.757905   549A      6.797134   550A      6.807614  
     551A      6.873616   552A      6.878095   553A      6.887270  
     554A      6.888432   555A      6.917926   556A      6.973345  
     557A      7.020480   558A      7.117782   559A      7.214341  
     560A      7.250554   561A      7.487536   562A      7.531003  
     563A      7.644501   564A      7.710241   565A      7.752688  
     566A      7.764567   567A      7.992504   568A      8.088746  
     569A     15.516404   570A     17.043918   571A     17.693712  
     572A     17.986932   573A     18.404187   574A     18.817768  
     575A     20.431650  

    Final Occupation by Irrep:
              A 
    DOCC [    28 ]

  @DF-RHF Final Energy:  -325.19743196279222

   => Energetics <=

    Nuclear Repulsion Energy =            313.9134649609085841
    One-Electron Energy =               -1063.9177928707201772
    Two-Electron Energy =                 424.8068959470193136
    Total Energy =                       -325.1974319627922227

Computation Completed

*** tstop() called on c445-082.stampede2.tacc.utexas.edu at Fri Mar 19 23:38:55 2021
Module time:
	user time   =     419.54 seconds =       6.99 minutes
	system time =      32.83 seconds =       0.55 minutes
	total time  =         25 seconds =       0.42 minutes
Total time:
	user time   =     419.54 seconds =       6.99 minutes
	system time =      32.83 seconds =       0.55 minutes
	total time  =         25 seconds =       0.42 minutes
   => Loading Basis Set <=

    Name: (AUG-CC-PVTZ AUX)
    Role: RIFIT
    Keyword: DF_BASIS_MP2
    atoms 1    entry O          line   264 file /home1/07844/xy3866/miniconda3/envs/p4env/share/psi4/basis/aug-cc-pvtz-ri.gbs 
    atoms 2    entry N          line   206 file /home1/07844/xy3866/miniconda3/envs/p4env/share/psi4/basis/aug-cc-pvtz-ri.gbs 
    atoms 3-7  entry C          line   148 file /home1/07844/xy3866/miniconda3/envs/p4env/share/psi4/basis/aug-cc-pvtz-ri.gbs 
    atoms 8-18 entry H          line    30 file /home1/07844/xy3866/miniconda3/envs/p4env/share/psi4/basis/aug-cc-pvtz-ri.gbs 


*** tstart() called on c445-082.stampede2.tacc.utexas.edu
*** at Fri Mar 19 23:38:56 2021


  //>>>>>>>>>>>>>>>>>>>>>>>>>>>>>>>>>>>//
  //               DFMP2               //
  //<<<<<<<<<<<<<<<<<<<<<<<<<<<<<<<<<<<//

	 --------------------------------------------------------
	                          DF-MP2                         
	      2nd-Order Density-Fitted Moller-Plesset Theory     
	              RMP2 Wavefunction,  32 Threads             
	                                                         
	        Rob Parrish, Justin Turney, Andy Simmonett,      
	           Ed Hohenstein, and C. David Sherrill          
	 --------------------------------------------------------

   => Auxiliary Basis Set <=

  Basis Set: (AUG-CC-PVTZ AUX)
    Blend: AUG-CC-PVTZ-RI
    Number of shells: 350
    Number of basis functions: 1248
    Number of Cartesian functions: 1557
    Spherical Harmonics?: true
    Max angular momentum: 4

	 --------------------------------------------------------
	                 NBF =   575, NAUX =  1248
	 --------------------------------------------------------
	   CLASS    FOCC     OCC    AOCC    AVIR     VIR    FVIR
	   PAIRS       0      28      28     547     547       0
	 --------------------------------------------------------

  DFHelper Memory: AOs need 3.030 GiB; user supplied 22.352 GiB. Using in-core AOs.


         ------------------------------------------------------------
                                     CPHF                           
                                  Rob Parrish                       
         ------------------------------------------------------------

  ==> Geometry <==

    Molecular point group: c1
    Full point group: C1

    Geometry (in Angstrom), charge = 0, multiplicity = 1:

       Center              X                  Y                   Z               Mass       
    ------------   -----------------  -----------------  -----------------  -----------------
         O            0.331072568951     1.274670721890    -0.144579990673    15.994914619570
         N           -0.640343431049    -0.779274278110    -0.303737990673    14.003074004430
         C           -1.958533431049    -0.237206278110    -0.600184990673    12.000000000000
         C            1.684119568951    -0.644532278110     0.434698009327    12.000000000000
         C            0.413232968951     0.028045021890    -0.026163790673    12.000000000000
         C           -2.715408431049     0.192999721890     0.651210009327    12.000000000000
         C            2.926763568951     0.099377721890    -0.041225990673    12.000000000000
         H           -1.807242431049     0.618926721890    -1.260989990673     1.007825032230
         H           -2.514114431049    -0.998727278110    -1.155866990673     1.007825032230
         H            1.661388568951    -0.671818278110     1.531563009327     1.007825032230
         H            1.696590568951    -1.685769278110     0.092154009327     1.007825032230
         H           -0.558455431049    -1.760740278110    -0.072534990673     1.007825032230
         H           -2.861449431049    -0.652702278110     1.329350009327     1.007825032230
         H           -2.149893431049     0.968760721890     1.171372009327     1.007825032230
         H           -3.698349431049     0.596293721890     0.388681009327     1.007825032230
         H            2.878263568951     1.142066721890     0.274738009327     1.007825032230
         H            3.832309568951    -0.356917278110     0.367288009327     1.007825032230
         H            2.994281568951     0.081681721890    -1.131944990673     1.007825032230

  Nuclear repulsion =  313.913464960908584
  Reference energy  = -325.197431962792223

  ==> Basis Set <==

  Basis Set: AUG-CC-PVTZ
    Blend: AUG-CC-PVTZ
    Number of shells: 197
    Number of basis functions: 575
    Number of Cartesian functions: 660
    Spherical Harmonics?: true
    Max angular momentum: 3

  ==> CGRSolver (by Rob Parrish) <==

   Number of roots    =         1
   Preconditioning    =    JACOBI
   Convergence cutoff =     1E-06
   Maximum iterations =       100

  ==> CPHFRHamiltonian (by Rob Parrish) <== 

  ==> MemDFJK: Density-Fitted J/K Matrices <==

    J tasked:                   Yes
    K tasked:                   Yes
    wK tasked:                   No
    OpenMP threads:              32
    Memory [MiB]:             22888
    Algorithm:                 Core
    Schwarz Cutoff:           1E-12
    Mask sparsity (%):       5.4878
    Fitting Condition:        1E-10

   => Auxiliary Basis Set <=

  Basis Set: (AUG-CC-PVTZ AUX)
    Blend: AUG-CC-PVTZ-JKFIT
    Number of shells: 364
    Number of basis functions: 1234
    Number of Cartesian functions: 1522
    Spherical Harmonics?: true
    Max angular momentum: 4

  ==> CPHF Iterations <==

  => Iterations <=

             Iter  Converged  Remaining    Residual
  CGR           1          0          1   1.202E-01
  CGR           2          0          1   3.689E-02
  CGR           3          0          1   1.377E-02
  CGR           4          0          1   3.692E-03
  CGR           5          0          1   1.376E-03
  CGR           6          0          1   4.966E-04
  CGR           7          0          1   1.656E-04
  CGR           8          0          1   5.885E-05
  CGR           9          0          1   1.633E-05
  CGR          10          0          1   5.456E-06
  CGR          11          0          1   1.488E-06
  CGR          12          1          0   5.972E-07

    CGRSolver converged.

	-----------------------------------------------------------
	 ==================> DF-MP2 Energies <==================== 
	-----------------------------------------------------------
	 Reference Energy          =    -325.1974319627922227 [Eh]
	 Singles Energy            =      -0.0000000000000000 [Eh]
	 Same-Spin Energy          =      -0.3323830679833549 [Eh]
	 Opposite-Spin Energy      =      -1.1201203053427453 [Eh]
	 Correlation Energy        =      -1.4525033733261004 [Eh]
	 Total Energy              =    -326.6499353361183466 [Eh]
	-----------------------------------------------------------
	 ================> DF-SCS-MP2 Energies <================== 
	-----------------------------------------------------------
	 SCS Same-Spin Scale       =       0.3333333333333333 [-]
	 SCS Opposite-Spin Scale   =       1.2000000000000000 [-]
	 SCS Same-Spin Energy      =      -0.1107943559944516 [Eh]
	 SCS Opposite-Spin Energy  =      -1.3441443664112944 [Eh]
	 SCS Correlation Energy    =      -1.4549387224057460 [Eh]
	 SCS Total Energy          =    -326.6523706851979796 [Eh]
	-----------------------------------------------------------



Properties will be evaluated at  -0.000000,  -0.000000,  -0.000000 [a0]

Properties computed using the MP2 density matrix

  Nuclear Dipole Moment: [e a0]
     X:    -0.4903      Y:    -2.5405      Z:     1.4381

  Electronic Dipole Moment: [e a0]
     X:     0.1507      Y:     1.1619      Z:    -1.2829

  Dipole Moment: [e a0]
     X:    -0.3396      Y:    -1.3787      Z:     0.1552     Total:     1.4283

  Dipole Moment: [D]
     X:    -0.8632      Y:    -3.5043      Z:     0.3945     Total:     3.6305


*** tstop() called on c445-082.stampede2.tacc.utexas.edu at Fri Mar 19 23:41:08 2021
Module time:
	user time   =    1137.25 seconds =      18.95 minutes
	system time =      42.32 seconds =       0.71 minutes
	total time  =        132 seconds =       2.20 minutes
Total time:
	user time   =    1557.69 seconds =      25.96 minutes
	system time =      75.17 seconds =       1.25 minutes
	total time  =        158 seconds =       2.63 minutes

    Psi4 stopped on: Friday, 19 March 2021 11:41PM
    Psi4 wall time for execution: 0:02:39.05

*** Psi4 exiting successfully. Buy a developer a beer!
