opt=Tight                                                               
Freq      RMP2-FC                                                     6-31G(d)            
Number of atoms                            I               25
Info1-9                                    I   N=           9
          34          34        1002           0           0         100
           6           2           1
Charge                                     I                0
Multiplicity                               I                1
Number of electrons                        I               90
Number of alpha electrons                  I               45
Number of beta electrons                   I               45
Number of basis functions                  I              184
Number of independent functions            I              184
Number of point charges in /Mol/           I                0
Number of translation vectors              I                0
Atomic numbers                             I   N=          25
          16           8           8           7           6           6
           6           6           6           6           1           1
           1           1           1           1           1           1
           1           1           1           1           1           1
           1
Nuclear charges                            R   N=          25
  1.60000000E+01  8.00000000E+00  8.00000000E+00  7.00000000E+00  6.00000000E+00
  6.00000000E+00  6.00000000E+00  6.00000000E+00  6.00000000E+00  6.00000000E+00
  1.00000000E+00  1.00000000E+00  1.00000000E+00  1.00000000E+00  1.00000000E+00
  1.00000000E+00  1.00000000E+00  1.00000000E+00  1.00000000E+00  1.00000000E+00
  1.00000000E+00  1.00000000E+00  1.00000000E+00  1.00000000E+00  1.00000000E+00
Current cartesian coordinates              R   N=          75
  1.43926834E+00  8.02698969E-02 -8.25141357E-01  1.89430683E+00 -2.00161493E+00
 -2.59409509E+00  1.79437811E+00  2.72812581E+00 -1.55901461E+00 -1.52616550E+00
 -1.66704081E-01  1.76020430E-01 -2.49173808E+00 -2.68977004E+00  8.09507653E-01
 -2.58643792E+00  2.01309501E+00  1.55116280E+00  3.41260162E+00 -4.80986323E-01
  1.88083308E+00 -5.19786558E+00 -3.02484872E+00 -1.05516638E-01 -4.12237898E+00
  3.72549492E+00 -1.72324126E-01  6.19595090E+00 -2.50615480E-01  1.17721812E+00
 -1.27773455E+00 -4.06864650E+00 -1.30079298E-01 -2.37533473E+00 -3.01295289E+00
  2.86132882E+00 -3.75414127E+00  1.25328905E+00  3.08397825E+00 -1.06712268E+00
  3.10471421E+00  2.43875205E+00  2.86978535E+00  9.03648139E-01  3.31741045E+00
  2.94832804E+00 -2.37596778E+00  2.56678666E+00 -6.48085546E+00 -1.68534280E+00
  8.03743988E-01 -5.28435646E+00 -2.73994794E+00 -2.14743753E+00 -5.86089111E+00
 -4.93436595E+00  3.32682506E-01 -2.89852997E+00  4.48406878E+00 -1.64748025E+00
 -5.66041007E+00  2.67447648E+00 -1.06117382E+00 -4.92933550E+00  5.29760533E+00
  9.05055985E-01  7.36836534E+00 -5.98899565E-01  2.84135253E+00  6.68505548E+00
 -1.62741325E+00 -2.79086094E-01  6.60178470E+00  1.64202839E+00  4.63891861E-01
Force Field                                I                0
Int Atom Types                             I   N=          25
           0           0           0           0           0           0
           0           0           0           0           0           0
           0           0           0           0           0           0
           0           0           0           0           0           0
           0
MM charges                                 R   N=          25
  0.00000000E+00  0.00000000E+00  0.00000000E+00  0.00000000E+00  0.00000000E+00
  0.00000000E+00  0.00000000E+00  0.00000000E+00  0.00000000E+00  0.00000000E+00
  0.00000000E+00  0.00000000E+00  0.00000000E+00  0.00000000E+00  0.00000000E+00
  0.00000000E+00  0.00000000E+00  0.00000000E+00  0.00000000E+00  0.00000000E+00
  0.00000000E+00  0.00000000E+00  0.00000000E+00  0.00000000E+00  0.00000000E+00
Integer atomic weights                     I   N=          25
          32          16          16          14          12          12
          12          12          12          12           1           1
           1           1           1           1           1           1
           1           1           1           1           1           1
           1
Real atomic weights                        R   N=          25
  3.19720718E+01  1.59949146E+01  1.59949146E+01  1.40030740E+01  1.20000000E+01
  1.20000000E+01  1.20000000E+01  1.20000000E+01  1.20000000E+01  1.20000000E+01
  1.00782504E+00  1.00782504E+00  1.00782504E+00  1.00782504E+00  1.00782504E+00
  1.00782504E+00  1.00782504E+00  1.00782504E+00  1.00782504E+00  1.00782504E+00
  1.00782504E+00  1.00782504E+00  1.00782504E+00  1.00782504E+00  1.00782504E+00
Atom fragment info                         I   N=          25
           0           0           0           0           0           0
           0           0           0           0           0           0
           0           0           0           0           0           0
           0           0           0           0           0           0
           0
Atom residue num                           I   N=          25
           0           0           0           0           0           0
           0           0           0           0           0           0
           0           0           0           0           0           0
           0           0           0           0           0           0
           0
Nuclear spins                              I   N=          25
           0           0           0           2           0           0
           0           0           0           0           1           1
           1           1           1           1           1           1
           1           1           1           1           1           1
           1
Nuclear ZEff                               R   N=          25
 -1.36000000E+01 -5.60000000E+00 -5.60000000E+00 -4.55000000E+00 -3.60000000E+00
 -3.60000000E+00 -3.60000000E+00 -3.60000000E+00 -3.60000000E+00 -3.60000000E+00
 -1.00000000E+00 -1.00000000E+00 -1.00000000E+00 -1.00000000E+00 -1.00000000E+00
 -1.00000000E+00 -1.00000000E+00 -1.00000000E+00 -1.00000000E+00 -1.00000000E+00
 -1.00000000E+00 -1.00000000E+00 -1.00000000E+00 -1.00000000E+00 -1.00000000E+00
Nuclear QMom                               R   N=          25
  0.00000000E+00  0.00000000E+00  0.00000000E+00  2.04400000E+00  0.00000000E+00
  0.00000000E+00  0.00000000E+00  0.00000000E+00  0.00000000E+00  0.00000000E+00
  0.00000000E+00  0.00000000E+00  0.00000000E+00  0.00000000E+00  0.00000000E+00
  0.00000000E+00  0.00000000E+00  0.00000000E+00  0.00000000E+00  0.00000000E+00
  0.00000000E+00  0.00000000E+00  0.00000000E+00  0.00000000E+00  0.00000000E+00
Nuclear GFac                               R   N=          25
  0.00000000E+00  0.00000000E+00  0.00000000E+00  4.03761000E-01  0.00000000E+00
  0.00000000E+00  0.00000000E+00  0.00000000E+00  0.00000000E+00  0.00000000E+00
  2.79284600E+00  2.79284600E+00  2.79284600E+00  2.79284600E+00  2.79284600E+00
  2.79284600E+00  2.79284600E+00  2.79284600E+00  2.79284600E+00  2.79284600E+00
  2.79284600E+00  2.79284600E+00  2.79284600E+00  2.79284600E+00  2.79284600E+00
MicOpt                                     I   N=          25
          -1          -1          -1          -1          -1          -1
          -1          -1          -1          -1          -1          -1
          -1          -1          -1          -1          -1          -1
          -1          -1          -1          -1          -1          -1
          -1
Number of contracted shells                I               71
Number of primitive shells                 I              176
Pure/Cartesian d shells                    I                1
Pure/Cartesian f shells                    I                0
Highest angular momentum                   I                2
Largest degree of contraction              I                6
Shell types                                I   N=          71
           0          -1          -1          -1           2           0
          -1          -1           2           0          -1          -1
           2           0          -1          -1           2           0
          -1          -1           2           0          -1          -1
           2           0          -1          -1           2           0
          -1          -1           2           0          -1          -1
           2           0          -1          -1           2           0
           0           0           0           0           0           0
           0           0           0           0           0           0
           0           0           0           0           0           0
           0           0           0           0           0           0
           0           0           0           0           0
Number of primitives per shell             I   N=          71
           6           6           3           1           1           6
           3           1           1           6           3           1
           1           6           3           1           1           6
           3           1           1           6           3           1
           1           6           3           1           1           6
           3           1           1           6           3           1
           1           6           3           1           1           3
           1           3           1           3           1           3
           1           3           1           3           1           3
           1           3           1           3           1           3
           1           3           1           3           1           3
           1           3           1           3           1
Shell to atom map                          I   N=          71
           1           1           1           1           1           2
           2           2           2           3           3           3
           3           4           4           4           4           5
           5           5           5           6           6           6
           6           7           7           7           7           8
           8           8           8           9           9           9
           9          10          10          10          10          11
          11          12          12          13          13          14
          14          15          15          16          16          17
          17          18          18          19          19          20
          20          21          21          22          22          23
          23          24          24          25          25
Primitive exponents                        R   N=         176
  2.19171000E+04  3.30149000E+03  7.54146000E+02  2.12711000E+02  6.79896000E+01
  2.30515000E+01  4.23735000E+02  1.00710000E+02  3.21599000E+01  1.18079000E+01
  4.63110000E+00  1.87025000E+00  2.61584000E+00  9.22167000E-01  3.41287000E-01
  1.17167000E-01  6.50000000E-01  5.48467166E+03  8.25234946E+02  1.88046958E+02
  5.29645000E+01  1.68975704E+01  5.79963534E+00  1.55396162E+01  3.59993359E+00
  1.01376175E+00  2.70005823E-01  8.00000000E-01  5.48467166E+03  8.25234946E+02
  1.88046958E+02  5.29645000E+01  1.68975704E+01  5.79963534E+00  1.55396162E+01
  3.59993359E+00  1.01376175E+00  2.70005823E-01  8.00000000E-01  4.17351146E+03
  6.27457911E+02  1.42902093E+02  4.02343293E+01  1.28202129E+01  4.39043701E+00
  1.16263619E+01  2.71627981E+00  7.72218397E-01  2.12031498E-01  8.00000000E-01
  3.04752488E+03  4.57369518E+02  1.03948685E+02  2.92101553E+01  9.28666296E+00
  3.16392696E+00  7.86827235E+00  1.88128854E+00  5.44249258E-01  1.68714478E-01
  8.00000000E-01  3.04752488E+03  4.57369518E+02  1.03948685E+02  2.92101553E+01
  9.28666296E+00  3.16392696E+00  7.86827235E+00  1.88128854E+00  5.44249258E-01
  1.68714478E-01  8.00000000E-01  3.04752488E+03  4.57369518E+02  1.03948685E+02
  2.92101553E+01  9.28666296E+00  3.16392696E+00  7.86827235E+00  1.88128854E+00
  5.44249258E-01  1.68714478E-01  8.00000000E-01  3.04752488E+03  4.57369518E+02
  1.03948685E+02  2.92101553E+01  9.28666296E+00  3.16392696E+00  7.86827235E+00
  1.88128854E+00  5.44249258E-01  1.68714478E-01  8.00000000E-01  3.04752488E+03
  4.57369518E+02  1.03948685E+02  2.92101553E+01  9.28666296E+00  3.16392696E+00
  7.86827235E+00  1.88128854E+00  5.44249258E-01  1.68714478E-01  8.00000000E-01
  3.04752488E+03  4.57369518E+02  1.03948685E+02  2.92101553E+01  9.28666296E+00
  3.16392696E+00  7.86827235E+00  1.88128854E+00  5.44249258E-01  1.68714478E-01
  8.00000000E-01  1.87311370E+01  2.82539436E+00  6.40121692E-01  1.61277759E-01
  1.87311370E+01  2.82539436E+00  6.40121692E-01  1.61277759E-01  1.87311370E+01
  2.82539436E+00  6.40121692E-01  1.61277759E-01  1.87311370E+01  2.82539436E+00
  6.40121692E-01  1.61277759E-01  1.87311370E+01  2.82539436E+00  6.40121692E-01
  1.61277759E-01  1.87311370E+01  2.82539436E+00  6.40121692E-01  1.61277759E-01
  1.87311370E+01  2.82539436E+00  6.40121692E-01  1.61277759E-01  1.87311370E+01
  2.82539436E+00  6.40121692E-01  1.61277759E-01  1.87311370E+01  2.82539436E+00
  6.40121692E-01  1.61277759E-01  1.87311370E+01  2.82539436E+00  6.40121692E-01
  1.61277759E-01  1.87311370E+01  2.82539436E+00  6.40121692E-01  1.61277759E-01
  1.87311370E+01  2.82539436E+00  6.40121692E-01  1.61277759E-01  1.87311370E+01
  2.82539436E+00  6.40121692E-01  1.61277759E-01  1.87311370E+01  2.82539436E+00
  6.40121692E-01  1.61277759E-01  1.87311370E+01  2.82539436E+00  6.40121692E-01
  1.61277759E-01
Contraction coefficients                   R   N=         176
  1.86924085E-03  1.42303065E-02  6.96962317E-02  2.38487108E-01  4.83307220E-01
  3.38074154E-01 -2.37677050E-03 -3.16930067E-02 -1.13317024E-01  5.60900118E-02
  5.92255124E-01  4.55006095E-01 -2.50373114E-01  6.69567631E-02  1.05450627E+00
  1.00000000E+00  1.00000000E+00  1.83107443E-03  1.39501722E-02  6.84450781E-02
  2.32714336E-01  4.70192898E-01  3.58520853E-01 -1.10777550E-01 -1.48026263E-01
  1.13076702E+00  1.00000000E+00  1.00000000E+00  1.83107443E-03  1.39501722E-02
  6.84450781E-02  2.32714336E-01  4.70192898E-01  3.58520853E-01 -1.10777550E-01
 -1.48026263E-01  1.13076702E+00  1.00000000E+00  1.00000000E+00  1.83477216E-03
  1.39946270E-02  6.85865518E-02  2.32240873E-01  4.69069948E-01  3.60455199E-01
 -1.14961182E-01 -1.69117479E-01  1.14585195E+00  1.00000000E+00  1.00000000E+00
  1.83473713E-03  1.40373228E-02  6.88426223E-02  2.32184443E-01  4.67941348E-01
  3.62311985E-01 -1.19332420E-01 -1.60854152E-01  1.14345644E+00  1.00000000E+00
  1.00000000E+00  1.83473713E-03  1.40373228E-02  6.88426223E-02  2.32184443E-01
  4.67941348E-01  3.62311985E-01 -1.19332420E-01 -1.60854152E-01  1.14345644E+00
  1.00000000E+00  1.00000000E+00  1.83473713E-03  1.40373228E-02  6.88426223E-02
  2.32184443E-01  4.67941348E-01  3.62311985E-01 -1.19332420E-01 -1.60854152E-01
  1.14345644E+00  1.00000000E+00  1.00000000E+00  1.83473713E-03  1.40373228E-02
  6.88426223E-02  2.32184443E-01  4.67941348E-01  3.62311985E-01 -1.19332420E-01
 -1.60854152E-01  1.14345644E+00  1.00000000E+00  1.00000000E+00  1.83473713E-03
  1.40373228E-02  6.88426223E-02  2.32184443E-01  4.67941348E-01  3.62311985E-01
 -1.19332420E-01 -1.60854152E-01  1.14345644E+00  1.00000000E+00  1.00000000E+00
  1.83473713E-03  1.40373228E-02  6.88426223E-02  2.32184443E-01  4.67941348E-01
  3.62311985E-01 -1.19332420E-01 -1.60854152E-01  1.14345644E+00  1.00000000E+00
  1.00000000E+00  3.34946043E-02  2.34726953E-01  8.13757326E-01  1.00000000E+00
  3.34946043E-02  2.34726953E-01  8.13757326E-01  1.00000000E+00  3.34946043E-02
  2.34726953E-01  8.13757326E-01  1.00000000E+00  3.34946043E-02  2.34726953E-01
  8.13757326E-01  1.00000000E+00  3.34946043E-02  2.34726953E-01  8.13757326E-01
  1.00000000E+00  3.34946043E-02  2.34726953E-01  8.13757326E-01  1.00000000E+00
  3.34946043E-02  2.34726953E-01  8.13757326E-01  1.00000000E+00  3.34946043E-02
  2.34726953E-01  8.13757326E-01  1.00000000E+00  3.34946043E-02  2.34726953E-01
  8.13757326E-01  1.00000000E+00  3.34946043E-02  2.34726953E-01  8.13757326E-01
  1.00000000E+00  3.34946043E-02  2.34726953E-01  8.13757326E-01  1.00000000E+00
  3.34946043E-02  2.34726953E-01  8.13757326E-01  1.00000000E+00  3.34946043E-02
  2.34726953E-01  8.13757326E-01  1.00000000E+00  3.34946043E-02  2.34726953E-01
  8.13757326E-01  1.00000000E+00  3.34946043E-02  2.34726953E-01  8.13757326E-01
  1.00000000E+00
P(S=P) Contraction coefficients            R   N=         176
  0.00000000E+00  0.00000000E+00  0.00000000E+00  0.00000000E+00  0.00000000E+00
  0.00000000E+00  4.06100998E-03  3.06812999E-02  1.30451999E-01  3.27204999E-01
  4.52850998E-01  2.56041999E-01 -1.45104895E-02  3.10262776E-01  7.54482456E-01
  1.00000000E+00  0.00000000E+00  0.00000000E+00  0.00000000E+00  0.00000000E+00
  0.00000000E+00  0.00000000E+00  0.00000000E+00  7.08742682E-02  3.39752839E-01
  7.27158577E-01  1.00000000E+00  0.00000000E+00  0.00000000E+00  0.00000000E+00
  0.00000000E+00  0.00000000E+00  0.00000000E+00  0.00000000E+00  7.08742682E-02
  3.39752839E-01  7.27158577E-01  1.00000000E+00  0.00000000E+00  0.00000000E+00
  0.00000000E+00  0.00000000E+00  0.00000000E+00  0.00000000E+00  0.00000000E+00
  6.75797439E-02  3.23907296E-01  7.40895140E-01  1.00000000E+00  0.00000000E+00
  0.00000000E+00  0.00000000E+00  0.00000000E+00  0.00000000E+00  0.00000000E+00
  0.00000000E+00  6.89990666E-02  3.16423961E-01  7.44308291E-01  1.00000000E+00
  0.00000000E+00  0.00000000E+00  0.00000000E+00  0.00000000E+00  0.00000000E+00
  0.00000000E+00  0.00000000E+00  6.89990666E-02  3.16423961E-01  7.44308291E-01
  1.00000000E+00  0.00000000E+00  0.00000000E+00  0.00000000E+00  0.00000000E+00
  0.00000000E+00  0.00000000E+00  0.00000000E+00  6.89990666E-02  3.16423961E-01
  7.44308291E-01  1.00000000E+00  0.00000000E+00  0.00000000E+00  0.00000000E+00
  0.00000000E+00  0.00000000E+00  0.00000000E+00  0.00000000E+00  6.89990666E-02
  3.16423961E-01  7.44308291E-01  1.00000000E+00  0.00000000E+00  0.00000000E+00
  0.00000000E+00  0.00000000E+00  0.00000000E+00  0.00000000E+00  0.00000000E+00
  6.89990666E-02  3.16423961E-01  7.44308291E-01  1.00000000E+00  0.00000000E+00
  0.00000000E+00  0.00000000E+00  0.00000000E+00  0.00000000E+00  0.00000000E+00
  0.00000000E+00  6.89990666E-02  3.16423961E-01  7.44308291E-01  1.00000000E+00
  0.00000000E+00  0.00000000E+00  0.00000000E+00  0.00000000E+00  0.00000000E+00
  0.00000000E+00  0.00000000E+00  0.00000000E+00  0.00000000E+00  0.00000000E+00
  0.00000000E+00  0.00000000E+00  0.00000000E+00  0.00000000E+00  0.00000000E+00
  0.00000000E+00  0.00000000E+00  0.00000000E+00  0.00000000E+00  0.00000000E+00
  0.00000000E+00  0.00000000E+00  0.00000000E+00  0.00000000E+00  0.00000000E+00
  0.00000000E+00  0.00000000E+00  0.00000000E+00  0.00000000E+00  0.00000000E+00
  0.00000000E+00  0.00000000E+00  0.00000000E+00  0.00000000E+00  0.00000000E+00
  0.00000000E+00  0.00000000E+00  0.00000000E+00  0.00000000E+00  0.00000000E+00
  0.00000000E+00  0.00000000E+00  0.00000000E+00  0.00000000E+00  0.00000000E+00
  0.00000000E+00  0.00000000E+00  0.00000000E+00  0.00000000E+00  0.00000000E+00
  0.00000000E+00  0.00000000E+00  0.00000000E+00  0.00000000E+00  0.00000000E+00
  0.00000000E+00  0.00000000E+00  0.00000000E+00  0.00000000E+00  0.00000000E+00
  0.00000000E+00
Coordinates of each shell                  R   N=         213
  1.43926819E+00  8.02700555E-02 -8.25141525E-01  1.43926819E+00  8.02700555E-02
 -8.25141525E-01  1.43926819E+00  8.02700555E-02 -8.25141525E-01  1.43926819E+00
  8.02700555E-02 -8.25141525E-01  1.43926819E+00  8.02700555E-02 -8.25141525E-01
  1.89430670E+00 -2.00161477E+00 -2.59409526E+00  1.89430670E+00 -2.00161477E+00
 -2.59409526E+00  1.89430670E+00 -2.00161477E+00 -2.59409526E+00  1.89430670E+00
 -2.00161477E+00 -2.59409526E+00  1.79437794E+00  2.72812597E+00 -1.55901478E+00
  1.79437794E+00  2.72812597E+00 -1.55901478E+00  1.79437794E+00  2.72812597E+00
 -1.55901478E+00  1.79437794E+00  2.72812597E+00 -1.55901478E+00 -1.52616565E+00
 -1.66703946E-01  1.76020262E-01 -1.52616565E+00 -1.66703946E-01  1.76020262E-01
 -1.52616565E+00 -1.66703946E-01  1.76020262E-01 -1.52616565E+00 -1.66703946E-01
  1.76020262E-01 -2.49173820E+00 -2.68976991E+00  8.09507485E-01 -2.49173820E+00
 -2.68976991E+00  8.09507485E-01 -2.49173820E+00 -2.68976991E+00  8.09507485E-01
 -2.49173820E+00 -2.68976991E+00  8.09507485E-01 -2.58643809E+00  2.01309514E+00
  1.55116263E+00 -2.58643809E+00  2.01309514E+00  1.55116263E+00 -2.58643809E+00
  2.01309514E+00  1.55116263E+00 -2.58643809E+00  2.01309514E+00  1.55116263E+00
  3.41260148E+00 -4.80986149E-01  1.88083291E+00  3.41260148E+00 -4.80986149E-01
  1.88083291E+00  3.41260148E+00 -4.80986149E-01  1.88083291E+00  3.41260148E+00
 -4.80986149E-01  1.88083291E+00 -5.19786571E+00 -3.02484861E+00 -1.05516806E-01
 -5.19786571E+00 -3.02484861E+00 -1.05516806E-01 -5.19786571E+00 -3.02484861E+00
 -1.05516806E-01 -5.19786571E+00 -3.02484861E+00 -1.05516806E-01 -4.12237915E+00
  3.72549503E+00 -1.72324294E-01 -4.12237915E+00  3.72549503E+00 -1.72324294E-01
 -4.12237915E+00  3.72549503E+00 -1.72324294E-01 -4.12237915E+00  3.72549503E+00
 -1.72324294E-01  6.19595075E+00 -2.50615283E-01  1.17721795E+00  6.19595075E+00
 -2.50615283E-01  1.17721795E+00  6.19595075E+00 -2.50615283E-01  1.17721795E+00
  6.19595075E+00 -2.50615283E-01  1.17721795E+00 -1.27773466E+00 -4.06864637E+00
 -1.30079466E-01 -1.27773466E+00 -4.06864637E+00 -1.30079466E-01 -2.37533485E+00
 -3.01295276E+00  2.86132866E+00 -2.37533485E+00 -3.01295276E+00  2.86132866E+00
 -3.75414143E+00  1.25328916E+00  3.08397808E+00 -3.75414143E+00  1.25328916E+00
  3.08397808E+00 -1.06712285E+00  3.10471435E+00  2.43875188E+00 -1.06712285E+00
  3.10471435E+00  2.43875188E+00  2.86978519E+00  9.03648309E-01  3.31741028E+00
  2.86978519E+00  9.03648309E-01  3.31741028E+00  2.94832791E+00 -2.37596761E+00
  2.56678649E+00  2.94832791E+00 -2.37596761E+00  2.56678649E+00 -6.48085559E+00
 -1.68534271E+00  8.03743820E-01 -6.48085559E+00 -1.68534271E+00  8.03743820E-01
 -5.28435658E+00 -2.73994783E+00 -2.14743770E+00 -5.28435658E+00 -2.73994783E+00
 -2.14743770E+00 -5.86089122E+00 -4.93436585E+00  3.32682338E-01 -5.86089122E+00
 -4.93436585E+00  3.32682338E-01 -2.89853016E+00  4.48406890E+00 -1.64748042E+00
 -2.89853016E+00  4.48406890E+00 -1.64748042E+00 -5.66041024E+00  2.67447659E+00
 -1.06117399E+00 -5.66041024E+00  2.67447659E+00 -1.06117399E+00 -4.92933569E+00
  5.29760544E+00  9.05055817E-01 -4.92933569E+00  5.29760544E+00  9.05055817E-01
  7.36836519E+00 -5.98899359E-01  2.84135236E+00  7.36836519E+00 -5.98899359E-01
  2.84135236E+00  6.68505535E+00 -1.62741305E+00 -2.79086262E-01  6.68505535E+00
 -1.62741305E+00 -2.79086262E-01  6.60178454E+00  1.64202859E+00  4.63891693E-01
  6.60178454E+00  1.64202859E+00  4.63891693E-01
Constraint Structure                       R   N=          75
  1.43926819E+00  8.02700555E-02 -8.25141525E-01  1.89430670E+00 -2.00161477E+00
 -2.59409526E+00  1.79437794E+00  2.72812597E+00 -1.55901478E+00 -1.52616565E+00
 -1.66703946E-01  1.76020262E-01 -2.49173820E+00 -2.68976991E+00  8.09507485E-01
 -2.58643809E+00  2.01309514E+00  1.55116263E+00  3.41260148E+00 -4.80986149E-01
  1.88083291E+00 -5.19786571E+00 -3.02484861E+00 -1.05516806E-01 -4.12237915E+00
  3.72549503E+00 -1.72324294E-01  6.19595075E+00 -2.50615283E-01  1.17721795E+00
 -1.27773466E+00 -4.06864637E+00 -1.30079466E-01 -2.37533485E+00 -3.01295276E+00
  2.86132866E+00 -3.75414143E+00  1.25328916E+00  3.08397808E+00 -1.06712285E+00
  3.10471435E+00  2.43875188E+00  2.86978519E+00  9.03648309E-01  3.31741028E+00
  2.94832791E+00 -2.37596761E+00  2.56678649E+00 -6.48085559E+00 -1.68534271E+00
  8.03743820E-01 -5.28435658E+00 -2.73994783E+00 -2.14743770E+00 -5.86089122E+00
 -4.93436585E+00  3.32682338E-01 -2.89853016E+00  4.48406890E+00 -1.64748042E+00
 -5.66041024E+00  2.67447659E+00 -1.06117399E+00 -4.92933569E+00  5.29760544E+00
  9.05055817E-01  7.36836519E+00 -5.98899359E-01  2.84135236E+00  6.68505535E+00
 -1.62741305E+00 -2.79086262E-01  6.60178454E+00  1.64202859E+00  4.63891693E-01
Num ILSW                                   I              100
ILSW                                       I   N=         100
           0           1           0           0           2           0
           0           0           0           0           0          -1
           0           0           0           0           0           0
           0           0           0           0           1           0
           1           0           0           0           0           0
           0           0      100000           0          -1           0
           0           0           0           0           0           0
           0           0           0           1           1           0
           0           0           1           0           0           0
           0           0           4          40           0           0
           0           0           0           0           0           0
           0           0           0           0           0           0
           0           0           0           0           0           0
           0           0           0           0           0           0
           0           0           0           0           0           0
           0           0           0           0           0           0
           0           0           0           0
Num RLSW                                   I               40
RLSW                                       R   N=          40
  1.00000000E+00  1.00000000E+00  1.00000000E+00  1.00000000E+00  1.00000000E+00
  0.00000000E+00  0.00000000E+00  1.00000000E+00  0.00000000E+00  0.00000000E+00
  0.00000000E+00  0.00000000E+00  1.00000000E+00  0.00000000E+00  0.00000000E+00
  0.00000000E+00  0.00000000E+00  1.00000000E+00  0.00000000E+00  0.00000000E+00
  0.00000000E+00  0.00000000E+00  1.00000000E+00  0.00000000E+00  0.00000000E+00
  0.00000000E+00  0.00000000E+00  1.00000000E+00  0.00000000E+00  0.00000000E+00
  0.00000000E+00  0.00000000E+00  0.00000000E+00  0.00000000E+00  0.00000000E+00
  0.00000000E+00  0.00000000E+00  0.00000000E+00  1.00000000E+00  1.00000000E+00
MxBond                                     I                4
NBond                                      I   N=          25
           4           1           1           3           4           4
           4           4           4           4           1           1
           1           1           1           1           1           1
           1           1           1           1           1           1
           1
IBond                                      I   N=         100
           2           3           4           7           1           0
           0           0           1           0           0           0
           1           5           6           0           4           8
          11          12           4           9          13          14
           1          10          15          16           5          17
          18          19           6          20          21          22
           7          23          24          25           5           0
           0           0           5           0           0           0
           6           0           0           0           6           0
           0           0           7           0           0           0
           7           0           0           0           8           0
           0           0           8           0           0           0
           8           0           0           0           9           0
           0           0           9           0           0           0
           9           0           0           0          10           0
           0           0          10           0           0           0
          10           0           0           0
RBond                                      R   N=         100
  2.00000000E+00  2.00000000E+00  1.00000000E+00  1.00000000E+00  2.00000000E+00
  0.00000000E+00  0.00000000E+00  0.00000000E+00  2.00000000E+00  0.00000000E+00
  0.00000000E+00  0.00000000E+00  1.00000000E+00  1.00000000E+00  1.00000000E+00
  0.00000000E+00  1.00000000E+00  1.00000000E+00  1.00000000E+00  1.00000000E+00
  1.00000000E+00  1.00000000E+00  1.00000000E+00  1.00000000E+00  1.00000000E+00
  1.00000000E+00  1.00000000E+00  1.00000000E+00  1.00000000E+00  1.00000000E+00
  1.00000000E+00  1.00000000E+00  1.00000000E+00  1.00000000E+00  1.00000000E+00
  1.00000000E+00  1.00000000E+00  1.00000000E+00  1.00000000E+00  1.00000000E+00
  1.00000000E+00  0.00000000E+00  0.00000000E+00  0.00000000E+00  1.00000000E+00
  0.00000000E+00  0.00000000E+00  0.00000000E+00  1.00000000E+00  0.00000000E+00
  0.00000000E+00  0.00000000E+00  1.00000000E+00  0.00000000E+00  0.00000000E+00
  0.00000000E+00  1.00000000E+00  0.00000000E+00  0.00000000E+00  0.00000000E+00
  1.00000000E+00  0.00000000E+00  0.00000000E+00  0.00000000E+00  1.00000000E+00
  0.00000000E+00  0.00000000E+00  0.00000000E+00  1.00000000E+00  0.00000000E+00
  0.00000000E+00  0.00000000E+00  1.00000000E+00  0.00000000E+00  0.00000000E+00
  0.00000000E+00  1.00000000E+00  0.00000000E+00  0.00000000E+00  0.00000000E+00
  1.00000000E+00  0.00000000E+00  0.00000000E+00  0.00000000E+00  1.00000000E+00
  0.00000000E+00  0.00000000E+00  0.00000000E+00  1.00000000E+00  0.00000000E+00
  0.00000000E+00  0.00000000E+00  1.00000000E+00  0.00000000E+00  0.00000000E+00
  0.00000000E+00  1.00000000E+00  0.00000000E+00  0.00000000E+00  0.00000000E+00
Virial Ratio                               R      2.001780785033609E+00
SCF Energy                                 R     -8.375451811098516E+02