opt=(Tight,CalcAll)                                                     
Freq      RMP2-FC                                                     6-31G(d)            
Number of atoms                            I               15
Info1-9                                    I   N=           9
          24          24        1002           0           0         100
           6           2           1
Charge                                     I                0
Multiplicity                               I                1
Number of electrons                        I               66
Number of alpha electrons                  I               33
Number of beta electrons                   I               33
Number of basis functions                  I              147
Number of independent functions            I              147
Number of point charges in /Mol/           I                0
Number of translation vectors              I                0
Atomic numbers                             I   N=          15
           8           8           7           7           6           6
           6           6           6           1           1           1
           1           1           1
Nuclear charges                            R   N=          15
  8.00000000E+00  8.00000000E+00  7.00000000E+00  7.00000000E+00  6.00000000E+00
  6.00000000E+00  6.00000000E+00  6.00000000E+00  6.00000000E+00  1.00000000E+00
  1.00000000E+00  1.00000000E+00  1.00000000E+00  1.00000000E+00  1.00000000E+00
Current cartesian coordinates              R   N=          45
 -2.71194289E+00 -3.41793074E+00  9.30397514E-07  5.49453719E+00 -5.82497742E-01
  5.12565402E-07 -2.03808035E+00  8.72926533E-01 -4.80660818E-07  1.37000495E+00
 -1.90044493E+00 -1.46070361E-06 -1.23154353E+00 -1.63292704E+00 -2.82985884E-07
 -3.47953373E-01  2.85038658E+00 -3.23629148E-07 -4.77078848E+00  1.27209943E+00
  1.87657157E-07  2.18885127E+00  2.51892482E+00  6.46889086E-07  3.24369148E+00
 -1.53965453E-02  1.11349136E-07 -1.19781060E+00  4.71813362E+00 -9.68776862E-07
 -5.61059601E+00  4.11033727E-01 -1.67481479E+00 -5.12883621E+00  3.30042274E+00
  5.42341486E-07 -5.61059509E+00  4.11033368E-01  1.67481545E+00  2.00042814E+00
 -3.71628967E+00 -8.84558779E-07  3.46963892E+00  4.11319940E+00  6.61426091E-07
Force Field                                I                0
Int Atom Types                             I   N=          15
           0           0           0           0           0           0
           0           0           0           0           0           0
           0           0           0
MM charges                                 R   N=          15
  0.00000000E+00  0.00000000E+00  0.00000000E+00  0.00000000E+00  0.00000000E+00
  0.00000000E+00  0.00000000E+00  0.00000000E+00  0.00000000E+00  0.00000000E+00
  0.00000000E+00  0.00000000E+00  0.00000000E+00  0.00000000E+00  0.00000000E+00
Integer atomic weights                     I   N=          15
          16          16          14          14          12          12
          12          12          12           1           1           1
           1           1           1
Real atomic weights                        R   N=          15
  1.59949146E+01  1.59949146E+01  1.40030740E+01  1.40030740E+01  1.20000000E+01
  1.20000000E+01  1.20000000E+01  1.20000000E+01  1.20000000E+01  1.00782504E+00
  1.00782504E+00  1.00782504E+00  1.00782504E+00  1.00782504E+00  1.00782504E+00
Atom fragment info                         I   N=          15
           0           0           0           0           0           0
           0           0           0           0           0           0
           0           0           0
Atom residue num                           I   N=          15
           0           0           0           0           0           0
           0           0           0           0           0           0
           0           0           0
Nuclear spins                              I   N=          15
           0           0           2           2           0           0
           0           0           0           1           1           1
           1           1           1
Nuclear ZEff                               R   N=          15
 -5.60000000E+00 -5.60000000E+00 -4.55000000E+00 -4.55000000E+00 -3.60000000E+00
 -3.60000000E+00 -3.60000000E+00 -3.60000000E+00 -3.60000000E+00 -1.00000000E+00
 -1.00000000E+00 -1.00000000E+00 -1.00000000E+00 -1.00000000E+00 -1.00000000E+00
Nuclear QMom                               R   N=          15
  0.00000000E+00  0.00000000E+00  2.04400000E+00  2.04400000E+00  0.00000000E+00
  0.00000000E+00  0.00000000E+00  0.00000000E+00  0.00000000E+00  0.00000000E+00
  0.00000000E+00  0.00000000E+00  0.00000000E+00  0.00000000E+00  0.00000000E+00
Nuclear GFac                               R   N=          15
  0.00000000E+00  0.00000000E+00  4.03761000E-01  4.03761000E-01  0.00000000E+00
  0.00000000E+00  0.00000000E+00  0.00000000E+00  0.00000000E+00  2.79284600E+00
  2.79284600E+00  2.79284600E+00  2.79284600E+00  2.79284600E+00  2.79284600E+00
MicOpt                                     I   N=          15
          -1          -1          -1          -1          -1          -1
          -1          -1          -1          -1          -1          -1
          -1          -1          -1
Number of contracted shells                I               48
Number of primitive shells                 I              123
Pure/Cartesian d shells                    I                1
Pure/Cartesian f shells                    I                0
Highest angular momentum                   I                2
Largest degree of contraction              I                6
Shell types                                I   N=          48
           0          -1          -1           2           0          -1
          -1           2           0          -1          -1           2
           0          -1          -1           2           0          -1
          -1           2           0          -1          -1           2
           0          -1          -1           2           0          -1
          -1           2           0          -1          -1           2
           0           0           0           0           0           0
           0           0           0           0           0           0
Number of primitives per shell             I   N=          48
           6           3           1           1           6           3
           1           1           6           3           1           1
           6           3           1           1           6           3
           1           1           6           3           1           1
           6           3           1           1           6           3
           1           1           6           3           1           1
           3           1           3           1           3           1
           3           1           3           1           3           1
Shell to atom map                          I   N=          48
           1           1           1           1           2           2
           2           2           3           3           3           3
           4           4           4           4           5           5
           5           5           6           6           6           6
           7           7           7           7           8           8
           8           8           9           9           9           9
          10          10          11          11          12          12
          13          13          14          14          15          15
Primitive exponents                        R   N=         123
  5.48467166E+03  8.25234946E+02  1.88046958E+02  5.29645000E+01  1.68975704E+01
  5.79963534E+00  1.55396162E+01  3.59993359E+00  1.01376175E+00  2.70005823E-01
  8.00000000E-01  5.48467166E+03  8.25234946E+02  1.88046958E+02  5.29645000E+01
  1.68975704E+01  5.79963534E+00  1.55396162E+01  3.59993359E+00  1.01376175E+00
  2.70005823E-01  8.00000000E-01  4.17351146E+03  6.27457911E+02  1.42902093E+02
  4.02343293E+01  1.28202129E+01  4.39043701E+00  1.16263619E+01  2.71627981E+00
  7.72218397E-01  2.12031498E-01  8.00000000E-01  4.17351146E+03  6.27457911E+02
  1.42902093E+02  4.02343293E+01  1.28202129E+01  4.39043701E+00  1.16263619E+01
  2.71627981E+00  7.72218397E-01  2.12031498E-01  8.00000000E-01  3.04752488E+03
  4.57369518E+02  1.03948685E+02  2.92101553E+01  9.28666296E+00  3.16392696E+00
  7.86827235E+00  1.88128854E+00  5.44249258E-01  1.68714478E-01  8.00000000E-01
  3.04752488E+03  4.57369518E+02  1.03948685E+02  2.92101553E+01  9.28666296E+00
  3.16392696E+00  7.86827235E+00  1.88128854E+00  5.44249258E-01  1.68714478E-01
  8.00000000E-01  3.04752488E+03  4.57369518E+02  1.03948685E+02  2.92101553E+01
  9.28666296E+00  3.16392696E+00  7.86827235E+00  1.88128854E+00  5.44249258E-01
  1.68714478E-01  8.00000000E-01  3.04752488E+03  4.57369518E+02  1.03948685E+02
  2.92101553E+01  9.28666296E+00  3.16392696E+00  7.86827235E+00  1.88128854E+00
  5.44249258E-01  1.68714478E-01  8.00000000E-01  3.04752488E+03  4.57369518E+02
  1.03948685E+02  2.92101553E+01  9.28666296E+00  3.16392696E+00  7.86827235E+00
  1.88128854E+00  5.44249258E-01  1.68714478E-01  8.00000000E-01  1.87311370E+01
  2.82539436E+00  6.40121692E-01  1.61277759E-01  1.87311370E+01  2.82539436E+00
  6.40121692E-01  1.61277759E-01  1.87311370E+01  2.82539436E+00  6.40121692E-01
  1.61277759E-01  1.87311370E+01  2.82539436E+00  6.40121692E-01  1.61277759E-01
  1.87311370E+01  2.82539436E+00  6.40121692E-01  1.61277759E-01  1.87311370E+01
  2.82539436E+00  6.40121692E-01  1.61277759E-01
Contraction coefficients                   R   N=         123
  1.83107443E-03  1.39501722E-02  6.84450781E-02  2.32714336E-01  4.70192898E-01
  3.58520853E-01 -1.10777550E-01 -1.48026263E-01  1.13076702E+00  1.00000000E+00
  1.00000000E+00  1.83107443E-03  1.39501722E-02  6.84450781E-02  2.32714336E-01
  4.70192898E-01  3.58520853E-01 -1.10777550E-01 -1.48026263E-01  1.13076702E+00
  1.00000000E+00  1.00000000E+00  1.83477216E-03  1.39946270E-02  6.85865518E-02
  2.32240873E-01  4.69069948E-01  3.60455199E-01 -1.14961182E-01 -1.69117479E-01
  1.14585195E+00  1.00000000E+00  1.00000000E+00  1.83477216E-03  1.39946270E-02
  6.85865518E-02  2.32240873E-01  4.69069948E-01  3.60455199E-01 -1.14961182E-01
 -1.69117479E-01  1.14585195E+00  1.00000000E+00  1.00000000E+00  1.83473713E-03
  1.40373228E-02  6.88426223E-02  2.32184443E-01  4.67941348E-01  3.62311985E-01
 -1.19332420E-01 -1.60854152E-01  1.14345644E+00  1.00000000E+00  1.00000000E+00
  1.83473713E-03  1.40373228E-02  6.88426223E-02  2.32184443E-01  4.67941348E-01
  3.62311985E-01 -1.19332420E-01 -1.60854152E-01  1.14345644E+00  1.00000000E+00
  1.00000000E+00  1.83473713E-03  1.40373228E-02  6.88426223E-02  2.32184443E-01
  4.67941348E-01  3.62311985E-01 -1.19332420E-01 -1.60854152E-01  1.14345644E+00
  1.00000000E+00  1.00000000E+00  1.83473713E-03  1.40373228E-02  6.88426223E-02
  2.32184443E-01  4.67941348E-01  3.62311985E-01 -1.19332420E-01 -1.60854152E-01
  1.14345644E+00  1.00000000E+00  1.00000000E+00  1.83473713E-03  1.40373228E-02
  6.88426223E-02  2.32184443E-01  4.67941348E-01  3.62311985E-01 -1.19332420E-01
 -1.60854152E-01  1.14345644E+00  1.00000000E+00  1.00000000E+00  3.34946043E-02
  2.34726953E-01  8.13757326E-01  1.00000000E+00  3.34946043E-02  2.34726953E-01
  8.13757326E-01  1.00000000E+00  3.34946043E-02  2.34726953E-01  8.13757326E-01
  1.00000000E+00  3.34946043E-02  2.34726953E-01  8.13757326E-01  1.00000000E+00
  3.34946043E-02  2.34726953E-01  8.13757326E-01  1.00000000E+00  3.34946043E-02
  2.34726953E-01  8.13757326E-01  1.00000000E+00
P(S=P) Contraction coefficients            R   N=         123
  0.00000000E+00  0.00000000E+00  0.00000000E+00  0.00000000E+00  0.00000000E+00
  0.00000000E+00  7.08742682E-02  3.39752839E-01  7.27158577E-01  1.00000000E+00
  0.00000000E+00  0.00000000E+00  0.00000000E+00  0.00000000E+00  0.00000000E+00
  0.00000000E+00  0.00000000E+00  7.08742682E-02  3.39752839E-01  7.27158577E-01
  1.00000000E+00  0.00000000E+00  0.00000000E+00  0.00000000E+00  0.00000000E+00
  0.00000000E+00  0.00000000E+00  0.00000000E+00  6.75797439E-02  3.23907296E-01
  7.40895140E-01  1.00000000E+00  0.00000000E+00  0.00000000E+00  0.00000000E+00
  0.00000000E+00  0.00000000E+00  0.00000000E+00  0.00000000E+00  6.75797439E-02
  3.23907296E-01  7.40895140E-01  1.00000000E+00  0.00000000E+00  0.00000000E+00
  0.00000000E+00  0.00000000E+00  0.00000000E+00  0.00000000E+00  0.00000000E+00
  6.89990666E-02  3.16423961E-01  7.44308291E-01  1.00000000E+00  0.00000000E+00
  0.00000000E+00  0.00000000E+00  0.00000000E+00  0.00000000E+00  0.00000000E+00
  0.00000000E+00  6.89990666E-02  3.16423961E-01  7.44308291E-01  1.00000000E+00
  0.00000000E+00  0.00000000E+00  0.00000000E+00  0.00000000E+00  0.00000000E+00
  0.00000000E+00  0.00000000E+00  6.89990666E-02  3.16423961E-01  7.44308291E-01
  1.00000000E+00  0.00000000E+00  0.00000000E+00  0.00000000E+00  0.00000000E+00
  0.00000000E+00  0.00000000E+00  0.00000000E+00  6.89990666E-02  3.16423961E-01
  7.44308291E-01  1.00000000E+00  0.00000000E+00  0.00000000E+00  0.00000000E+00
  0.00000000E+00  0.00000000E+00  0.00000000E+00  0.00000000E+00  6.89990666E-02
  3.16423961E-01  7.44308291E-01  1.00000000E+00  0.00000000E+00  0.00000000E+00
  0.00000000E+00  0.00000000E+00  0.00000000E+00  0.00000000E+00  0.00000000E+00
  0.00000000E+00  0.00000000E+00  0.00000000E+00  0.00000000E+00  0.00000000E+00
  0.00000000E+00  0.00000000E+00  0.00000000E+00  0.00000000E+00  0.00000000E+00
  0.00000000E+00  0.00000000E+00  0.00000000E+00  0.00000000E+00  0.00000000E+00
  0.00000000E+00  0.00000000E+00  0.00000000E+00
Coordinates of each shell                  R   N=         144
 -2.71194289E+00 -3.41793074E+00  9.30397514E-07 -2.71194289E+00 -3.41793074E+00
  9.30397514E-07 -2.71194289E+00 -3.41793074E+00  9.30397514E-07 -2.71194289E+00
 -3.41793074E+00  9.30397514E-07  5.49453719E+00 -5.82497742E-01  5.12565402E-07
  5.49453719E+00 -5.82497742E-01  5.12565402E-07  5.49453719E+00 -5.82497742E-01
  5.12565402E-07  5.49453719E+00 -5.82497742E-01  5.12565402E-07 -2.03808035E+00
  8.72926533E-01 -4.80660818E-07 -2.03808035E+00  8.72926533E-01 -4.80660818E-07
 -2.03808035E+00  8.72926533E-01 -4.80660818E-07 -2.03808035E+00  8.72926533E-01
 -4.80660818E-07  1.37000495E+00 -1.90044493E+00 -1.46070361E-06  1.37000495E+00
 -1.90044493E+00 -1.46070361E-06  1.37000495E+00 -1.90044493E+00 -1.46070361E-06
  1.37000495E+00 -1.90044493E+00 -1.46070361E-06 -1.23154353E+00 -1.63292704E+00
 -2.82985884E-07 -1.23154353E+00 -1.63292704E+00 -2.82985884E-07 -1.23154353E+00
 -1.63292704E+00 -2.82985884E-07 -1.23154353E+00 -1.63292704E+00 -2.82985884E-07
 -3.47953373E-01  2.85038658E+00 -3.23629148E-07 -3.47953373E-01  2.85038658E+00
 -3.23629148E-07 -3.47953373E-01  2.85038658E+00 -3.23629148E-07 -3.47953373E-01
  2.85038658E+00 -3.23629148E-07 -4.77078848E+00  1.27209943E+00  1.87657156E-07
 -4.77078848E+00  1.27209943E+00  1.87657156E-07 -4.77078848E+00  1.27209943E+00
  1.87657156E-07 -4.77078848E+00  1.27209943E+00  1.87657156E-07  2.18885127E+00
  2.51892482E+00  6.46889086E-07  2.18885127E+00  2.51892482E+00  6.46889086E-07
  2.18885127E+00  2.51892482E+00  6.46889086E-07  2.18885127E+00  2.51892482E+00
  6.46889086E-07  3.24369148E+00 -1.53965453E-02  1.11349136E-07  3.24369148E+00
 -1.53965453E-02  1.11349136E-07  3.24369148E+00 -1.53965453E-02  1.11349136E-07
  3.24369148E+00 -1.53965453E-02  1.11349136E-07 -1.19781060E+00  4.71813362E+00
 -9.68776862E-07 -1.19781060E+00  4.71813362E+00 -9.68776862E-07 -5.61059601E+00
  4.11033727E-01 -1.67481479E+00 -5.61059601E+00  4.11033727E-01 -1.67481479E+00
 -5.12883621E+00  3.30042274E+00  5.42341486E-07 -5.12883621E+00  3.30042274E+00
  5.42341486E-07 -5.61059509E+00  4.11033368E-01  1.67481545E+00 -5.61059509E+00
  4.11033368E-01  1.67481545E+00  2.00042814E+00 -3.71628967E+00 -8.84558779E-07
  2.00042814E+00 -3.71628967E+00 -8.84558779E-07  3.46963892E+00  4.11319940E+00
  6.61426091E-07  3.46963892E+00  4.11319940E+00  6.61426091E-07
Constraint Structure                       R   N=          45
 -2.71194289E+00 -3.41793074E+00  9.30397514E-07  5.49453719E+00 -5.82497742E-01
  5.12565402E-07 -2.03808035E+00  8.72926533E-01 -4.80660818E-07  1.37000495E+00
 -1.90044493E+00 -1.46070361E-06 -1.23154353E+00 -1.63292704E+00 -2.82985884E-07
 -3.47953373E-01  2.85038658E+00 -3.23629148E-07 -4.77078848E+00  1.27209943E+00
  1.87657156E-07  2.18885127E+00  2.51892482E+00  6.46889086E-07  3.24369148E+00
 -1.53965453E-02  1.11349136E-07 -1.19781060E+00  4.71813362E+00 -9.68776862E-07
 -5.61059601E+00  4.11033727E-01 -1.67481479E+00 -5.12883621E+00  3.30042274E+00
  5.42341486E-07 -5.61059509E+00  4.11033368E-01  1.67481545E+00  2.00042814E+00
 -3.71628967E+00 -8.84558779E-07  3.46963892E+00  4.11319940E+00  6.61426091E-07
Num ILSW                                   I              100
ILSW                                       I   N=         100
           0           1           0           0           2           0
           0           0           0           0           0          -1
           0           0           0           0           0           0
           0           0           0           0           1           0
           1           0           0           0           0           0
           0           0      100000           0          -1           0
           0           0           0           0           0           0
           0           0           0           1           1           0
           0           0           1           0           0           0
           0           0           4          40           0           0
           0           0           0           0           0           0
           0           0           0           0           0           0
           0           0           0           0           0           0
           0           0           0           0           0           0
           0           0           0           0           0           0
           0           0           0           0           0           0
           0           0           0           0
Num RLSW                                   I               40
RLSW                                       R   N=          40
  1.00000000E+00  1.00000000E+00  1.00000000E+00  1.00000000E+00  1.00000000E+00
  0.00000000E+00  0.00000000E+00  1.00000000E+00  0.00000000E+00  0.00000000E+00
  0.00000000E+00  0.00000000E+00  1.00000000E+00  0.00000000E+00  0.00000000E+00
  0.00000000E+00  0.00000000E+00  1.00000000E+00  0.00000000E+00  0.00000000E+00
  0.00000000E+00  0.00000000E+00  1.00000000E+00  0.00000000E+00  0.00000000E+00
  0.00000000E+00  0.00000000E+00  1.00000000E+00  0.00000000E+00  0.00000000E+00
  0.00000000E+00  0.00000000E+00  0.00000000E+00  0.00000000E+00  0.00000000E+00
  0.00000000E+00  0.00000000E+00  0.00000000E+00  1.00000000E+00  1.00000000E+00
MxBond                                     I                4
NBond                                      I   N=          15
           1           1           3           3           3           3
           4           3           3           1           1           1
           1           1           1
IBond                                      I   N=          60
           5           0           0           0           9           0
           0           0           5           6           7           0
           5           9          14           0           1           3
           4           0           3           8          10           0
           3          11          12          13           6           9
          15           0           2           4           8           0
           6           0           0           0           7           0
           0           0           7           0           0           0
           7           0           0           0           4           0
           0           0           8           0           0           0
RBond                                      R   N=          60
  2.00000000E+00  0.00000000E+00  0.00000000E+00  0.00000000E+00  2.00000000E+00
  0.00000000E+00  0.00000000E+00  0.00000000E+00  1.00000000E+00  1.00000000E+00
  1.00000000E+00  0.00000000E+00  1.00000000E+00  1.00000000E+00  1.00000000E+00
  0.00000000E+00  2.00000000E+00  1.00000000E+00  1.00000000E+00  0.00000000E+00
  1.00000000E+00  2.00000000E+00  1.00000000E+00  0.00000000E+00  1.00000000E+00
  1.00000000E+00  1.00000000E+00  1.00000000E+00  2.00000000E+00  1.00000000E+00
  1.00000000E+00  0.00000000E+00  2.00000000E+00  1.00000000E+00  1.00000000E+00
  0.00000000E+00  1.00000000E+00  0.00000000E+00  0.00000000E+00  0.00000000E+00
  1.00000000E+00  0.00000000E+00  0.00000000E+00  0.00000000E+00  1.00000000E+00
  0.00000000E+00  0.00000000E+00  0.00000000E+00  1.00000000E+00  0.00000000E+00
  0.00000000E+00  0.00000000E+00  1.00000000E+00  0.00000000E+00  0.00000000E+00
  0.00000000E+00  1.00000000E+00  0.00000000E+00  0.00000000E+00  0.00000000E+00
Virial Ratio                               R      2.003058988236941E+00
SCF Energy                                 R     -4.514938820569188E+02
MP2 Energy                                 R     -4.527960338358230E+02
Total Energy                               R     -4.527960338358230E+02
Post-SCF wavefunction norm                 R      1.681636369707036E+00
RMS Force                                  R      4.225544598482505E-08
RMS Density                                R      1.347482670472290E-09
External E-field                           R   N=          35
  0.00000000E+00  0.00000000E+00  0.00000000E+00  0.00000000E+00  0.00000000E+00
  0.00000000E+00  0.00000000E+00  0.00000000E+00  0.00000000E+00  0.00000000E+00
  0.00000000E+00  0.00000000E+00  0.00000000E+00  0.00000000E+00  0.00000000E+00
  0.00000000E+00  0.00000000E+00  0.00000000E+00  0.00000000E+00  0.00000000E+00
  0.00000000E+00  0.00000000E+00  0.00000000E+00  0.00000000E+00  0.00000000E+00
  0.00000000E+00  0.00000000E+00  0.00000000E+00  0.00000000E+00  0.00000000E+00
  0.00000000E+00  0.00000000E+00  0.00000000E+00  0.00000000E+00  0.00000000E+00
IOpCl                                      I                0
IROHF                                      I                0
Alpha Orbital Energies                     R   N=         147
 -2.05499264E+01 -2.05412673E+01 -1.56481313E+01 -1.56276305E+01 -1.14175523E+01
 -1.13791102E+01 -1.13380744E+01 -1.12923445E+01 -1.12521601E+01 -1.42558759E+00
 -1.38370037E+00 -1.30917772E+00 -1.24265736E+00 -1.08824850E+00 -9.87479733E-01
 -9.28298834E-01 -8.68633405E-01 -7.69375417E-01 -7.48051777E-01 -6.97507046E-01
 -6.81330912E-01 -6.52142554E-01 -6.37274204E-01 -6.06408173E-01 -6.05796334E-01
 -5.97139982E-01 -5.75932462E-01 -5.44266931E-01 -4.98150694E-01 -4.72593931E-01
 -4.37648251E-01 -4.24212902E-01 -3.51974862E-01  1.03152621E-01  1.73287057E-01
  2.09217314E-01  2.38904068E-01  2.50566853E-01  2.93441261E-01  2.96393981E-01
  3.10865012E-01  3.14246492E-01  3.32191796E-01  4.01739624E-01  4.18324236E-01
  4.26292497E-01  4.86486812E-01  5.02823871E-01  5.40357899E-01  5.54576417E-01
  6.59073911E-01  6.67659687E-01  6.99783850E-01  7.36588447E-01  7.44053375E-01
  7.65621991E-01  7.86079702E-01  7.91634940E-01  8.25098282E-01  8.38747863E-01
  8.86386307E-01  9.07415267E-01  9.25834798E-01  9.28997826E-01  9.48659034E-01
  1.00949398E+00  1.02675176E+00  1.02909534E+00  1.05387378E+00  1.09574109E+00
  1.10093666E+00  1.12263990E+00  1.13852556E+00  1.14688825E+00  1.14746064E+00
  1.17616064E+00  1.19376753E+00  1.23155156E+00  1.28456289E+00  1.32429157E+00
  1.34118706E+00  1.35218879E+00  1.36847872E+00  1.37946192E+00  1.43426684E+00
  1.45558860E+00  1.50522504E+00  1.55504258E+00  1.57499443E+00  1.63834728E+00
  1.64055910E+00  1.65921472E+00  1.69317784E+00  1.70068176E+00  1.72276317E+00
  1.80571602E+00  1.86121374E+00  1.89526799E+00  2.04296578E+00  2.05403255E+00
  2.08011043E+00  2.09398385E+00  2.11784318E+00  2.12330458E+00  2.14928165E+00
  2.17100761E+00  2.20929726E+00  2.23559765E+00  2.26785147E+00  2.27331585E+00
  2.30177583E+00  2.31394016E+00  2.33530642E+00  2.43024169E+00  2.45675025E+00
  2.46566292E+00  2.51389115E+00  2.59575554E+00  2.60492359E+00  2.61333752E+00
  2.63236903E+00  2.64614575E+00  2.69199581E+00  2.74963877E+00  2.89714279E+00
  2.93340013E+00  2.96455562E+00  2.98029635E+00  3.00548222E+00  3.00748210E+00
  3.10539366E+00  3.18062777E+00  3.20307080E+00  3.33018206E+00  3.34677721E+00
  3.36475312E+00  3.60572831E+00  3.77588949E+00  4.37046070E+00  4.38736027E+00
  4.43034555E+00  4.55094074E+00  4.60422643E+00  4.71437224E+00  4.80407621E+00
  5.01432267E+00  5.08501295E+00
Alpha MO coefficients                      R   N=       21609
  9.94694033E-01  2.10077541E-02  1.03320381E-03  1.24883206E-03 -8.96104804E-10
  4.38928928E-03 -3.35135550E-05 -5.49789629E-05  2.44770460E-11 -3.78778408E-03
 -3.73269014E-03 -4.07589794E-03  1.72763679E-04 -1.92011277E-10 -2.26730203E-10
  5.73339300E-06  5.55379064E-05 -4.85469339E-06  9.93396323E-07  3.53961926E-13
 -3.66081256E-04  8.25186360E-05 -5.67665623E-07  2.86934296E-11  3.07612034E-05
  3.56718324E-05  3.26221222E-05  1.00018677E-07  5.46893505E-13  2.00912888E-12
 -1.45117625E-05 -5.77456195E-05 -1.04593500E-06  4.14632455E-05 -2.44644839E-11
  3.26818138E-04  1.41434822E-04 -1.61471647E-04  1.48119253E-11  3.23615601E-05
 -7.93272418E-05 -5.94304829E-05 -8.95394702E-05 -1.44758466E-11  4.73866048E-11
 -1.75429842E-05 -6.25635666E-05  3.05580330E-05  1.17767677E-05 -2.77079810E-11
  4.63643321E-04 -3.03839040E-04  1.31982680E-04  1.36679289E-10 -3.66654025E-05
 -2.51140222E-05 -6.59095784E-05 -1.14290772E-04 -2.56682490E-11  5.46928486E-11
 -6.08253625E-06  5.37047200E-04  2.02336402E-05  9.94758890E-06 -3.12648825E-11
 -8.46041823E-04  3.80206693E-05  2.79200088E-04 -5.07711149E-11 -3.91098796E-04
 -5.21029925E-04 -4.65781089E-05 -4.59935150E-04  3.13643221E-10  3.77409340E-10
  5.91264071E-06  3.32418186E-05 -1.65236537E-05 -1.49605854E-05 -5.35463570E-12
 -3.09580708E-04 -1.77310879E-04  2.22772596E-04 -7.18279311E-11  3.36670860E-05
 -1.18572184E-05  1.22219698E-05  2.71460503E-05  4.29527974E-12  2.34922503E-12
  1.74002793E-06  3.03645668E-05 -5.28475784E-06 -1.68008799E-05 -8.58302775E-12
  5.47998821E-05 -3.98953204E-05  1.38995872E-04  5.33871171E-11 -2.77322049E-05
 -5.94250279E-06 -4.95348056E-06  6.87950862E-06 -1.57192808E-12  9.54892318E-12
 -2.76993724E-06 -1.61216089E-05 -1.06592703E-06 -1.50671299E-05 -1.32393902E-11
  5.33363930E-04 -1.41231255E-04 -2.04351629E-04 -6.52543742E-11 -7.42418738E-06
  1.95978282E-06  6.76794248E-07  1.18683936E-05 -6.11540501E-13  7.24113254E-12
  1.10711163E-05  4.16574446E-05 -1.83526520E-05 -1.69226083E-05 -2.56755124E-11
 -1.91138278E-04  3.91286006E-04 -2.50629956E-04 -3.63897420E-11  1.20340428E-05
  4.23623046E-05  2.01416644E-05  2.57552764E-05  2.79393672E-11  4.42593196E-11
 -8.82380152E-06 -8.37901522E-05  2.71104908E-05 -3.45516221E-05 -1.13274051E-05
 -8.86662628E-05  2.71105161E-05 -3.45517748E-05  3.56721230E-06  9.93400060E-06
  1.06565192E-06  4.59198694E-05  1.74374624E-05  5.08077406E-05  3.82306070E-06
  3.08704289E-06 -1.24985616E-11 -3.11332509E-04 -6.69903172E-05 -5.06635732E-05
  9.77737344E-11  2.79664061E-05  2.71008201E-05  3.22168171E-05 -5.52011798E-06
  6.81165331E-12  7.08261723E-12  9.94691291E-01  2.09438770E-02 -1.53496879E-03
  3.53229028E-04 -2.92793703E-10  4.65033538E-03 -3.34032085E-06 -2.13719865E-05
 -1.57043002E-11 -3.64510878E-03 -3.89965592E-03 -4.11793164E-03 -7.65113369E-05
  1.72280690E-10  1.85386936E-10 -1.50251773E-06 -5.71938955E-06  6.23346043E-06
 -3.58922784E-07 -4.52064401E-12  1.66864996E-04  2.63425879E-05 -8.03254304E-05
  3.31680177E-11  3.02743451E-06 -1.80247998E-05  4.36424614E-06 -1.04149679E-05
 -2.53872716E-13 -6.06629370E-13 -1.01896966E-05 -3.13113892E-05 -4.16929560E-05
 -1.57233686E-05 -3.02468175E-11  1.38835455E-04  1.59878292E-04  9.17233562E-05
  7.20469398E-11 -1.11065567E-04  4.94041918E-05 -4.91514733E-05 -4.10759467E-06
  5.70806194E-12  6.61960609E-11  9.49588256E-06  3.45637817E-05  3.36811404E-05
 -7.12968440E-06 -1.38796948E-11 -3.05567511E-06 -8.81538724E-05 -2.98409645E-04
 -2.46227205E-11  4.50917926E-05  1.07407474E-05  1.74645219E-05 -1.75807476E-05
 -4.88746858E-11  2.45901455E-12  3.07467384E-06  2.34975958E-05  1.95421017E-05
  1.33406828E-06  9.27844040E-12 -4.12284660E-05 -6.65401839E-05  3.20464486E-05
 -9.86842987E-12  2.56281428E-05 -1.19552811E-05  5.80633778E-06  2.29520321E-05
  1.86443045E-11  2.85186179E-13  4.06840337E-07  3.92218400E-06 -2.83237017E-06
  1.74683766E-06  5.67884764E-14 -1.22181925E-05 -6.88524820E-06  1.19914726E-05
 -1.00087099E-11 -3.41390511E-06  1.91213610E-07  8.69233034E-08  2.74867898E-06
 -1.24916861E-12 -1.91504392E-12  6.47407561E-07  3.29826694E-06 -1.56722245E-05
 -9.78013646E-06 -6.62538520E-12 -1.94711646E-04 -3.84644959E-05  1.17163664E-04
  6.56334258E-12 -5.57883060E-05  5.87622953E-05 -1.48843409E-05  5.51428804E-05
 -1.50447381E-13  4.19273081E-11 -7.86731653E-06  5.02333446E-04 -2.33633888E-05
  2.48443326E-07 -4.18161729E-12 -4.26863492E-04 -6.13190840E-04  3.51278451E-04
  3.75507536E-13 -7.71341619E-04 -9.42868585E-05 -4.90872860E-05  2.12659953E-04
 -1.50162103E-10  2.19044951E-11  3.04044485E-06 -2.87864028E-05  1.10723917E-06
  1.46419387E-06  2.86046944E-07 -5.24324910E-06  1.10723370E-06  1.46421980E-06
 -8.00225501E-06 -2.20896425E-05 -5.06652497E-06 -1.41598340E-05 -2.08432094E-05
 -1.31038206E-04 -2.94425104E-05 -1.44480056E-05  1.24804968E-11  7.97046760E-04
  3.57439250E-04 -1.12287599E-04 -2.06852114E-10  1.95798899E-06 -1.38833899E-04