060_Ethanethiol Gaussian SP Calculation on g2-node38.bme.utexas.edu     
Freq      RMP2-FC                                                     6-31G(d)            
Number of atoms                            I                9
Info1-9                                    I   N=           9
          20          19        1002           0           0         100
           6           2           1
Charge                                     I                0
Multiplicity                               I                1
Number of electrons                        I               34
Number of alpha electrons                  I               17
Number of beta electrons                   I               17
Number of basis functions                  I               61
Number of independent functions            I               61
Number of point charges in /Mol/           I                0
Number of translation vectors              I                0
Atomic numbers                             I   N=           9
           6           6          16           1           1           1
           1           1           1
Nuclear charges                            R   N=           9
  6.00000000E+00  6.00000000E+00  1.60000000E+01  1.00000000E+00  1.00000000E+00
  1.00000000E+00  1.00000000E+00  1.00000000E+00  1.00000000E+00
Current cartesian coordinates              R   N=          27
  9.30465225E-01  1.22109889E+00  1.71174431E-01  3.08570492E+00 -6.64057194E-01
 -1.02269931E-01 -2.19372135E+00 -1.87643177E-01 -1.47813985E-01  1.04981109E+00
  2.22577221E+00  1.97165877E+00  1.02207001E+00  2.64321428E+00 -1.32486274E+00
  4.90813203E+00  3.06353397E-01  2.40355207E-02 -1.97611012E+00 -1.78877887E+00
  1.80642573E+00  2.98053250E+00 -1.63759740E+00 -1.91897675E+00  3.01808529E+00
 -2.08892293E+00  1.39331622E+00
Force Field                                I                0
Int Atom Types                             I   N=           9
           0           0           0           0           0           0
           0           0           0
MM charges                                 R   N=           9
  0.00000000E+00  0.00000000E+00  0.00000000E+00  0.00000000E+00  0.00000000E+00
  0.00000000E+00  0.00000000E+00  0.00000000E+00  0.00000000E+00
Integer atomic weights                     I   N=           9
          12          12          32           1           1           1
           1           1           1
Real atomic weights                        R   N=           9
  1.20000000E+01  1.20000000E+01  3.19720718E+01  1.00782504E+00  1.00782504E+00
  1.00782504E+00  1.00782504E+00  1.00782504E+00  1.00782504E+00
Atom fragment info                         I   N=           9
           0           0           0           0           0           0
           0           0           0
Atom residue num                           I   N=           9
           0           0           0           0           0           0
           0           0           0
Nuclear spins                              I   N=           9
           0           0           0           1           1           1
           1           1           1
Nuclear ZEff                               R   N=           9
 -3.60000000E+00 -3.60000000E+00 -1.36000000E+01 -1.00000000E+00 -1.00000000E+00
 -1.00000000E+00 -1.00000000E+00 -1.00000000E+00 -1.00000000E+00
Nuclear QMom                               R   N=           9
  0.00000000E+00  0.00000000E+00  0.00000000E+00  0.00000000E+00  0.00000000E+00
  0.00000000E+00  0.00000000E+00  0.00000000E+00  0.00000000E+00
Nuclear GFac                               R   N=           9
  0.00000000E+00  0.00000000E+00  0.00000000E+00  2.79284600E+00  2.79284600E+00
  2.79284600E+00  2.79284600E+00  2.79284600E+00  2.79284600E+00
MicOpt                                     I   N=           9
          -1          -1          -1          -1          -1          -1
          -1          -1          -1
Number of contracted shells                I               25
Number of primitive shells                 I               63
Pure/Cartesian d shells                    I                1
Pure/Cartesian f shells                    I                0
Highest angular momentum                   I                2
Largest degree of contraction              I                6
Shell types                                I   N=          25
           0          -1          -1           2           0          -1
          -1           2           0          -1          -1          -1
           2           0           0           0           0           0
           0           0           0           0           0           0
           0
Number of primitives per shell             I   N=          25
           6           3           1           1           6           3
           1           1           6           6           3           1
           1           3           1           3           1           3
           1           3           1           3           1           3
           1
Shell to atom map                          I   N=          25
           1           1           1           1           2           2
           2           2           3           3           3           3
           3           4           4           5           5           6
           6           7           7           8           8           9
           9
Primitive exponents                        R   N=          63
  3.04752488E+03  4.57369518E+02  1.03948685E+02  2.92101553E+01  9.28666296E+00
  3.16392696E+00  7.86827235E+00  1.88128854E+00  5.44249258E-01  1.68714478E-01
  8.00000000E-01  3.04752488E+03  4.57369518E+02  1.03948685E+02  2.92101553E+01
  9.28666296E+00  3.16392696E+00  7.86827235E+00  1.88128854E+00  5.44249258E-01
  1.68714478E-01  8.00000000E-01  2.19171000E+04  3.30149000E+03  7.54146000E+02
  2.12711000E+02  6.79896000E+01  2.30515000E+01  4.23735000E+02  1.00710000E+02
  3.21599000E+01  1.18079000E+01  4.63110000E+00  1.87025000E+00  2.61584000E+00
  9.22167000E-01  3.41287000E-01  1.17167000E-01  6.50000000E-01  1.87311370E+01
  2.82539436E+00  6.40121692E-01  1.61277759E-01  1.87311370E+01  2.82539436E+00
  6.40121692E-01  1.61277759E-01  1.87311370E+01  2.82539436E+00  6.40121692E-01
  1.61277759E-01  1.87311370E+01  2.82539436E+00  6.40121692E-01  1.61277759E-01
  1.87311370E+01  2.82539436E+00  6.40121692E-01  1.61277759E-01  1.87311370E+01
  2.82539436E+00  6.40121692E-01  1.61277759E-01
Contraction coefficients                   R   N=          63
  1.83473713E-03  1.40373228E-02  6.88426223E-02  2.32184443E-01  4.67941348E-01
  3.62311985E-01 -1.19332420E-01 -1.60854152E-01  1.14345644E+00  1.00000000E+00
  1.00000000E+00  1.83473713E-03  1.40373228E-02  6.88426223E-02  2.32184443E-01
  4.67941348E-01  3.62311985E-01 -1.19332420E-01 -1.60854152E-01  1.14345644E+00
  1.00000000E+00  1.00000000E+00  1.86924085E-03  1.42303065E-02  6.96962317E-02
  2.38487108E-01  4.83307220E-01  3.38074154E-01 -2.37677050E-03 -3.16930067E-02
 -1.13317024E-01  5.60900118E-02  5.92255124E-01  4.55006095E-01 -2.50373114E-01
  6.69567631E-02  1.05450627E+00  1.00000000E+00  1.00000000E+00  3.34946043E-02
  2.34726953E-01  8.13757326E-01  1.00000000E+00  3.34946043E-02  2.34726953E-01
  8.13757326E-01  1.00000000E+00  3.34946043E-02  2.34726953E-01  8.13757326E-01
  1.00000000E+00  3.34946043E-02  2.34726953E-01  8.13757326E-01  1.00000000E+00
  3.34946043E-02  2.34726953E-01  8.13757326E-01  1.00000000E+00  3.34946043E-02
  2.34726953E-01  8.13757326E-01  1.00000000E+00
P(S=P) Contraction coefficients            R   N=          63
  0.00000000E+00  0.00000000E+00  0.00000000E+00  0.00000000E+00  0.00000000E+00
  0.00000000E+00  6.89990666E-02  3.16423961E-01  7.44308291E-01  1.00000000E+00
  0.00000000E+00  0.00000000E+00  0.00000000E+00  0.00000000E+00  0.00000000E+00
  0.00000000E+00  0.00000000E+00  6.89990666E-02  3.16423961E-01  7.44308291E-01
  1.00000000E+00  0.00000000E+00  0.00000000E+00  0.00000000E+00  0.00000000E+00
  0.00000000E+00  0.00000000E+00  0.00000000E+00  4.06100998E-03  3.06812999E-02
  1.30451999E-01  3.27204999E-01  4.52850998E-01  2.56041999E-01 -1.45104895E-02
  3.10262776E-01  7.54482456E-01  1.00000000E+00  0.00000000E+00  0.00000000E+00
  0.00000000E+00  0.00000000E+00  0.00000000E+00  0.00000000E+00  0.00000000E+00
  0.00000000E+00  0.00000000E+00  0.00000000E+00  0.00000000E+00  0.00000000E+00
  0.00000000E+00  0.00000000E+00  0.00000000E+00  0.00000000E+00  0.00000000E+00
  0.00000000E+00  0.00000000E+00  0.00000000E+00  0.00000000E+00  0.00000000E+00
  0.00000000E+00  0.00000000E+00  0.00000000E+00
Coordinates of each shell                  R   N=          75
  9.30465225E-01  1.22109889E+00  1.71174431E-01  9.30465225E-01  1.22109889E+00
  1.71174431E-01  9.30465225E-01  1.22109889E+00  1.71174431E-01  9.30465225E-01
  1.22109889E+00  1.71174431E-01  3.08570492E+00 -6.64057194E-01 -1.02269931E-01
  3.08570492E+00 -6.64057194E-01 -1.02269931E-01  3.08570492E+00 -6.64057194E-01
 -1.02269931E-01  3.08570492E+00 -6.64057194E-01 -1.02269931E-01 -2.19372135E+00
 -1.87643177E-01 -1.47813985E-01 -2.19372135E+00 -1.87643177E-01 -1.47813985E-01
 -2.19372135E+00 -1.87643177E-01 -1.47813985E-01 -2.19372135E+00 -1.87643177E-01
 -1.47813985E-01 -2.19372135E+00 -1.87643177E-01 -1.47813985E-01  1.04981109E+00
  2.22577221E+00  1.97165877E+00  1.04981109E+00  2.22577221E+00  1.97165877E+00
  1.02207001E+00  2.64321428E+00 -1.32486274E+00  1.02207001E+00  2.64321428E+00
 -1.32486274E+00  4.90813203E+00  3.06353397E-01  2.40355207E-02  4.90813203E+00
  3.06353397E-01  2.40355207E-02 -1.97611012E+00 -1.78877887E+00  1.80642573E+00
 -1.97611012E+00 -1.78877887E+00  1.80642573E+00  2.98053250E+00 -1.63759740E+00
 -1.91897675E+00  2.98053250E+00 -1.63759740E+00 -1.91897675E+00  3.01808529E+00
 -2.08892293E+00  1.39331622E+00  3.01808529E+00 -2.08892293E+00  1.39331622E+00
Constraint Structure                       R   N=          27
  9.30465225E-01  1.22109889E+00  1.71174431E-01  3.08570492E+00 -6.64057194E-01
 -1.02269931E-01 -2.19372135E+00 -1.87643177E-01 -1.47813985E-01  1.04981109E+00
  2.22577221E+00  1.97165877E+00  1.02207001E+00  2.64321428E+00 -1.32486274E+00
  4.90813203E+00  3.06353397E-01  2.40355207E-02 -1.97611012E+00 -1.78877887E+00
  1.80642573E+00  2.98053250E+00 -1.63759740E+00 -1.91897675E+00  3.01808529E+00
 -2.08892293E+00  1.39331622E+00
Num ILSW                                   I              100
ILSW                                       I   N=         100
           0           1           0           0           2           0
           0           0           0           0           0          -1
           0           0           0           0           0           0
           0           0           0           0           1           0
           1           0           0           0           0           0
           0           0      100000           0          -1           0
           0           0           0           0           0           0
           0           0           0           1           1           0
           0           0           1           0           0           0
           0           0           4          40           0           0
           0           0           0           0           0           0
           0           0           0           0           0           0
           0           0           0           0           0           0
           0           0           0           0           0           0
           0           0           0           0           0           0
           0           0           0           0           0           0
           0           0           0           0
Num RLSW                                   I               40
RLSW                                       R   N=          40
  1.00000000E+00  1.00000000E+00  1.00000000E+00  1.00000000E+00  1.00000000E+00
  0.00000000E+00  0.00000000E+00  1.00000000E+00  0.00000000E+00  0.00000000E+00
  0.00000000E+00  0.00000000E+00  1.00000000E+00  0.00000000E+00  0.00000000E+00
  0.00000000E+00  0.00000000E+00  1.00000000E+00  0.00000000E+00  0.00000000E+00
  0.00000000E+00  0.00000000E+00  1.00000000E+00  0.00000000E+00  0.00000000E+00
  0.00000000E+00  0.00000000E+00  1.00000000E+00  0.00000000E+00  0.00000000E+00
  0.00000000E+00  0.00000000E+00  0.00000000E+00  0.00000000E+00  0.00000000E+00
  0.00000000E+00  0.00000000E+00  0.00000000E+00  1.00000000E+00  1.00000000E+00
MxBond                                     I                4
NBond                                      I   N=           9
           4           4           2           1           1           1
           1           1           1
IBond                                      I   N=          36
           2           3           4           5           1           6
           8           9           1           7           0           0
           1           0           0           0           1           0
           0           0           2           0           0           0
           3           0           0           0           2           0
           0           0           2           0           0           0
RBond                                      R   N=          36
  1.00000000E+00  1.00000000E+00  1.00000000E+00  1.00000000E+00  1.00000000E+00
  1.00000000E+00  1.00000000E+00  1.00000000E+00  1.00000000E+00  1.00000000E+00
  0.00000000E+00  0.00000000E+00  1.00000000E+00  0.00000000E+00  0.00000000E+00
  0.00000000E+00  1.00000000E+00  0.00000000E+00  0.00000000E+00  0.00000000E+00
  1.00000000E+00  0.00000000E+00  0.00000000E+00  0.00000000E+00  1.00000000E+00
  0.00000000E+00  0.00000000E+00  0.00000000E+00  1.00000000E+00  0.00000000E+00
  0.00000000E+00  0.00000000E+00  1.00000000E+00  0.00000000E+00  0.00000000E+00
  0.00000000E+00
Virial Ratio                               R      2.000481083009674E+00
SCF Energy                                 R     -4.767357065736086E+02
MP2 Energy                                 R     -4.771203425457255E+02
Total Energy                               R     -4.771203425457255E+02
Post-SCF wavefunction norm                 R      1.510227189974487E+00
RMS Force                                  R      2.668886755032765E-07
RMS Density                                R      2.005818295593146E-09
External E-field                           R   N=          35
  0.00000000E+00  0.00000000E+00  0.00000000E+00  0.00000000E+00  0.00000000E+00
  0.00000000E+00  0.00000000E+00  0.00000000E+00  0.00000000E+00  0.00000000E+00
  0.00000000E+00  0.00000000E+00  0.00000000E+00  0.00000000E+00  0.00000000E+00
  0.00000000E+00  0.00000000E+00  0.00000000E+00  0.00000000E+00  0.00000000E+00
  0.00000000E+00  0.00000000E+00  0.00000000E+00  0.00000000E+00  0.00000000E+00
  0.00000000E+00  0.00000000E+00  0.00000000E+00  0.00000000E+00  0.00000000E+00
  0.00000000E+00  0.00000000E+00  0.00000000E+00  0.00000000E+00  0.00000000E+00
IOpCl                                      I                0
IROHF                                      I                0
Alpha Orbital Energies                     R   N=          61
 -9.19362486E+01 -1.12645602E+01 -1.12286972E+01 -8.94831720E+00 -6.63144366E+00
 -6.62978517E+00 -6.62753902E+00 -1.07276739E+00 -9.44387387E-01 -8.23209219E-01
 -6.37694997E-01 -5.92271892E-01 -5.55988206E-01 -5.23887964E-01 -4.98840178E-01
 -4.46191272E-01 -3.54176175E-01  1.74991671E-01  2.32278601E-01  2.52070207E-01
  2.84903145E-01  2.91254777E-01  3.21487155E-01  3.25487483E-01  3.79927766E-01
  5.26463014E-01  5.37163926E-01  5.65191687E-01  5.77554925E-01  6.93107426E-01
  7.25025246E-01  8.13999754E-01  8.33546685E-01  8.44693255E-01  9.46337769E-01
  9.67723954E-01  1.05184175E+00  1.12858788E+00  1.13392607E+00  1.14741120E+00
  1.15993095E+00  1.20286113E+00  1.22609843E+00  1.24566786E+00  1.25304563E+00
  1.38884211E+00  1.46832275E+00  1.70255650E+00  1.81261642E+00  1.86037607E+00
  2.23157924E+00  2.27078874E+00  2.28728390E+00  2.54670408E+00  2.60094290E+00
  2.64896870E+00  2.65303115E+00  2.92886128E+00  4.32551086E+00  4.57200207E+00
  4.78113578E+00
Alpha MO coefficients                      R   N=        3721
 -1.66200753E-05 -1.05677340E-05 -8.66431256E-05 -3.91855800E-05 -7.13177034E-06
  4.86623877E-04  1.96403267E-04 -4.63869179E-05 -4.08587291E-05 -4.36453456E-05
 -1.58578612E-05 -4.25316326E-05 -2.52691456E-05 -3.77074847E-07  1.67050071E-07
  5.49451456E-06  6.15632406E-05  6.30110950E-06 -1.42761337E-05 -3.40577846E-06
 -2.88677195E-04  2.90950622E-04 -8.84412994E-05 -6.98255648E-06 -3.15743095E-05
 -3.45675769E-06 -7.56526552E-06  1.96682681E-05 -1.87031575E-07  1.50180167E-07
  9.96254305E-01  1.42512436E-02  7.24617445E-05 -1.28288430E-05  5.37394261E-05
 -1.99878998E-02 -1.40812034E-04  3.07504416E-06 -5.61349720E-05  2.91691660E-03
  2.58083891E-04 -8.45864811E-05  2.15640900E-04  6.87796169E-03  6.88638449E-03
  6.88160336E-03  1.26488967E-06  4.85542342E-06 -8.88060169E-06 -1.84809871E-05
 -2.18578671E-04 -3.78329155E-05 -2.01788122E-04 -1.18611962E-05 -6.39587211E-05
  1.49528157E-04 -4.35598682E-04  4.92435572E-05 -1.10157317E-04  3.05794604E-05
 -6.35427403E-05  9.95814944E-01  2.80552924E-02 -3.96183623E-04 -2.24965523E-04
 -8.83369004E-05 -1.49566815E-02  1.12974717E-04  6.47836805E-04  2.50703468E-04
 -1.82139888E-03 -1.65316192E-03 -1.55714765E-03 -1.31880704E-04 -1.12671555E-05
 -1.46342774E-05  8.26726954E-03  2.86591762E-04 -4.35806325E-05 -3.43813997E-06
  1.24097873E-06  3.58330061E-03 -1.19886542E-03  1.06058228E-03  1.02045378E-04
 -3.24736767E-04 -3.06328279E-04 -1.31479757E-04  2.15642833E-04  3.61250192E-05
 -3.29101183E-05  2.81871110E-06 -2.09271439E-05 -5.92993956E-05 -2.41556027E-05
 -3.87286424E-06  4.08940898E-04  5.42588638E-04  2.32217398E-04  3.64500643E-05
  2.48853279E-03  1.37946114E-03  3.61062047E-04  3.31982229E-04 -8.05031398E-05
 -1.55266654E-04 -1.00915036E-04 -4.13434391E-06  1.52045541E-05 -4.56500833E-05
  1.67052836E-04  2.26414919E-03  1.77231386E-04  2.41366975E-03 -1.34216888E-04
 -6.47871835E-05 -1.11936504E-04 -2.83708361E-04 -1.21546114E-04 -8.28020880E-05
 -1.31299834E-04 -4.18609418E-06 -8.56301370E-03 -1.09650760E-04  2.66001844E-06
 -1.84468959E-06  7.95122708E-08  3.60690944E-03  1.50707636E-03 -1.11558448E-03
 -1.80592317E-04 -3.49006740E-04 -2.66854349E-04 -9.75152702E-05  2.08278655E-04
  3.60792068E-05 -3.05542601E-05  9.95707334E-01  2.84158308E-02 -1.05522304E-04
  9.01896436E-05  4.89102385E-05 -1.50525035E-02  6.56653370E-04 -4.64821191E-04
 -9.58247536E-05 -1.84712654E-03 -1.84270901E-03 -1.81882637E-03  3.16638500E-05
  4.33372512E-06 -1.85541988E-07 -2.21707261E-06 -5.02177184E-05  1.54762577E-05
 -6.77110733E-07  1.90898206E-06 -1.27584499E-04 -1.43828554E-04  8.79613028E-06
 -1.97175128E-05  6.80376409E-04  3.19404568E-04 -6.52552839E-05  2.31110352E-04
 -7.81702700E-05 -5.97803498E-05 -1.30950931E-04 -2.65178419E-05  9.91521672E-06
 -1.56690451E-05 -1.24511571E-04 -3.08089871E-05 -1.40151109E-04  1.06802080E-05
  1.23706918E-04  2.47310977E-03 -1.28713092E-05 -3.49551511E-04  1.60731707E-04
  2.50529458E-03  1.38157195E-04  2.56183883E-03 -4.26264834E-05  7.08366874E-04
  6.17773876E-05  3.48734331E-05 -1.89369324E-07 -1.76314131E-03 -6.80146812E-04
  4.35101247E-04  2.58552088E-04 -3.18660239E-04 -5.80403589E-05  1.66793075E-04
 -1.64218754E-04 -5.79685155E-05 -2.09516505E-05 -5.73328468E-05 -3.70875144E-04
  1.10157396E-04  7.24613199E-05  2.51551873E-05  1.76537872E-03 -1.57101040E-03
  1.16209080E-04 -5.36146837E-05  3.49946484E-05 -8.20923927E-05 -6.25478048E-05
 -7.41992437E-05  3.27172459E-06  3.80020357E-06 -2.81769527E-01  1.03024085E+00
  4.29382304E-03 -1.10228149E-03  4.02575185E-03  2.47000849E-02  1.39483099E-03
 -1.72853527E-04  8.89151531E-04 -8.33382309E-03 -1.48296532E-03  5.71801924E-04
 -1.34806513E-03 -1.21192249E-03 -1.37430221E-03 -1.36530561E-03  2.30772057E-04
  3.70838393E-05 -2.46225640E-04 -6.04322494E-05  7.94069560E-04  7.81966294E-05
  6.11481047E-04  6.15295930E-05  4.31465861E-04 -4.43134602E-04  2.26222770E-03
 -2.62892364E-04  2.04009340E-04 -1.61783007E-04  3.42623004E-05  2.76784950E-05
  9.28756279E-04  2.60232814E-04  1.67205821E-04 -6.88437039E-05 -3.22711032E-03
  8.66732896E-04 -1.27373005E-05  1.05723742E-03 -5.18814397E-04  1.08812266E-04
  1.16080280E-04 -2.17267423E-04 -2.25195489E-04 -3.38377124E-05 -1.24470257E-05
 -9.97520588E-05 -6.74122376E-05  3.74733261E-05  9.89959468E-07  7.51121452E-04
 -1.88995973E-04  1.05181176E-04 -2.36021695E-04  3.77735968E-05 -1.55645051E-05
  6.12889903E-06 -5.99110753E-05  8.00505808E-05 -4.66065159E-07 -6.01648368E-04
  2.24551681E-03  3.21407767E-01  7.15174664E-01 -6.09237541E-01 -1.59284488E-03
  8.08168098E-03  1.69672403E-02 -1.42166196E-02  2.60786868E-03 -1.28239943E-03
 -4.59840857E-03  4.38926379E-03  1.17259323E-03  2.31214074E-04 -2.46634052E-04
  5.93931179E-04 -1.45454345E-04  5.79020256E-04  1.12207431E-04 -6.27084761E-05
  1.96646209E-04  2.12144900E-03  2.43239595E-05 -2.22694717E-04  1.15577598E-03
 -2.51617116E-03 -8.61894937E-05  2.87818251E-05  5.34493135E-05 -2.79756693E-04
  1.83051893E-05  1.21524327E-03  2.72232363E-04  7.68762553E-05  8.40363852E-05
 -4.00835707E-03  5.46733323E-04  1.43453617E-03 -2.19011438E-04 -4.75135939E-04
 -1.03912045E-04  3.20205800E-04 -3.96226110E-04  3.77220181E-05 -4.92264468E-05
 -4.96441083E-05 -3.98896273E-04 -1.18499100E-04  4.47752656E-05  1.19289135E-05
  2.16302734E-03 -1.52629715E-03  3.09261121E-04  1.10200903E-04  2.06714903E-04
 -8.41656117E-05  2.52365079E-06 -6.34102516E-05 -4.96309325E-05 -2.09111564E-05
  1.88815662E-03 -7.14004353E-03  8.60922892E-01  3.36440462E-02  4.94030510E-01
  4.65825763E-03  2.00614534E-02  1.07258142E-03  1.10222146E-02 -5.06030509E-04
 -4.59203118E-03  2.28302529E-04 -2.88695250E-03 -3.62377254E-04 -1.44852415E-03
 -1.18821068E-03  2.63331854E-04  5.92505183E-04 -1.12325432E-04  1.95628522E-04
  1.12746415E-03  1.91143613E-04  9.72874648E-05  4.92427067E-05  5.85823131E-05
 -4.37199165E-04  9.98123161E-04 -1.44259796E-04  1.01809017E-04 -2.39816436E-04
  3.79455660E-04 -5.56899117E-06 -4.23250363E-05  3.58680901E-05  5.29997842E-05
  5.47367382E-05  7.62494414E-05  2.13517879E-04 -7.59106442E-04 -6.06715583E-04
 -1.34593561E-04  1.89654488E-04 -6.29293888E-05  6.60923139E-05  1.17652772E-04
  6.75621117E-05  3.13889453E-06  9.33780269E-05  3.06625371E-05  3.21588829E-05
  1.04930689E-05 -2.06515051E-04  7.50470598E-04 -3.26698238E-04  6.44852796E-06
 -1.39039483E-04  1.52682257E-05 -2.68204456E-05  4.29651446E-06 -4.99728789E-05
  3.90324866E-06  1.36310684E-05 -7.55550261E-05 -3.76711015E-01  6.88647626E-01
  6.09638313E-01 -8.26104501E-05 -7.80221203E-03  1.40791272E-02  1.24581517E-02
  1.79441836E-04  1.91964682E-03 -3.36282983E-03 -2.82819564E-03 -3.20276964E-04
 -9.00334083E-05  3.00121548E-04  2.96237774E-04  1.41846302E-04  1.82483730E-04
  2.66906713E-05  1.07027530E-03 -1.91191519E-05  5.72145899E-05 -2.13877713E-05
 -2.01273784E-04 -1.50031602E-05 -9.86905197E-05  1.81450986E-04 -7.72433132E-04
  5.28077047E-05 -3.15669484E-04 -1.44727389E-01  2.67357475E-01  3.78626389E-03
 -3.65688730E-02 -7.66968877E-03  2.54410111E-01 -7.81553489E-03 -1.11642832E-02
 -1.21443831E-04  9.74527405E-03  6.78633604E-03  4.28246863E-03 -1.58914462E-03
  5.20079830E-04  2.78235912E-04 -1.07992053E-01  2.00642828E-01 -4.89900729E-02
  3.65977359E-02  5.70508216E-03  1.62743062E-01 -3.58244404E-03  3.95416116E-03
  7.63904964E-04  8.06715452E-03  6.09252047E-03  2.40044039E-03 -5.17804863E-03
 -7.82237726E-04  5.80834813E-04  3.45936168E-02 -1.60494608E-01 -3.83003067E-02
 -6.80000680E-03 -1.29914413E-02  3.03162452E-01  8.67617004E-02  1.48746647E-02
  2.98076270E-02  9.50688583E-02 -4.35087694E-04 -2.55289270E-03  1.83393406E-03
  2.21975901E-02  1.81265437E-03  3.53943119E-04  1.32339640E-02  5.71984478E-03
 -7.35096069E-03  8.06465971E-02  9.96262152E-03  8.26339008E-02  1.33058142E-02
  5.71528540E-02  9.62811449E-03  5.85628853E-02  1.77415364E-02  5.96572717E-02
  9.01991170E-03  5.99877548E-02  1.07193843E-02  3.97896761E-03 -1.19990905E-02
 -1.42288226E-01  2.27937204E-02  4.05262806E-03  1.69478865E-02 -3.88388979E-02
  2.46084416E-04  4.23072726E-04  4.44212833E-03 -3.91614538E-03  9.18876030E-05
  1.52356400E-02  2.68883353E-03 -6.38512162E-04  1.34883199E-01 -2.50156225E-01
 -1.96431004E-02 -1.76651161E-03 -3.61530135E-04 -2.64164966E-01 -2.53670360E-03
 -3.38585990E-04  1.65683397E-04 -3.53018141E-03 -6.08673711E-03 -7.22086355E-03
 -3.15044245E-03 -5.01088942E-04  1.62025868E-04  5.12439794E-02 -2.38278424E-01
 -1.48841692E-02  7.08259754E-03 -2.35751905E-02  4.65281136E-01  3.38832234E-02
 -1.73466235E-02  5.58600202E-02  1.97415437E-01  4.34081547E-03 -2.58984359E-03
  6.92932264E-03  5.10973317E-03  8.07174955E-03  1.12031571E-02  7.28561660E-03
  5.30941795E-03 -1.71038171E-02 -5.52994686E-04 -4.53167397E-03 -1.10692843E-03
 -3.98644238E-03 -1.00799533E-01 -2.85058458E-02  1.10304586E-01  4.13742203E-02
 -9.09361017E-02 -2.44435493E-02 -9.15218994E-02 -2.62857358E-02 -1.25131640E-01
  2.36331273E-01  1.04824654E-02  1.42601831E-01  9.35220853E-03  3.02438173E-01
 -3.73236308E-03  5.01513164E-02  1.46060631E-03 -9.45926622E-03  3.35114887E-03
  1.82203135E-02  2.03291056E-03  1.14398319E-03 -2.89414925E-03  8.52108214E-02
 -1.58275286E-01 -7.70859731E-02  1.04750996E-01  1.05240791E-02 -2.00700384E-01
 -2.38316802E-02  3.40154669E-02  4.03476347E-03  1.49813343E-03  3.77031474E-04
 -1.13980138E-02 -1.25523836E-02 -1.70077907E-03  2.18546291E-03 -3.05277912E-02
  1.42401861E-01 -2.66553854E-02 -4.40210330E-02  2.10746994E-02 -2.85256996E-01
  6.36954465E-02  1.05921972E-01 -5.09257397E-02 -1.62604446E-01 -2.66716330E-03
  1.00461664E-02 -5.89140253E-03  1.62235408E-02 -6.67063019E-03 -1.87081172E-02
  1.54074855E-02 -4.72027627E-04  2.10339134E-02  1.34740511E-01  5.67268999E-02
  1.42685845E-01  5.97696743E-02 -7.44875802E-02 -3.02357470E-02 -1.08897543E-01
 -5.91451822E-02 -9.25642134E-02 -3.41538142E-02 -9.72970074E-02 -3.92913845E-02
 -6.33442074E-03  1.39924562E-02  4.54501557E-02 -1.31541642E-02  3.34626324E-01
  7.82052443E-03  3.03216943E-02 -1.07788451E-02  1.83494260E-01 -3.68381890E-03
 -3.56070146E-03  6.60592203E-03 -2.16542329E-03  1.43027037E-03  1.94666862E-02
  3.17117739E-03 -5.27412987E-03  9.08903106E-03  4.29276366E-03  2.46188861E-01
 -1.56053655E-02  4.99356833E-03  1.75602452E-03  1.08136483E-01  1.49920696E-03
  3.53430702E-03 -5.23645970E-03  4.96217022E-04 -6.44975635E-03 -1.23027929E-02
 -6.51926866E-03  3.01944208E-02  1.09067103E-02  2.88740411E-02 -6.32297344E-02
 -6.78489268E-02 -2.68825383E-02 -7.11112361E-02  1.57904057E-01 -4.31163462E-02
  2.99700326E-03 -5.43356231E-03  3.82085162E-02 -1.40810835E-02  2.10039042E-03
  1.58703478E-02 -8.35761220E-03  1.64252116E-02 -1.02531524E-02  1.78508214E-01
  1.11772766E-01 -1.44370845E-01 -8.92954325E-02  1.24260892E-02  8.62083951E-03
  7.68574292E-02  7.21241986E-02 -1.33941316E-01 -9.08977518E-02  1.04030693E-01
  7.58328319E-02  2.09049064E-02 -3.66455056E-02  5.86583975E-02  2.21153679E-01
 -9.80452081E-03 -8.44449531E-02  4.27777269E-02  1.24453788E-01 -9.06804672E-03
 -4.41377908E-03 -6.01593451E-03  1.06111654E-02  4.89260837E-05 -1.73898780E-03
 -5.59289256E-03 -2.20061360E-03  2.85682152E-03  3.13284504E-01  1.89793043E-01
 -2.68953254E-02  1.61733651E-02  1.57768563E-01  1.05695071E-01 -9.62897085E-03
  1.60842029E-02 -1.02183915E-04 -1.30016276E-02  1.97340849E-02  3.65350569E-03
  5.40018206E-03  9.23659605E-03 -4.44262000E-02  7.49797470E-02  1.80306038E-02
 -1.93458441E-02  8.91734205E-02 -1.90181420E-01 -4.48848960E-02  4.99187363E-02
  9.63074089E-02 -3.91496196E-02  1.06647966E-03  1.64387870E-02 -3.38786453E-02
  1.27296933E-02  1.75597298E-02 -6.86317079E-03 -5.04795800E-03 -1.36960720E-02
  4.32328301E-02  3.17533189E-02  8.21905573E-02  5.76909904E-02  2.35345829E-01
  1.75969744E-01  6.08697247E-02  4.75980116E-02 -4.88802595E-02 -3.19038658E-02
 -9.97612801E-02 -7.58035527E-02  1.84411060E-02 -4.49896597E-02 -2.55601630E-01
  1.70004076E-01  4.56171047E-02 -2.31972674E-02 -1.50399896E-01  9.12831356E-02
  1.19241654E-02  1.99627558E-03 -4.52389662E-03  7.63405617E-03  1.30212494E-02
  7.71031071E-03 -1.42689003E-03  1.02566375E-03 -8.09218562E-03  1.89935959E-01
 -2.54473898E-01  1.02394973E-01  2.24962445E-02  8.73317442E-02 -1.16004768E-01
  6.39902935E-02 -9.05390649E-03  1.42443794E-03  1.22699616E-02  1.51383319E-02
  1.37103058E-03 -1.30577155E-02  9.70702064E-03 -4.51704603E-02 -1.01710641E-02
 -1.10617814E-01  6.17126924E-02  1.01827967E-01  2.43769959E-02  2.81693204E-01
 -1.57080297E-01  7.58354624E-02 -1.53785837E-02  7.14481360E-02 -3.45691645E-02
  2.14161368E-02 -2.54490776E-03 -2.50931262E-02  2.41768965E-02 -1.60187218E-03
  3.76078580E-02  4.94504861E-02  4.32847316E-02  2.88279873E-02  1.93158506E-02
  3.40587364E-02  2.89873681E-02 -1.58809905E-01 -1.62316592E-01  1.16836698E-02
  1.66227138E-02  1.58281914E-01  1.29195083E-01 -2.78766972E-03  7.71937090E-03
  6.53126978E-02 -1.80364934E-01 -1.57797744E-01  1.10661969E-02  2.25575557E-02
 -9.70022614E-02 -1.11161801E-01  1.53058854E-02 -3.69499226E-04 -1.71960126E-02
 -4.78779599E-03  6.93137337E-03 -1.33933750E-02 -6.01461068E-03  1.32903946E-02
 -1.86459437E-02  1.96820078E-01  2.99310874E-01  1.00581789E-02 -3.91049888E-03
  1.04763959E-01  1.82764065E-01  1.64315700E-02  2.80383021E-03 -2.22990341E-02
 -2.42295576E-03 -6.21136917E-04 -2.21224167E-02  1.07323104E-02 -4.98504698E-02
 -8.34263862E-03 -2.68495555E-02  8.21284353E-02  1.12702738E-01  2.13241555E-02
  6.87915907E-02 -2.10877057E-01  9.09411511E-02 -3.50387283E-03  7.24160649E-03
 -6.60732534E-02  2.18257177E-02 -8.74829153E-03 -1.84819647E-02  2.43707253E-03