13433080                                                                
Freq      RMP2-FC                                                     6-31G(d)            
Number of atoms                            I               25
Info1-9                                    I   N=           9
          37          35        1002           0           0         100
           6           2           1
Charge                                     I                0
Multiplicity                               I                1
Number of electrons                        I               98
Number of alpha electrons                  I               49
Number of beta electrons                   I               49
Number of basis functions                  I              232
Number of independent functions            I              232
Number of point charges in /Mol/           I                0
Number of translation vectors              I                0
Atomic numbers                             I   N=          25
           8           7           6           6           6           6
           6           6           6           6           6           6
           6           6           1           1           1           1
           1           1           1           1           1           1
           1
Nuclear charges                            R   N=          25
  8.00000000E+00  7.00000000E+00  6.00000000E+00  6.00000000E+00  6.00000000E+00
  6.00000000E+00  6.00000000E+00  6.00000000E+00  6.00000000E+00  6.00000000E+00
  6.00000000E+00  6.00000000E+00  6.00000000E+00  6.00000000E+00  1.00000000E+00
  1.00000000E+00  1.00000000E+00  1.00000000E+00  1.00000000E+00  1.00000000E+00
  1.00000000E+00  1.00000000E+00  1.00000000E+00  1.00000000E+00  1.00000000E+00
Current cartesian coordinates              R   N=          75
 -9.01717238E-01  2.48777827E+00  5.68503983E-01  1.50899231E+00 -1.04607496E+00
 -5.23987575E-01  6.08494572E+00 -8.00459921E-01 -2.99790288E-01  1.40320497E+00
  1.32445286E+00  2.86675556E-01 -3.06296093E+00  1.00208011E+00  2.66996254E-01
  5.88463890E+00  1.70649356E+00  5.50659086E-01  3.52524223E+00  2.80324661E+00
  8.57857294E-01  3.82938714E+00 -2.06665930E+00 -7.98760075E-01  8.60871523E+00
 -2.05851911E+00 -6.53844814E-01 -3.62765427E+00 -9.22322838E-01  1.97663842E+00
 -4.71879276E+00  1.64940646E+00 -1.67112594E+00 -5.90078801E+00 -2.22902174E+00
  1.71404483E+00 -6.99525630E+00  3.35076990E-01 -1.90618418E+00 -7.58798195E+00
 -1.60720801E+00 -2.21882337E-01  7.58158677E+00  2.79103544E+00  9.73717990E-01
  3.28343270E+00  4.73158534E+00  1.51424930E+00  3.85742954E+00 -4.01496502E+00
 -1.46660065E+00  9.66730708E+00 -2.12397432E+00  1.12196403E+00  8.37497350E+00
 -3.99783653E+00 -1.32725574E+00  9.76400546E+00 -1.03985566E+00 -2.03432832E+00
 -2.30226715E+00 -1.37778522E+00  3.47581801E+00 -4.21190601E+00  3.16934990E+00
 -2.95464667E+00 -6.35893299E+00 -3.73671860E+00  3.03276341E+00 -8.30204211E+00
  8.30388168E-01 -3.41235029E+00 -9.35899494E+00 -2.63031896E+00 -4.11152754E-01
Force Field                                I                0
Int Atom Types                             I   N=          25
           0           0           0           0           0           0
           0           0           0           0           0           0
           0           0           0           0           0           0
           0           0           0           0           0           0
           0
MM charges                                 R   N=          25
  0.00000000E+00  0.00000000E+00  0.00000000E+00  0.00000000E+00  0.00000000E+00
  0.00000000E+00  0.00000000E+00  0.00000000E+00  0.00000000E+00  0.00000000E+00
  0.00000000E+00  0.00000000E+00  0.00000000E+00  0.00000000E+00  0.00000000E+00
  0.00000000E+00  0.00000000E+00  0.00000000E+00  0.00000000E+00  0.00000000E+00
  0.00000000E+00  0.00000000E+00  0.00000000E+00  0.00000000E+00  0.00000000E+00
Integer atomic weights                     I   N=          25
          16          14          12          12          12          12
          12          12          12          12          12          12
          12          12           1           1           1           1
           1           1           1           1           1           1
           1
Real atomic weights                        R   N=          25
  1.59949146E+01  1.40030740E+01  1.20000000E+01  1.20000000E+01  1.20000000E+01
  1.20000000E+01  1.20000000E+01  1.20000000E+01  1.20000000E+01  1.20000000E+01
  1.20000000E+01  1.20000000E+01  1.20000000E+01  1.20000000E+01  1.00782504E+00
  1.00782504E+00  1.00782504E+00  1.00782504E+00  1.00782504E+00  1.00782504E+00
  1.00782504E+00  1.00782504E+00  1.00782504E+00  1.00782504E+00  1.00782504E+00
Atom fragment info                         I   N=          25
           0           0           0           0           0           0
           0           0           0           0           0           0
           0           0           0           0           0           0
           0           0           0           0           0           0
           0
Atom residue num                           I   N=          25
           0           0           0           0           0           0
           0           0           0           0           0           0
           0           0           0           0           0           0
           0           0           0           0           0           0
           0
Nuclear spins                              I   N=          25
           0           2           0           0           0           0
           0           0           0           0           0           0
           0           0           1           1           1           1
           1           1           1           1           1           1
           1
Nuclear ZEff                               R   N=          25
 -5.60000000E+00 -4.55000000E+00 -3.60000000E+00 -3.60000000E+00 -3.60000000E+00
 -3.60000000E+00 -3.60000000E+00 -3.60000000E+00 -3.60000000E+00 -3.60000000E+00
 -3.60000000E+00 -3.60000000E+00 -3.60000000E+00 -3.60000000E+00 -1.00000000E+00
 -1.00000000E+00 -1.00000000E+00 -1.00000000E+00 -1.00000000E+00 -1.00000000E+00
 -1.00000000E+00 -1.00000000E+00 -1.00000000E+00 -1.00000000E+00 -1.00000000E+00
Nuclear QMom                               R   N=          25
  0.00000000E+00  2.04400000E+00  0.00000000E+00  0.00000000E+00  0.00000000E+00
  0.00000000E+00  0.00000000E+00  0.00000000E+00  0.00000000E+00  0.00000000E+00
  0.00000000E+00  0.00000000E+00  0.00000000E+00  0.00000000E+00  0.00000000E+00
  0.00000000E+00  0.00000000E+00  0.00000000E+00  0.00000000E+00  0.00000000E+00
  0.00000000E+00  0.00000000E+00  0.00000000E+00  0.00000000E+00  0.00000000E+00
Nuclear GFac                               R   N=          25
  0.00000000E+00  4.03761000E-01  0.00000000E+00  0.00000000E+00  0.00000000E+00
  0.00000000E+00  0.00000000E+00  0.00000000E+00  0.00000000E+00  0.00000000E+00
  0.00000000E+00  0.00000000E+00  0.00000000E+00  0.00000000E+00  2.79284600E+00
  2.79284600E+00  2.79284600E+00  2.79284600E+00  2.79284600E+00  2.79284600E+00
  2.79284600E+00  2.79284600E+00  2.79284600E+00  2.79284600E+00  2.79284600E+00
MicOpt                                     I   N=          25
          -1          -1          -1          -1          -1          -1
          -1          -1          -1          -1          -1          -1
          -1          -1          -1          -1          -1          -1
          -1          -1          -1          -1          -1          -1
          -1
Number of contracted shells                I               78
Number of primitive shells                 I              198
Pure/Cartesian d shells                    I                1
Pure/Cartesian f shells                    I                0
Highest angular momentum                   I                2
Largest degree of contraction              I                6
Shell types                                I   N=          78
           0          -1          -1           2           0          -1
          -1           2           0          -1          -1           2
           0          -1          -1           2           0          -1
          -1           2           0          -1          -1           2
           0          -1          -1           2           0          -1
          -1           2           0          -1          -1           2
           0          -1          -1           2           0          -1
          -1           2           0          -1          -1           2
           0          -1          -1           2           0          -1
          -1           2           0           0           0           0
           0           0           0           0           0           0
           0           0           0           0           0           0
           0           0           0           0           0           0
Number of primitives per shell             I   N=          78
           6           3           1           1           6           3
           1           1           6           3           1           1
           6           3           1           1           6           3
           1           1           6           3           1           1
           6           3           1           1           6           3
           1           1           6           3           1           1
           6           3           1           1           6           3
           1           1           6           3           1           1
           6           3           1           1           6           3
           1           1           3           1           3           1
           3           1           3           1           3           1
           3           1           3           1           3           1
           3           1           3           1           3           1
Shell to atom map                          I   N=          78
           1           1           1           1           2           2
           2           2           3           3           3           3
           4           4           4           4           5           5
           5           5           6           6           6           6
           7           7           7           7           8           8
           8           8           9           9           9           9
          10          10          10          10          11          11
          11          11          12          12          12          12
          13          13          13          13          14          14
          14          14          15          15          16          16
          17          17          18          18          19          19
          20          20          21          21          22          22
          23          23          24          24          25          25
Primitive exponents                        R   N=         198
  5.48467166E+03  8.25234946E+02  1.88046958E+02  5.29645000E+01  1.68975704E+01
  5.79963534E+00  1.55396162E+01  3.59993359E+00  1.01376175E+00  2.70005823E-01
  8.00000000E-01  4.17351146E+03  6.27457911E+02  1.42902093E+02  4.02343293E+01
  1.28202129E+01  4.39043701E+00  1.16263619E+01  2.71627981E+00  7.72218397E-01
  2.12031498E-01  8.00000000E-01  3.04752488E+03  4.57369518E+02  1.03948685E+02
  2.92101553E+01  9.28666296E+00  3.16392696E+00  7.86827235E+00  1.88128854E+00
  5.44249258E-01  1.68714478E-01  8.00000000E-01  3.04752488E+03  4.57369518E+02
  1.03948685E+02  2.92101553E+01  9.28666296E+00  3.16392696E+00  7.86827235E+00
  1.88128854E+00  5.44249258E-01  1.68714478E-01  8.00000000E-01  3.04752488E+03
  4.57369518E+02  1.03948685E+02  2.92101553E+01  9.28666296E+00  3.16392696E+00
  7.86827235E+00  1.88128854E+00  5.44249258E-01  1.68714478E-01  8.00000000E-01
  3.04752488E+03  4.57369518E+02  1.03948685E+02  2.92101553E+01  9.28666296E+00
  3.16392696E+00  7.86827235E+00  1.88128854E+00  5.44249258E-01  1.68714478E-01
  8.00000000E-01  3.04752488E+03  4.57369518E+02  1.03948685E+02  2.92101553E+01
  9.28666296E+00  3.16392696E+00  7.86827235E+00  1.88128854E+00  5.44249258E-01
  1.68714478E-01  8.00000000E-01  3.04752488E+03  4.57369518E+02  1.03948685E+02
  2.92101553E+01  9.28666296E+00  3.16392696E+00  7.86827235E+00  1.88128854E+00
  5.44249258E-01  1.68714478E-01  8.00000000E-01  3.04752488E+03  4.57369518E+02
  1.03948685E+02  2.92101553E+01  9.28666296E+00  3.16392696E+00  7.86827235E+00
  1.88128854E+00  5.44249258E-01  1.68714478E-01  8.00000000E-01  3.04752488E+03
  4.57369518E+02  1.03948685E+02  2.92101553E+01  9.28666296E+00  3.16392696E+00
  7.86827235E+00  1.88128854E+00  5.44249258E-01  1.68714478E-01  8.00000000E-01
  3.04752488E+03  4.57369518E+02  1.03948685E+02  2.92101553E+01  9.28666296E+00
  3.16392696E+00  7.86827235E+00  1.88128854E+00  5.44249258E-01  1.68714478E-01
  8.00000000E-01  3.04752488E+03  4.57369518E+02  1.03948685E+02  2.92101553E+01
  9.28666296E+00  3.16392696E+00  7.86827235E+00  1.88128854E+00  5.44249258E-01
  1.68714478E-01  8.00000000E-01  3.04752488E+03  4.57369518E+02  1.03948685E+02
  2.92101553E+01  9.28666296E+00  3.16392696E+00  7.86827235E+00  1.88128854E+00
  5.44249258E-01  1.68714478E-01  8.00000000E-01  3.04752488E+03  4.57369518E+02
  1.03948685E+02  2.92101553E+01  9.28666296E+00  3.16392696E+00  7.86827235E+00
  1.88128854E+00  5.44249258E-01  1.68714478E-01  8.00000000E-01  1.87311370E+01
  2.82539436E+00  6.40121692E-01  1.61277759E-01  1.87311370E+01  2.82539436E+00
  6.40121692E-01  1.61277759E-01  1.87311370E+01  2.82539436E+00  6.40121692E-01
  1.61277759E-01  1.87311370E+01  2.82539436E+00  6.40121692E-01  1.61277759E-01
  1.87311370E+01  2.82539436E+00  6.40121692E-01  1.61277759E-01  1.87311370E+01
  2.82539436E+00  6.40121692E-01  1.61277759E-01  1.87311370E+01  2.82539436E+00
  6.40121692E-01  1.61277759E-01  1.87311370E+01  2.82539436E+00  6.40121692E-01
  1.61277759E-01  1.87311370E+01  2.82539436E+00  6.40121692E-01  1.61277759E-01
  1.87311370E+01  2.82539436E+00  6.40121692E-01  1.61277759E-01  1.87311370E+01
  2.82539436E+00  6.40121692E-01  1.61277759E-01
Contraction coefficients                   R   N=         198
  1.83107443E-03  1.39501722E-02  6.84450781E-02  2.32714336E-01  4.70192898E-01
  3.58520853E-01 -1.10777550E-01 -1.48026263E-01  1.13076702E+00  1.00000000E+00
  1.00000000E+00  1.83477216E-03  1.39946270E-02  6.85865518E-02  2.32240873E-01
  4.69069948E-01  3.60455199E-01 -1.14961182E-01 -1.69117479E-01  1.14585195E+00
  1.00000000E+00  1.00000000E+00  1.83473713E-03  1.40373228E-02  6.88426223E-02
  2.32184443E-01  4.67941348E-01  3.62311985E-01 -1.19332420E-01 -1.60854152E-01
  1.14345644E+00  1.00000000E+00  1.00000000E+00  1.83473713E-03  1.40373228E-02
  6.88426223E-02  2.32184443E-01  4.67941348E-01  3.62311985E-01 -1.19332420E-01
 -1.60854152E-01  1.14345644E+00  1.00000000E+00  1.00000000E+00  1.83473713E-03
  1.40373228E-02  6.88426223E-02  2.32184443E-01  4.67941348E-01  3.62311985E-01
 -1.19332420E-01 -1.60854152E-01  1.14345644E+00  1.00000000E+00  1.00000000E+00
  1.83473713E-03  1.40373228E-02  6.88426223E-02  2.32184443E-01  4.67941348E-01
  3.62311985E-01 -1.19332420E-01 -1.60854152E-01  1.14345644E+00  1.00000000E+00
  1.00000000E+00  1.83473713E-03  1.40373228E-02  6.88426223E-02  2.32184443E-01
  4.67941348E-01  3.62311985E-01 -1.19332420E-01 -1.60854152E-01  1.14345644E+00
  1.00000000E+00  1.00000000E+00  1.83473713E-03  1.40373228E-02  6.88426223E-02
  2.32184443E-01  4.67941348E-01  3.62311985E-01 -1.19332420E-01 -1.60854152E-01
  1.14345644E+00  1.00000000E+00  1.00000000E+00  1.83473713E-03  1.40373228E-02
  6.88426223E-02  2.32184443E-01  4.67941348E-01  3.62311985E-01 -1.19332420E-01
 -1.60854152E-01  1.14345644E+00  1.00000000E+00  1.00000000E+00  1.83473713E-03
  1.40373228E-02  6.88426223E-02  2.32184443E-01  4.67941348E-01  3.62311985E-01
 -1.19332420E-01 -1.60854152E-01  1.14345644E+00  1.00000000E+00  1.00000000E+00
  1.83473713E-03  1.40373228E-02  6.88426223E-02  2.32184443E-01  4.67941348E-01
  3.62311985E-01 -1.19332420E-01 -1.60854152E-01  1.14345644E+00  1.00000000E+00
  1.00000000E+00  1.83473713E-03  1.40373228E-02  6.88426223E-02  2.32184443E-01
  4.67941348E-01  3.62311985E-01 -1.19332420E-01 -1.60854152E-01  1.14345644E+00
  1.00000000E+00  1.00000000E+00  1.83473713E-03  1.40373228E-02  6.88426223E-02
  2.32184443E-01  4.67941348E-01  3.62311985E-01 -1.19332420E-01 -1.60854152E-01
  1.14345644E+00  1.00000000E+00  1.00000000E+00  1.83473713E-03  1.40373228E-02
  6.88426223E-02  2.32184443E-01  4.67941348E-01  3.62311985E-01 -1.19332420E-01
 -1.60854152E-01  1.14345644E+00  1.00000000E+00  1.00000000E+00  3.34946043E-02
  2.34726953E-01  8.13757326E-01  1.00000000E+00  3.34946043E-02  2.34726953E-01
  8.13757326E-01  1.00000000E+00  3.34946043E-02  2.34726953E-01  8.13757326E-01
  1.00000000E+00  3.34946043E-02  2.34726953E-01  8.13757326E-01  1.00000000E+00
  3.34946043E-02  2.34726953E-01  8.13757326E-01  1.00000000E+00  3.34946043E-02
  2.34726953E-01  8.13757326E-01  1.00000000E+00  3.34946043E-02  2.34726953E-01
  8.13757326E-01  1.00000000E+00  3.34946043E-02  2.34726953E-01  8.13757326E-01
  1.00000000E+00  3.34946043E-02  2.34726953E-01  8.13757326E-01  1.00000000E+00
  3.34946043E-02  2.34726953E-01  8.13757326E-01  1.00000000E+00  3.34946043E-02
  2.34726953E-01  8.13757326E-01  1.00000000E+00
P(S=P) Contraction coefficients            R   N=         198
  0.00000000E+00  0.00000000E+00  0.00000000E+00  0.00000000E+00  0.00000000E+00
  0.00000000E+00  7.08742682E-02  3.39752839E-01  7.27158577E-01  1.00000000E+00
  0.00000000E+00  0.00000000E+00  0.00000000E+00  0.00000000E+00  0.00000000E+00
  0.00000000E+00  0.00000000E+00  6.75797439E-02  3.23907296E-01  7.40895140E-01
  1.00000000E+00  0.00000000E+00  0.00000000E+00  0.00000000E+00  0.00000000E+00
  0.00000000E+00  0.00000000E+00  0.00000000E+00  6.89990666E-02  3.16423961E-01
  7.44308291E-01  1.00000000E+00  0.00000000E+00  0.00000000E+00  0.00000000E+00
  0.00000000E+00  0.00000000E+00  0.00000000E+00  0.00000000E+00  6.89990666E-02
  3.16423961E-01  7.44308291E-01  1.00000000E+00  0.00000000E+00  0.00000000E+00
  0.00000000E+00  0.00000000E+00  0.00000000E+00  0.00000000E+00  0.00000000E+00
  6.89990666E-02  3.16423961E-01  7.44308291E-01  1.00000000E+00  0.00000000E+00
  0.00000000E+00  0.00000000E+00  0.00000000E+00  0.00000000E+00  0.00000000E+00
  0.00000000E+00  6.89990666E-02  3.16423961E-01  7.44308291E-01  1.00000000E+00
  0.00000000E+00  0.00000000E+00  0.00000000E+00  0.00000000E+00  0.00000000E+00
  0.00000000E+00  0.00000000E+00  6.89990666E-02  3.16423961E-01  7.44308291E-01
  1.00000000E+00  0.00000000E+00  0.00000000E+00  0.00000000E+00  0.00000000E+00
  0.00000000E+00  0.00000000E+00  0.00000000E+00  6.89990666E-02  3.16423961E-01
  7.44308291E-01  1.00000000E+00  0.00000000E+00  0.00000000E+00  0.00000000E+00
  0.00000000E+00  0.00000000E+00  0.00000000E+00  0.00000000E+00  6.89990666E-02
  3.16423961E-01  7.44308291E-01  1.00000000E+00  0.00000000E+00  0.00000000E+00
  0.00000000E+00  0.00000000E+00  0.00000000E+00  0.00000000E+00  0.00000000E+00
  6.89990666E-02  3.16423961E-01  7.44308291E-01  1.00000000E+00  0.00000000E+00
  0.00000000E+00  0.00000000E+00  0.00000000E+00  0.00000000E+00  0.00000000E+00
  0.00000000E+00  6.89990666E-02  3.16423961E-01  7.44308291E-01  1.00000000E+00
  0.00000000E+00  0.00000000E+00  0.00000000E+00  0.00000000E+00  0.00000000E+00
  0.00000000E+00  0.00000000E+00  6.89990666E-02  3.16423961E-01  7.44308291E-01
  1.00000000E+00  0.00000000E+00  0.00000000E+00  0.00000000E+00  0.00000000E+00
  0.00000000E+00  0.00000000E+00  0.00000000E+00  6.89990666E-02  3.16423961E-01
  7.44308291E-01  1.00000000E+00  0.00000000E+00  0.00000000E+00  0.00000000E+00
  0.00000000E+00  0.00000000E+00  0.00000000E+00  0.00000000E+00  6.89990666E-02
  3.16423961E-01  7.44308291E-01  1.00000000E+00  0.00000000E+00  0.00000000E+00
  0.00000000E+00  0.00000000E+00  0.00000000E+00  0.00000000E+00  0.00000000E+00
  0.00000000E+00  0.00000000E+00  0.00000000E+00  0.00000000E+00  0.00000000E+00
  0.00000000E+00  0.00000000E+00  0.00000000E+00  0.00000000E+00  0.00000000E+00
  0.00000000E+00  0.00000000E+00  0.00000000E+00  0.00000000E+00  0.00000000E+00
  0.00000000E+00  0.00000000E+00  0.00000000E+00  0.00000000E+00  0.00000000E+00
  0.00000000E+00  0.00000000E+00  0.00000000E+00  0.00000000E+00  0.00000000E+00
  0.00000000E+00  0.00000000E+00  0.00000000E+00  0.00000000E+00  0.00000000E+00
  0.00000000E+00  0.00000000E+00  0.00000000E+00  0.00000000E+00  0.00000000E+00
  0.00000000E+00  0.00000000E+00  0.00000000E+00
Coordinates of each shell                  R   N=         234
 -9.01717238E-01  2.48777827E+00  5.68503983E-01 -9.01717238E-01  2.48777827E+00
  5.68503983E-01 -9.01717238E-01  2.48777827E+00  5.68503983E-01 -9.01717238E-01
  2.48777827E+00  5.68503983E-01  1.50899231E+00 -1.04607496E+00 -5.23987575E-01
  1.50899231E+00 -1.04607496E+00 -5.23987575E-01  1.50899231E+00 -1.04607496E+00
 -5.23987575E-01  1.50899231E+00 -1.04607496E+00 -5.23987575E-01  6.08494572E+00
 -8.00459921E-01 -2.99790288E-01  6.08494572E+00 -8.00459921E-01 -2.99790288E-01
  6.08494572E+00 -8.00459921E-01 -2.99790288E-01  6.08494572E+00 -8.00459921E-01
 -2.99790288E-01  1.40320497E+00  1.32445286E+00  2.86675556E-01  1.40320497E+00
  1.32445286E+00  2.86675556E-01  1.40320497E+00  1.32445286E+00  2.86675556E-01
  1.40320497E+00  1.32445286E+00  2.86675556E-01 -3.06296093E+00  1.00208011E+00
  2.66996254E-01 -3.06296093E+00  1.00208011E+00  2.66996254E-01 -3.06296093E+00
  1.00208011E+00  2.66996254E-01 -3.06296093E+00  1.00208011E+00  2.66996254E-01
  5.88463890E+00  1.70649356E+00  5.50659086E-01  5.88463890E+00  1.70649356E+00
  5.50659086E-01  5.88463890E+00  1.70649356E+00  5.50659086E-01  5.88463890E+00
  1.70649356E+00  5.50659086E-01  3.52524223E+00  2.80324661E+00  8.57857294E-01
  3.52524223E+00  2.80324661E+00  8.57857294E-01  3.52524223E+00  2.80324661E+00
  8.57857294E-01  3.52524223E+00  2.80324661E+00  8.57857294E-01  3.82938714E+00
 -2.06665930E+00 -7.98760075E-01  3.82938714E+00 -2.06665930E+00 -7.98760075E-01
  3.82938714E+00 -2.06665930E+00 -7.98760075E-01  3.82938714E+00 -2.06665930E+00
 -7.98760075E-01  8.60871523E+00 -2.05851911E+00 -6.53844814E-01  8.60871523E+00
 -2.05851911E+00 -6.53844814E-01  8.60871523E+00 -2.05851911E+00 -6.53844814E-01
  8.60871523E+00 -2.05851911E+00 -6.53844814E-01 -3.62765427E+00 -9.22322838E-01
  1.97663842E+00 -3.62765427E+00 -9.22322838E-01  1.97663842E+00 -3.62765427E+00
 -9.22322838E-01  1.97663842E+00 -3.62765427E+00 -9.22322838E-01  1.97663842E+00
 -4.71879276E+00  1.64940646E+00 -1.67112594E+00 -4.71879276E+00  1.64940646E+00
 -1.67112594E+00 -4.71879276E+00  1.64940646E+00 -1.67112594E+00 -4.71879276E+00
  1.64940646E+00 -1.67112594E+00 -5.90078801E+00 -2.22902174E+00  1.71404483E+00
 -5.90078801E+00 -2.22902174E+00  1.71404483E+00 -5.90078801E+00 -2.22902174E+00
  1.71404483E+00 -5.90078801E+00 -2.22902174E+00  1.71404483E+00 -6.99525630E+00
  3.35076990E-01 -1.90618418E+00 -6.99525630E+00  3.35076990E-01 -1.90618418E+00
 -6.99525630E+00  3.35076990E-01 -1.90618418E+00 -6.99525630E+00  3.35076990E-01
 -1.90618418E+00 -7.58798195E+00 -1.60720801E+00 -2.21882337E-01 -7.58798195E+00
 -1.60720801E+00 -2.21882337E-01 -7.58798195E+00 -1.60720801E+00 -2.21882337E-01
 -7.58798195E+00 -1.60720801E+00 -2.21882337E-01  7.58158677E+00  2.79103544E+00
  9.73717990E-01  7.58158677E+00  2.79103544E+00  9.73717990E-01  3.28343270E+00
  4.73158534E+00  1.51424930E+00  3.28343270E+00  4.73158534E+00  1.51424930E+00
  3.85742954E+00 -4.01496502E+00 -1.46660065E+00  3.85742954E+00 -4.01496502E+00
 -1.46660065E+00  9.66730708E+00 -2.12397432E+00  1.12196403E+00  9.66730708E+00
 -2.12397432E+00  1.12196403E+00  8.37497350E+00 -3.99783653E+00 -1.32725574E+00
  8.37497350E+00 -3.99783653E+00 -1.32725574E+00  9.76400546E+00 -1.03985566E+00
 -2.03432832E+00  9.76400546E+00 -1.03985566E+00 -2.03432832E+00 -2.30226715E+00
 -1.37778522E+00  3.47581801E+00 -2.30226715E+00 -1.37778522E+00  3.47581801E+00
 -4.21190601E+00  3.16934990E+00 -2.95464667E+00 -4.21190601E+00  3.16934990E+00
 -2.95464667E+00 -6.35893299E+00 -3.73671860E+00  3.03276341E+00 -6.35893299E+00
 -3.73671860E+00  3.03276341E+00 -8.30204211E+00  8.30388168E-01 -3.41235029E+00
 -8.30204211E+00  8.30388168E-01 -3.41235029E+00 -9.35899494E+00 -2.63031896E+00
 -4.11152754E-01 -9.35899494E+00 -2.63031896E+00 -4.11152754E-01
Constraint Structure                       R   N=          75
 -9.01717238E-01  2.48777827E+00  5.68503983E-01  1.50899231E+00 -1.04607496E+00
 -5.23987575E-01  6.08494572E+00 -8.00459921E-01 -2.99790288E-01  1.40320497E+00
  1.32445286E+00  2.86675556E-01 -3.06296093E+00  1.00208011E+00  2.66996254E-01
  5.88463890E+00  1.70649356E+00  5.50659086E-01  3.52524223E+00  2.80324661E+00
  8.57857294E-01  3.82938714E+00 -2.06665930E+00 -7.98760075E-01  8.60871523E+00
 -2.05851911E+00 -6.53844814E-01 -3.62765427E+00 -9.22322838E-01  1.97663842E+00
 -4.71879276E+00  1.64940646E+00 -1.67112594E+00 -5.90078801E+00 -2.22902174E+00
  1.71404483E+00 -6.99525630E+00  3.35076990E-01 -1.90618418E+00 -7.58798195E+00
 -1.60720801E+00 -2.21882337E-01  7.58158677E+00  2.79103544E+00  9.73717990E-01
  3.28343270E+00  4.73158534E+00  1.51424930E+00  3.85742954E+00 -4.01496502E+00
 -1.46660065E+00  9.66730708E+00 -2.12397432E+00  1.12196403E+00  8.37497350E+00
 -3.99783653E+00 -1.32725574E+00  9.76400546E+00 -1.03985566E+00 -2.03432832E+00
 -2.30226715E+00 -1.37778522E+00  3.47581801E+00 -4.21190601E+00  3.16934990E+00
 -2.95464667E+00 -6.35893299E+00 -3.73671860E+00  3.03276341E+00 -8.30204211E+00
  8.30388168E-01 -3.41235029E+00 -9.35899494E+00 -2.63031896E+00 -4.11152754E-01
Num ILSW                                   I              100
ILSW                                       I   N=         100
           0           1           0           0           2           0
           0           0           0           0           0          -1
           0           0           0           0           0           0
           0           0           0           0           1           0
           1           0           0           0           0           0
           0           0      100000           0          -1           0
           0           0           0           0           0           0
           0           0           0           1           1           0
           0           0           1           0           0           0
           0           0           4          40           0           0
           0           0           0           0           0           0
           0           0           0           0           0           0
           0           0           0           0           0           0
           0           0           0           0           0           0
           0           0           0           0           0           0
           0           0           0           0           0           0
           0           0           0           0
Num RLSW                                   I               40
RLSW                                       R   N=          40
  1.00000000E+00  1.00000000E+00  1.00000000E+00  1.00000000E+00  1.00000000E+00
  0.00000000E+00  0.00000000E+00  1.00000000E+00  0.00000000E+00  0.00000000E+00
  0.00000000E+00  0.00000000E+00  1.00000000E+00  0.00000000E+00  0.00000000E+00
  0.00000000E+00  0.00000000E+00  1.00000000E+00  0.00000000E+00  0.00000000E+00
  0.00000000E+00  0.00000000E+00  1.00000000E+00  0.00000000E+00  0.00000000E+00
  0.00000000E+00  0.00000000E+00  1.00000000E+00  0.00000000E+00  0.00000000E+00
  0.00000000E+00  0.00000000E+00  0.00000000E+00  0.00000000E+00  0.00000000E+00
  0.00000000E+00  0.00000000E+00  0.00000000E+00  1.00000000E+00  1.00000000E+00
MxBond                                     I                4
NBond                                      I   N=          25
           2           2           3           3           3           3
           3           3           4           3           3           3
           3           3           1           1           1           1
           1           1           1           1           1           1
           1
IBond                                      I   N=         100
           4           5           0           0           4           8
           0           0           6           8           9           0
           1           2           7           0           1          10
          11           0           3           7          15           0
           4           6          16           0           2           3
          17           0           3          18          19          20
           5          12          21           0           5          13
          22           0          10          14          23           0
          11          14          24           0          12          13
          25           0           6           0           0           0
           7           0           0           0           8           0
           0           0           9           0           0           0
           9           0           0           0           9           0
           0           0          10           0           0           0
          11           0           0           0          12           0
           0           0          13           0           0           0
          14           0           0           0
RBond                                      R   N=         100
  1.50000000E+00  1.50000000E+00  0.00000000E+00  0.00000000E+00  1.50000000E+00