118923                                                                  
Freq      RMP2-FC                                                     6-31G(d)            
Number of atoms                            I               29
Info1-9                                    I   N=           9
          41          39        1002           0           0         100
           6           2           1
Charge                                     I                0
Multiplicity                               I                1
Number of electrons                        I              112
Number of alpha electrons                  I               56
Number of beta electrons                   I               56
Number of basis functions                  I              266
Number of independent functions            I              266
Number of point charges in /Mol/           I                0
Number of translation vectors              I                0
Atomic numbers                             I   N=          29
           8           7           6           6           6           6
           6           6           6           6           6           6
           6           6           6           6           1           1
           1           1           1           1           1           1
           1           1           1           1           1
Nuclear charges                            R   N=          29
  8.00000000E+00  7.00000000E+00  6.00000000E+00  6.00000000E+00  6.00000000E+00
  6.00000000E+00  6.00000000E+00  6.00000000E+00  6.00000000E+00  6.00000000E+00
  6.00000000E+00  6.00000000E+00  6.00000000E+00  6.00000000E+00  6.00000000E+00
  6.00000000E+00  1.00000000E+00  1.00000000E+00  1.00000000E+00  1.00000000E+00
  1.00000000E+00  1.00000000E+00  1.00000000E+00  1.00000000E+00  1.00000000E+00
  1.00000000E+00  1.00000000E+00  1.00000000E+00  1.00000000E+00
Current cartesian coordinates              R   N=          87
 -1.03899464E+00  4.26264762E+00 -5.66177747E-01 -5.69362420E+00  3.36627091E+00
  1.55876295E+00  1.89127446E+00  9.27613248E-01 -1.64821885E-01 -2.89687304E+00
  1.62351528E-01 -2.69921687E-01 -7.32842188E-01  1.94385185E+00 -3.48894375E-01
  6.95293407E+00 -6.68021870E-01  3.18228627E-01 -5.31540156E+00  9.73211289E-01
  5.60203846E-01  2.49677447E+00 -1.15183850E+00  1.36285771E+00  3.83117138E+00
  2.22735568E+00 -1.41585036E+00  5.00574168E+00 -1.92155676E+00  1.60031371E+00
  6.32198592E+00  1.41336399E+00 -1.19710998E+00 -2.60621257E+00 -2.30277070E+00
 -1.22687190E+00 -7.29676901E+00 -7.98909964E-01  5.81991699E-01 -4.60911954E+00
 -4.00034107E+00 -1.26826844E+00  9.64490485E+00 -1.57277235E+00  5.03450963E-01
 -6.96512211E+00 -3.23072381E+00 -3.50801235E-01  1.01741842E+00 -2.12752885E+00
  2.40191943E+00  3.35184753E+00  3.87454094E+00 -2.54603370E+00  5.46170051E+00
 -3.51553006E+00  2.81930153E+00  7.81126357E+00  2.42392678E+00 -2.19506356E+00
 -7.73994267E-01 -2.86960844E+00 -1.95996026E+00 -9.14396621E+00 -2.07458943E-01
  1.27010665E+00 -4.35225712E+00 -5.88745747E+00 -2.03539899E+00  1.09715751E+01
  4.28756184E-03  3.45833904E-01  9.98726053E+00 -2.52470320E+00  2.30557756E+00
  1.00850601E+01 -2.91532786E+00 -1.01006198E+00 -8.55113296E+00 -4.53862477E+00
 -3.44422014E-01 -4.50622913E+00  4.69370423E+00  8.47718610E-01 -7.52590042E+00
  3.91982739E+00  1.61152400E+00
Force Field                                I                0
Int Atom Types                             I   N=          29
           0           0           0           0           0           0
           0           0           0           0           0           0
           0           0           0           0           0           0
           0           0           0           0           0           0
           0           0           0           0           0
MM charges                                 R   N=          29
  0.00000000E+00  0.00000000E+00  0.00000000E+00  0.00000000E+00  0.00000000E+00
  0.00000000E+00  0.00000000E+00  0.00000000E+00  0.00000000E+00  0.00000000E+00
  0.00000000E+00  0.00000000E+00  0.00000000E+00  0.00000000E+00  0.00000000E+00
  0.00000000E+00  0.00000000E+00  0.00000000E+00  0.00000000E+00  0.00000000E+00
  0.00000000E+00  0.00000000E+00  0.00000000E+00  0.00000000E+00  0.00000000E+00
  0.00000000E+00  0.00000000E+00  0.00000000E+00  0.00000000E+00
Integer atomic weights                     I   N=          29
          16          14          12          12          12          12
          12          12          12          12          12          12
          12          12          12          12           1           1
           1           1           1           1           1           1
           1           1           1           1           1
Real atomic weights                        R   N=          29
  1.59949146E+01  1.40030740E+01  1.20000000E+01  1.20000000E+01  1.20000000E+01
  1.20000000E+01  1.20000000E+01  1.20000000E+01  1.20000000E+01  1.20000000E+01
  1.20000000E+01  1.20000000E+01  1.20000000E+01  1.20000000E+01  1.20000000E+01
  1.20000000E+01  1.00782504E+00  1.00782504E+00  1.00782504E+00  1.00782504E+00
  1.00782504E+00  1.00782504E+00  1.00782504E+00  1.00782504E+00  1.00782504E+00
  1.00782504E+00  1.00782504E+00  1.00782504E+00  1.00782504E+00
Atom fragment info                         I   N=          29
           0           0           0           0           0           0
           0           0           0           0           0           0
           0           0           0           0           0           0
           0           0           0           0           0           0
           0           0           0           0           0
Atom residue num                           I   N=          29
           0           0           0           0           0           0
           0           0           0           0           0           0
           0           0           0           0           0           0
           0           0           0           0           0           0
           0           0           0           0           0
Nuclear spins                              I   N=          29
           0           2           0           0           0           0
           0           0           0           0           0           0
           0           0           0           0           1           1
           1           1           1           1           1           1
           1           1           1           1           1
Nuclear ZEff                               R   N=          29
 -5.60000000E+00 -4.55000000E+00 -3.60000000E+00 -3.60000000E+00 -3.60000000E+00
 -3.60000000E+00 -3.60000000E+00 -3.60000000E+00 -3.60000000E+00 -3.60000000E+00
 -3.60000000E+00 -3.60000000E+00 -3.60000000E+00 -3.60000000E+00 -3.60000000E+00
 -3.60000000E+00 -1.00000000E+00 -1.00000000E+00 -1.00000000E+00 -1.00000000E+00
 -1.00000000E+00 -1.00000000E+00 -1.00000000E+00 -1.00000000E+00 -1.00000000E+00
 -1.00000000E+00 -1.00000000E+00 -1.00000000E+00 -1.00000000E+00
Nuclear QMom                               R   N=          29
  0.00000000E+00  2.04400000E+00  0.00000000E+00  0.00000000E+00  0.00000000E+00
  0.00000000E+00  0.00000000E+00  0.00000000E+00  0.00000000E+00  0.00000000E+00
  0.00000000E+00  0.00000000E+00  0.00000000E+00  0.00000000E+00  0.00000000E+00
  0.00000000E+00  0.00000000E+00  0.00000000E+00  0.00000000E+00  0.00000000E+00
  0.00000000E+00  0.00000000E+00  0.00000000E+00  0.00000000E+00  0.00000000E+00
  0.00000000E+00  0.00000000E+00  0.00000000E+00  0.00000000E+00
Nuclear GFac                               R   N=          29
  0.00000000E+00  4.03761000E-01  0.00000000E+00  0.00000000E+00  0.00000000E+00
  0.00000000E+00  0.00000000E+00  0.00000000E+00  0.00000000E+00  0.00000000E+00
  0.00000000E+00  0.00000000E+00  0.00000000E+00  0.00000000E+00  0.00000000E+00
  0.00000000E+00  2.79284600E+00  2.79284600E+00  2.79284600E+00  2.79284600E+00
  2.79284600E+00  2.79284600E+00  2.79284600E+00  2.79284600E+00  2.79284600E+00
  2.79284600E+00  2.79284600E+00  2.79284600E+00  2.79284600E+00
MicOpt                                     I   N=          29
          -1          -1          -1          -1          -1          -1
          -1          -1          -1          -1          -1          -1
          -1          -1          -1          -1          -1          -1
          -1          -1          -1          -1          -1          -1
          -1          -1          -1          -1          -1
Number of contracted shells                I               90
Number of primitive shells                 I              228
Pure/Cartesian d shells                    I                1
Pure/Cartesian f shells                    I                0
Highest angular momentum                   I                2
Largest degree of contraction              I                6
Shell types                                I   N=          90
           0          -1          -1           2           0          -1
          -1           2           0          -1          -1           2
           0          -1          -1           2           0          -1
          -1           2           0          -1          -1           2
           0          -1          -1           2           0          -1
          -1           2           0          -1          -1           2
           0          -1          -1           2           0          -1
          -1           2           0          -1          -1           2
           0          -1          -1           2           0          -1
          -1           2           0          -1          -1           2
           0          -1          -1           2           0           0
           0           0           0           0           0           0
           0           0           0           0           0           0
           0           0           0           0           0           0
           0           0           0           0           0           0
Number of primitives per shell             I   N=          90
           6           3           1           1           6           3
           1           1           6           3           1           1
           6           3           1           1           6           3
           1           1           6           3           1           1
           6           3           1           1           6           3
           1           1           6           3           1           1
           6           3           1           1           6           3
           1           1           6           3           1           1
           6           3           1           1           6           3
           1           1           6           3           1           1
           6           3           1           1           3           1
           3           1           3           1           3           1
           3           1           3           1           3           1
           3           1           3           1           3           1
           3           1           3           1           3           1
Shell to atom map                          I   N=          90
           1           1           1           1           2           2
           2           2           3           3           3           3
           4           4           4           4           5           5
           5           5           6           6           6           6
           7           7           7           7           8           8
           8           8           9           9           9           9
          10          10          10          10          11          11
          11          11          12          12          12          12
          13          13          13          13          14          14
          14          14          15          15          15          15
          16          16          16          16          17          17
          18          18          19          19          20          20
          21          21          22          22          23          23
          24          24          25          25          26          26
          27          27          28          28          29          29
Primitive exponents                        R   N=         228
  5.48467166E+03  8.25234946E+02  1.88046958E+02  5.29645000E+01  1.68975704E+01
  5.79963534E+00  1.55396162E+01  3.59993359E+00  1.01376175E+00  2.70005823E-01
  8.00000000E-01  4.17351146E+03  6.27457911E+02  1.42902093E+02  4.02343293E+01
  1.28202129E+01  4.39043701E+00  1.16263619E+01  2.71627981E+00  7.72218397E-01
  2.12031498E-01  8.00000000E-01  3.04752488E+03  4.57369518E+02  1.03948685E+02
  2.92101553E+01  9.28666296E+00  3.16392696E+00  7.86827235E+00  1.88128854E+00
  5.44249258E-01  1.68714478E-01  8.00000000E-01  3.04752488E+03  4.57369518E+02
  1.03948685E+02  2.92101553E+01  9.28666296E+00  3.16392696E+00  7.86827235E+00
  1.88128854E+00  5.44249258E-01  1.68714478E-01  8.00000000E-01  3.04752488E+03
  4.57369518E+02  1.03948685E+02  2.92101553E+01  9.28666296E+00  3.16392696E+00
  7.86827235E+00  1.88128854E+00  5.44249258E-01  1.68714478E-01  8.00000000E-01
  3.04752488E+03  4.57369518E+02  1.03948685E+02  2.92101553E+01  9.28666296E+00
  3.16392696E+00  7.86827235E+00  1.88128854E+00  5.44249258E-01  1.68714478E-01
  8.00000000E-01  3.04752488E+03  4.57369518E+02  1.03948685E+02  2.92101553E+01
  9.28666296E+00  3.16392696E+00  7.86827235E+00  1.88128854E+00  5.44249258E-01
  1.68714478E-01  8.00000000E-01  3.04752488E+03  4.57369518E+02  1.03948685E+02
  2.92101553E+01  9.28666296E+00  3.16392696E+00  7.86827235E+00  1.88128854E+00
  5.44249258E-01  1.68714478E-01  8.00000000E-01  3.04752488E+03  4.57369518E+02
  1.03948685E+02  2.92101553E+01  9.28666296E+00  3.16392696E+00  7.86827235E+00
  1.88128854E+00  5.44249258E-01  1.68714478E-01  8.00000000E-01  3.04752488E+03
  4.57369518E+02  1.03948685E+02  2.92101553E+01  9.28666296E+00  3.16392696E+00
  7.86827235E+00  1.88128854E+00  5.44249258E-01  1.68714478E-01  8.00000000E-01
  3.04752488E+03  4.57369518E+02  1.03948685E+02  2.92101553E+01  9.28666296E+00
  3.16392696E+00  7.86827235E+00  1.88128854E+00  5.44249258E-01  1.68714478E-01
  8.00000000E-01  3.04752488E+03  4.57369518E+02  1.03948685E+02  2.92101553E+01
  9.28666296E+00  3.16392696E+00  7.86827235E+00  1.88128854E+00  5.44249258E-01
  1.68714478E-01  8.00000000E-01  3.04752488E+03  4.57369518E+02  1.03948685E+02
  2.92101553E+01  9.28666296E+00  3.16392696E+00  7.86827235E+00  1.88128854E+00
  5.44249258E-01  1.68714478E-01  8.00000000E-01  3.04752488E+03  4.57369518E+02
  1.03948685E+02  2.92101553E+01  9.28666296E+00  3.16392696E+00  7.86827235E+00
  1.88128854E+00  5.44249258E-01  1.68714478E-01  8.00000000E-01  3.04752488E+03
  4.57369518E+02  1.03948685E+02  2.92101553E+01  9.28666296E+00  3.16392696E+00
  7.86827235E+00  1.88128854E+00  5.44249258E-01  1.68714478E-01  8.00000000E-01
  3.04752488E+03  4.57369518E+02  1.03948685E+02  2.92101553E+01  9.28666296E+00
  3.16392696E+00  7.86827235E+00  1.88128854E+00  5.44249258E-01  1.68714478E-01
  8.00000000E-01  1.87311370E+01  2.82539436E+00  6.40121692E-01  1.61277759E-01
  1.87311370E+01  2.82539436E+00  6.40121692E-01  1.61277759E-01  1.87311370E+01
  2.82539436E+00  6.40121692E-01  1.61277759E-01  1.87311370E+01  2.82539436E+00
  6.40121692E-01  1.61277759E-01  1.87311370E+01  2.82539436E+00  6.40121692E-01
  1.61277759E-01  1.87311370E+01  2.82539436E+00  6.40121692E-01  1.61277759E-01
  1.87311370E+01  2.82539436E+00  6.40121692E-01  1.61277759E-01  1.87311370E+01
  2.82539436E+00  6.40121692E-01  1.61277759E-01  1.87311370E+01  2.82539436E+00
  6.40121692E-01  1.61277759E-01  1.87311370E+01  2.82539436E+00  6.40121692E-01
  1.61277759E-01  1.87311370E+01  2.82539436E+00  6.40121692E-01  1.61277759E-01
  1.87311370E+01  2.82539436E+00  6.40121692E-01  1.61277759E-01  1.87311370E+01
  2.82539436E+00  6.40121692E-01  1.61277759E-01
Contraction coefficients                   R   N=         228
  1.83107443E-03  1.39501722E-02  6.84450781E-02  2.32714336E-01  4.70192898E-01
  3.58520853E-01 -1.10777550E-01 -1.48026263E-01  1.13076702E+00  1.00000000E+00
  1.00000000E+00  1.83477216E-03  1.39946270E-02  6.85865518E-02  2.32240873E-01
  4.69069948E-01  3.60455199E-01 -1.14961182E-01 -1.69117479E-01  1.14585195E+00
  1.00000000E+00  1.00000000E+00  1.83473713E-03  1.40373228E-02  6.88426223E-02
  2.32184443E-01  4.67941348E-01  3.62311985E-01 -1.19332420E-01 -1.60854152E-01
  1.14345644E+00  1.00000000E+00  1.00000000E+00  1.83473713E-03  1.40373228E-02
  6.88426223E-02  2.32184443E-01  4.67941348E-01  3.62311985E-01 -1.19332420E-01
 -1.60854152E-01  1.14345644E+00  1.00000000E+00  1.00000000E+00  1.83473713E-03
  1.40373228E-02  6.88426223E-02  2.32184443E-01  4.67941348E-01  3.62311985E-01
 -1.19332420E-01 -1.60854152E-01  1.14345644E+00  1.00000000E+00  1.00000000E+00
  1.83473713E-03  1.40373228E-02  6.88426223E-02  2.32184443E-01  4.67941348E-01
  3.62311985E-01 -1.19332420E-01 -1.60854152E-01  1.14345644E+00  1.00000000E+00
  1.00000000E+00  1.83473713E-03  1.40373228E-02  6.88426223E-02  2.32184443E-01
  4.67941348E-01  3.62311985E-01 -1.19332420E-01 -1.60854152E-01  1.14345644E+00
  1.00000000E+00  1.00000000E+00  1.83473713E-03  1.40373228E-02  6.88426223E-02
  2.32184443E-01  4.67941348E-01  3.62311985E-01 -1.19332420E-01 -1.60854152E-01
  1.14345644E+00  1.00000000E+00  1.00000000E+00  1.83473713E-03  1.40373228E-02
  6.88426223E-02  2.32184443E-01  4.67941348E-01  3.62311985E-01 -1.19332420E-01
 -1.60854152E-01  1.14345644E+00  1.00000000E+00  1.00000000E+00  1.83473713E-03
  1.40373228E-02  6.88426223E-02  2.32184443E-01  4.67941348E-01  3.62311985E-01
 -1.19332420E-01 -1.60854152E-01  1.14345644E+00  1.00000000E+00  1.00000000E+00
  1.83473713E-03  1.40373228E-02  6.88426223E-02  2.32184443E-01  4.67941348E-01
  3.62311985E-01 -1.19332420E-01 -1.60854152E-01  1.14345644E+00  1.00000000E+00
  1.00000000E+00  1.83473713E-03  1.40373228E-02  6.88426223E-02  2.32184443E-01
  4.67941348E-01  3.62311985E-01 -1.19332420E-01 -1.60854152E-01  1.14345644E+00
  1.00000000E+00  1.00000000E+00  1.83473713E-03  1.40373228E-02  6.88426223E-02
  2.32184443E-01  4.67941348E-01  3.62311985E-01 -1.19332420E-01 -1.60854152E-01
  1.14345644E+00  1.00000000E+00  1.00000000E+00  1.83473713E-03  1.40373228E-02
  6.88426223E-02  2.32184443E-01  4.67941348E-01  3.62311985E-01 -1.19332420E-01
 -1.60854152E-01  1.14345644E+00  1.00000000E+00  1.00000000E+00  1.83473713E-03
  1.40373228E-02  6.88426223E-02  2.32184443E-01  4.67941348E-01  3.62311985E-01
 -1.19332420E-01 -1.60854152E-01  1.14345644E+00  1.00000000E+00  1.00000000E+00
  1.83473713E-03  1.40373228E-02  6.88426223E-02  2.32184443E-01  4.67941348E-01
  3.62311985E-01 -1.19332420E-01 -1.60854152E-01  1.14345644E+00  1.00000000E+00
  1.00000000E+00  3.34946043E-02  2.34726953E-01  8.13757326E-01  1.00000000E+00
  3.34946043E-02  2.34726953E-01  8.13757326E-01  1.00000000E+00  3.34946043E-02
  2.34726953E-01  8.13757326E-01  1.00000000E+00  3.34946043E-02  2.34726953E-01
  8.13757326E-01  1.00000000E+00  3.34946043E-02  2.34726953E-01  8.13757326E-01
  1.00000000E+00  3.34946043E-02  2.34726953E-01  8.13757326E-01  1.00000000E+00
  3.34946043E-02  2.34726953E-01  8.13757326E-01  1.00000000E+00  3.34946043E-02
  2.34726953E-01  8.13757326E-01  1.00000000E+00  3.34946043E-02  2.34726953E-01
  8.13757326E-01  1.00000000E+00  3.34946043E-02  2.34726953E-01  8.13757326E-01
  1.00000000E+00  3.34946043E-02  2.34726953E-01  8.13757326E-01  1.00000000E+00
  3.34946043E-02  2.34726953E-01  8.13757326E-01  1.00000000E+00  3.34946043E-02
  2.34726953E-01  8.13757326E-01  1.00000000E+00
P(S=P) Contraction coefficients            R   N=         228
  0.00000000E+00  0.00000000E+00  0.00000000E+00  0.00000000E+00  0.00000000E+00
  0.00000000E+00  7.08742682E-02  3.39752839E-01  7.27158577E-01  1.00000000E+00
  0.00000000E+00  0.00000000E+00  0.00000000E+00  0.00000000E+00  0.00000000E+00
  0.00000000E+00  0.00000000E+00  6.75797439E-02  3.23907296E-01  7.40895140E-01
  1.00000000E+00  0.00000000E+00  0.00000000E+00  0.00000000E+00  0.00000000E+00
  0.00000000E+00  0.00000000E+00  0.00000000E+00  6.89990666E-02  3.16423961E-01
  7.44308291E-01  1.00000000E+00  0.00000000E+00  0.00000000E+00  0.00000000E+00
  0.00000000E+00  0.00000000E+00  0.00000000E+00  0.00000000E+00  6.89990666E-02
  3.16423961E-01  7.44308291E-01  1.00000000E+00  0.00000000E+00  0.00000000E+00
  0.00000000E+00  0.00000000E+00  0.00000000E+00  0.00000000E+00  0.00000000E+00
  6.89990666E-02  3.16423961E-01  7.44308291E-01  1.00000000E+00  0.00000000E+00
  0.00000000E+00  0.00000000E+00  0.00000000E+00  0.00000000E+00  0.00000000E+00
  0.00000000E+00  6.89990666E-02  3.16423961E-01  7.44308291E-01  1.00000000E+00
  0.00000000E+00  0.00000000E+00  0.00000000E+00  0.00000000E+00  0.00000000E+00
  0.00000000E+00  0.00000000E+00  6.89990666E-02  3.16423961E-01  7.44308291E-01
  1.00000000E+00  0.00000000E+00  0.00000000E+00  0.00000000E+00  0.00000000E+00
  0.00000000E+00  0.00000000E+00  0.00000000E+00  6.89990666E-02  3.16423961E-01
  7.44308291E-01  1.00000000E+00  0.00000000E+00  0.00000000E+00  0.00000000E+00
  0.00000000E+00  0.00000000E+00  0.00000000E+00  0.00000000E+00  6.89990666E-02
  3.16423961E-01  7.44308291E-01  1.00000000E+00  0.00000000E+00  0.00000000E+00
  0.00000000E+00  0.00000000E+00  0.00000000E+00  0.00000000E+00  0.00000000E+00
  6.89990666E-02  3.16423961E-01  7.44308291E-01  1.00000000E+00  0.00000000E+00
  0.00000000E+00  0.00000000E+00  0.00000000E+00  0.00000000E+00  0.00000000E+00
  0.00000000E+00  6.89990666E-02  3.16423961E-01  7.44308291E-01  1.00000000E+00
  0.00000000E+00  0.00000000E+00  0.00000000E+00  0.00000000E+00  0.00000000E+00
  0.00000000E+00  0.00000000E+00  6.89990666E-02  3.16423961E-01  7.44308291E-01
  1.00000000E+00  0.00000000E+00  0.00000000E+00  0.00000000E+00  0.00000000E+00
  0.00000000E+00  0.00000000E+00  0.00000000E+00  6.89990666E-02  3.16423961E-01
  7.44308291E-01  1.00000000E+00  0.00000000E+00  0.00000000E+00  0.00000000E+00
  0.00000000E+00  0.00000000E+00  0.00000000E+00  0.00000000E+00  6.89990666E-02
  3.16423961E-01  7.44308291E-01  1.00000000E+00  0.00000000E+00  0.00000000E+00
  0.00000000E+00  0.00000000E+00  0.00000000E+00  0.00000000E+00  0.00000000E+00
  6.89990666E-02  3.16423961E-01  7.44308291E-01  1.00000000E+00  0.00000000E+00
  0.00000000E+00  0.00000000E+00  0.00000000E+00  0.00000000E+00  0.00000000E+00
  0.00000000E+00  6.89990666E-02  3.16423961E-01  7.44308291E-01  1.00000000E+00
  0.00000000E+00  0.00000000E+00  0.00000000E+00  0.00000000E+00  0.00000000E+00
  0.00000000E+00  0.00000000E+00  0.00000000E+00  0.00000000E+00  0.00000000E+00
  0.00000000E+00  0.00000000E+00  0.00000000E+00  0.00000000E+00  0.00000000E+00
  0.00000000E+00  0.00000000E+00  0.00000000E+00  0.00000000E+00  0.00000000E+00
  0.00000000E+00  0.00000000E+00  0.00000000E+00  0.00000000E+00  0.00000000E+00
  0.00000000E+00  0.00000000E+00  0.00000000E+00  0.00000000E+00  0.00000000E+00
  0.00000000E+00  0.00000000E+00  0.00000000E+00  0.00000000E+00  0.00000000E+00
  0.00000000E+00  0.00000000E+00  0.00000000E+00  0.00000000E+00  0.00000000E+00
  0.00000000E+00  0.00000000E+00  0.00000000E+00  0.00000000E+00  0.00000000E+00
  0.00000000E+00  0.00000000E+00  0.00000000E+00  0.00000000E+00  0.00000000E+00
  0.00000000E+00  0.00000000E+00  0.00000000E+00
Coordinates of each shell                  R   N=         270
 -1.03899464E+00  4.26264762E+00 -5.66177747E-01 -1.03899464E+00  4.26264762E+00
 -5.66177747E-01 -1.03899464E+00  4.26264762E+00 -5.66177747E-01 -1.03899464E+00
  4.26264762E+00 -5.66177747E-01 -5.69362420E+00  3.36627091E+00  1.55876295E+00
 -5.69362420E+00  3.36627091E+00  1.55876295E+00 -5.69362420E+00  3.36627091E+00
  1.55876295E+00 -5.69362420E+00  3.36627091E+00  1.55876295E+00  1.89127446E+00
  9.27613248E-01 -1.64821885E-01  1.89127446E+00  9.27613248E-01 -1.64821885E-01
  1.89127446E+00  9.27613248E-01 -1.64821885E-01  1.89127446E+00  9.27613248E-01
 -1.64821885E-01 -2.89687304E+00  1.62351528E-01 -2.69921687E-01 -2.89687304E+00
  1.62351528E-01 -2.69921687E-01 -2.89687304E+00  1.62351528E-01 -2.69921687E-01
 -2.89687304E+00  1.62351528E-01 -2.69921687E-01 -7.32842188E-01  1.94385185E+00
 -3.48894375E-01 -7.32842188E-01  1.94385185E+00 -3.48894375E-01 -7.32842188E-01
  1.94385185E+00 -3.48894375E-01 -7.32842188E-01  1.94385185E+00 -3.48894375E-01
  6.95293407E+00 -6.68021870E-01  3.18228627E-01  6.95293407E+00 -6.68021870E-01
  3.18228627E-01  6.95293407E+00 -6.68021870E-01  3.18228627E-01  6.95293407E+00
 -6.68021870E-01  3.18228627E-01 -5.31540156E+00  9.73211289E-01  5.60203846E-01
 -5.31540156E+00  9.73211289E-01  5.60203846E-01 -5.31540156E+00  9.73211289E-01
  5.60203846E-01 -5.31540156E+00  9.73211289E-01  5.60203846E-01  2.49677447E+00
 -1.15183850E+00  1.36285771E+00  2.49677447E+00 -1.15183850E+00  1.36285771E+00
  2.49677447E+00 -1.15183850E+00  1.36285771E+00  2.49677447E+00 -1.15183850E+00
  1.36285771E+00  3.83117138E+00  2.22735568E+00 -1.41585036E+00  3.83117138E+00
  2.22735568E+00 -1.41585036E+00  3.83117138E+00  2.22735568E+00 -1.41585036E+00
  3.83117138E+00  2.22735568E+00 -1.41585036E+00  5.00574168E+00 -1.92155676E+00
  1.60031371E+00  5.00574168E+00 -1.92155676E+00  1.60031371E+00  5.00574168E+00
 -1.92155676E+00  1.60031371E+00  5.00574168E+00 -1.92155676E+00  1.60031371E+00
  6.32198592E+00  1.41336399E+00 -1.19710998E+00  6.32198592E+00  1.41336399E+00
 -1.19710998E+00  6.32198592E+00  1.41336399E+00 -1.19710998E+00  6.32198592E+00
  1.41336399E+00 -1.19710998E+00 -2.60621257E+00 -2.30277070E+00 -1.22687190E+00
 -2.60621257E+00 -2.30277070E+00 -1.22687190E+00 -2.60621257E+00 -2.30277070E+00
 -1.22687190E+00 -2.60621257E+00 -2.30277070E+00 -1.22687190E+00 -7.29676901E+00
 -7.98909964E-01  5.81991699E-01 -7.29676901E+00 -7.98909964E-01  5.81991699E-01
 -7.29676901E+00 -7.98909964E-01  5.81991699E-01 -7.29676901E+00 -7.98909964E-01
  5.81991699E-01 -4.60911954E+00 -4.00034107E+00 -1.26826844E+00 -4.60911954E+00
 -4.00034107E+00 -1.26826844E+00 -4.60911954E+00 -4.00034107E+00 -1.26826844E+00
 -4.60911954E+00 -4.00034107E+00 -1.26826844E+00  9.64490485E+00 -1.57277235E+00
  5.03450963E-01  9.64490485E+00 -1.57277235E+00  5.03450963E-01  9.64490485E+00
 -1.57277235E+00  5.03450963E-01  9.64490485E+00 -1.57277235E+00  5.03450963E-01
 -6.96512211E+00 -3.23072381E+00 -3.50801235E-01 -6.96512211E+00 -3.23072381E+00
 -3.50801235E-01 -6.96512211E+00 -3.23072381E+00 -3.50801235E-01 -6.96512211E+00
 -3.23072381E+00 -3.50801235E-01  1.01741842E+00 -2.12752885E+00  2.40191943E+00
  1.01741842E+00 -2.12752885E+00  2.40191943E+00  3.35184753E+00  3.87454094E+00
 -2.54603370E+00  3.35184753E+00  3.87454094E+00 -2.54603370E+00  5.46170051E+00
 -3.51553006E+00  2.81930153E+00  5.46170051E+00 -3.51553006E+00  2.81930153E+00
  7.81126357E+00  2.42392678E+00 -2.19506356E+00  7.81126357E+00  2.42392678E+00
 -2.19506356E+00 -7.73994267E-01 -2.86960844E+00 -1.95996026E+00 -7.73994267E-01
 -2.86960844E+00 -1.95996026E+00 -9.14396621E+00 -2.07458943E-01  1.27010665E+00
 -9.14396621E+00 -2.07458943E-01  1.27010665E+00 -4.35225712E+00 -5.88745747E+00
 -2.03539899E+00 -4.35225712E+00 -5.88745747E+00 -2.03539899E+00  1.09715751E+01
  4.28756184E-03  3.45833904E-01  1.09715751E+01  4.28756184E-03  3.45833904E-01
  9.98726053E+00 -2.52470320E+00  2.30557756E+00  9.98726053E+00 -2.52470320E+00
  2.30557756E+00  1.00850601E+01 -2.91532786E+00 -1.01006198E+00  1.00850601E+01
 -2.91532786E+00 -1.01006198E+00 -8.55113296E+00 -4.53862477E+00 -3.44422014E-01
 -8.55113296E+00 -4.53862477E+00 -3.44422014E-01 -4.50622913E+00  4.69370423E+00
  8.47718610E-01 -4.50622913E+00  4.69370423E+00  8.47718610E-01 -7.52590042E+00
  3.91982739E+00  1.61152400E+00 -7.52590042E+00  3.91982739E+00  1.61152400E+00
Constraint Structure                       R   N=          87
 -1.03899464E+00  4.26264762E+00 -5.66177747E-01 -5.69362420E+00  3.36627091E+00
  1.55876295E+00  1.89127446E+00  9.27613248E-01 -1.64821885E-01 -2.89687304E+00
  1.62351528E-01 -2.69921687E-01 -7.32842188E-01  1.94385185E+00 -3.48894375E-01
  6.95293407E+00 -6.68021870E-01  3.18228627E-01 -5.31540156E+00  9.73211289E-01
  5.60203846E-01  2.49677447E+00 -1.15183850E+00  1.36285771E+00  3.83117138E+00
  2.22735568E+00 -1.41585036E+00  5.00574168E+00 -1.92155676E+00  1.60031371E+00
  6.32198592E+00  1.41336399E+00 -1.19710998E+00 -2.60621257E+00 -2.30277070E+00
 -1.22687190E+00 -7.29676901E+00 -7.98909964E-01  5.81991699E-01 -4.60911954E+00
 -4.00034107E+00 -1.26826844E+00  9.64490485E+00 -1.57277235E+00  5.03450963E-01
 -6.96512211E+00 -3.23072381E+00 -3.50801235E-01  1.01741842E+00 -2.12752885E+00
  2.40191943E+00  3.35184753E+00  3.87454094E+00 -2.54603370E+00  5.46170051E+00
 -3.51553006E+00  2.81930153E+00  7.81126357E+00  2.42392678E+00 -2.19506356E+00
 -7.73994267E-01 -2.86960844E+00 -1.95996026E+00 -9.14396621E+00 -2.07458943E-01
  1.27010665E+00 -4.35225712E+00 -5.88745747E+00 -2.03539899E+00  1.09715751E+01
  4.28756184E-03  3.45833904E-01  9.98726053E+00 -2.52470320E+00  2.30557756E+00
  1.00850601E+01 -2.91532786E+00 -1.01006198E+00 -8.55113296E+00 -4.53862477E+00
 -3.44422014E-01 -4.50622913E+00  4.69370423E+00  8.47718610E-01 -7.52590042E+00
  3.91982739E+00  1.61152400E+00
Num ILSW                                   I              100
ILSW                                       I   N=         100
           0           1           0           1           2           0
           0           0           0           0           0          -1
           0           0           0           0           0           0