77487                                                                   
Freq      RMP2-FC                                                     6-31G(d)            
Number of atoms                            I               17
Info1-9                                    I   N=           9
          29          27        1002           0           0         100
           6           2           1
Charge                                     I                0
Multiplicity                               I                1
Number of electrons                        I               70
Number of alpha electrons                  I               35
Number of beta electrons                   I               35
Number of basis functions                  I              151
Number of independent functions            I              151
Number of point charges in /Mol/           I                0
Number of translation vectors              I                0
Atomic numbers                             I   N=          17
           8           8           8           8           6           6
           6           6           6           1           1           1
           1           1           1           1           1
Nuclear charges                            R   N=          17
  8.00000000E+00  8.00000000E+00  8.00000000E+00  8.00000000E+00  6.00000000E+00
  6.00000000E+00  6.00000000E+00  6.00000000E+00  6.00000000E+00  1.00000000E+00
  1.00000000E+00  1.00000000E+00  1.00000000E+00  1.00000000E+00  1.00000000E+00
  1.00000000E+00  1.00000000E+00
Current cartesian coordinates              R   N=          51
  4.53641869E+00 -1.42785959E+00  1.74905860E-04 -6.45055157E+00  1.49878966E+00
  2.11939907E-04  3.04604635E+00  2.59773766E+00 -2.94089904E-04 -4.96891734E+00
 -2.51760404E+00 -2.66467439E-04  1.11596898E-01 -9.36941025E-01  5.07206086E-05
 -2.00974092E+00  9.98106487E-01  7.74352312E-05  2.66828175E+00  3.21375361E-01
 -4.21780081E-05 -4.56555520E+00 -2.48147448E-01 -1.28510892E-05  7.04995808E+00
 -3.73045722E-01  6.15581030E-05 -1.64265203E-02 -2.18361552E+00  1.64550958E+00
 -1.65210904E-02 -2.18364602E+00 -1.64537914E+00 -1.88394521E+00  2.24667098E+00
 -1.64432139E+00 -1.88400919E+00  2.24658111E+00  1.64454841E+00  8.30967387E+00
 -1.99808761E+00  2.10963349E-04  7.34324939E+00  7.84120764E-01  1.68081452E+00
  7.34323372E+00  7.83802383E-01 -1.68091287E+00 -8.02646767E+00  5.27578425E-01
  1.11515031E-04
Force Field                                I                0
Int Atom Types                             I   N=          17
           0           0           0           0           0           0
           0           0           0           0           0           0
           0           0           0           0           0
MM charges                                 R   N=          17
  0.00000000E+00  0.00000000E+00  0.00000000E+00  0.00000000E+00  0.00000000E+00
  0.00000000E+00  0.00000000E+00  0.00000000E+00  0.00000000E+00  0.00000000E+00
  0.00000000E+00  0.00000000E+00  0.00000000E+00  0.00000000E+00  0.00000000E+00
  0.00000000E+00  0.00000000E+00
Integer atomic weights                     I   N=          17
          16          16          16          16          12          12
          12          12          12           1           1           1
           1           1           1           1           1
Real atomic weights                        R   N=          17
  1.59949146E+01  1.59949146E+01  1.59949146E+01  1.59949146E+01  1.20000000E+01
  1.20000000E+01  1.20000000E+01  1.20000000E+01  1.20000000E+01  1.00782504E+00
  1.00782504E+00  1.00782504E+00  1.00782504E+00  1.00782504E+00  1.00782504E+00
  1.00782504E+00  1.00782504E+00
Atom fragment info                         I   N=          17
           0           0           0           0           0           0
           0           0           0           0           0           0
           0           0           0           0           0
Atom residue num                           I   N=          17
           0           0           0           0           0           0
           0           0           0           0           0           0
           0           0           0           0           0
Nuclear spins                              I   N=          17
           0           0           0           0           0           0
           0           0           0           1           1           1
           1           1           1           1           1
Nuclear ZEff                               R   N=          17
 -5.60000000E+00 -5.60000000E+00 -5.60000000E+00 -5.60000000E+00 -3.60000000E+00
 -3.60000000E+00 -3.60000000E+00 -3.60000000E+00 -3.60000000E+00 -1.00000000E+00
 -1.00000000E+00 -1.00000000E+00 -1.00000000E+00 -1.00000000E+00 -1.00000000E+00
 -1.00000000E+00 -1.00000000E+00
Nuclear QMom                               R   N=          17
  0.00000000E+00  0.00000000E+00  0.00000000E+00  0.00000000E+00  0.00000000E+00
  0.00000000E+00  0.00000000E+00  0.00000000E+00  0.00000000E+00  0.00000000E+00
  0.00000000E+00  0.00000000E+00  0.00000000E+00  0.00000000E+00  0.00000000E+00
  0.00000000E+00  0.00000000E+00
Nuclear GFac                               R   N=          17
  0.00000000E+00  0.00000000E+00  0.00000000E+00  0.00000000E+00  0.00000000E+00
  0.00000000E+00  0.00000000E+00  0.00000000E+00  0.00000000E+00  2.79284600E+00
  2.79284600E+00  2.79284600E+00  2.79284600E+00  2.79284600E+00  2.79284600E+00
  2.79284600E+00  2.79284600E+00
MicOpt                                     I   N=          17
          -1          -1          -1          -1          -1          -1
          -1          -1          -1          -1          -1          -1
          -1          -1          -1          -1          -1
Number of contracted shells                I               52
Number of primitive shells                 I              131
Pure/Cartesian d shells                    I                1
Pure/Cartesian f shells                    I                0
Highest angular momentum                   I                2
Largest degree of contraction              I                6
Shell types                                I   N=          52
           0          -1          -1           2           0          -1
          -1           2           0          -1          -1           2
           0          -1          -1           2           0          -1
          -1           2           0          -1          -1           2
           0          -1          -1           2           0          -1
          -1           2           0          -1          -1           2
           0           0           0           0           0           0
           0           0           0           0           0           0
           0           0           0           0
Number of primitives per shell             I   N=          52
           6           3           1           1           6           3
           1           1           6           3           1           1
           6           3           1           1           6           3
           1           1           6           3           1           1
           6           3           1           1           6           3
           1           1           6           3           1           1
           3           1           3           1           3           1
           3           1           3           1           3           1
           3           1           3           1
Shell to atom map                          I   N=          52
           1           1           1           1           2           2
           2           2           3           3           3           3
           4           4           4           4           5           5
           5           5           6           6           6           6
           7           7           7           7           8           8
           8           8           9           9           9           9
          10          10          11          11          12          12
          13          13          14          14          15          15
          16          16          17          17
Primitive exponents                        R   N=         131
  5.48467166E+03  8.25234946E+02  1.88046958E+02  5.29645000E+01  1.68975704E+01
  5.79963534E+00  1.55396162E+01  3.59993359E+00  1.01376175E+00  2.70005823E-01
  8.00000000E-01  5.48467166E+03  8.25234946E+02  1.88046958E+02  5.29645000E+01
  1.68975704E+01  5.79963534E+00  1.55396162E+01  3.59993359E+00  1.01376175E+00
  2.70005823E-01  8.00000000E-01  5.48467166E+03  8.25234946E+02  1.88046958E+02
  5.29645000E+01  1.68975704E+01  5.79963534E+00  1.55396162E+01  3.59993359E+00
  1.01376175E+00  2.70005823E-01  8.00000000E-01  5.48467166E+03  8.25234946E+02
  1.88046958E+02  5.29645000E+01  1.68975704E+01  5.79963534E+00  1.55396162E+01
  3.59993359E+00  1.01376175E+00  2.70005823E-01  8.00000000E-01  3.04752488E+03
  4.57369518E+02  1.03948685E+02  2.92101553E+01  9.28666296E+00  3.16392696E+00
  7.86827235E+00  1.88128854E+00  5.44249258E-01  1.68714478E-01  8.00000000E-01
  3.04752488E+03  4.57369518E+02  1.03948685E+02  2.92101553E+01  9.28666296E+00
  3.16392696E+00  7.86827235E+00  1.88128854E+00  5.44249258E-01  1.68714478E-01
  8.00000000E-01  3.04752488E+03  4.57369518E+02  1.03948685E+02  2.92101553E+01
  9.28666296E+00  3.16392696E+00  7.86827235E+00  1.88128854E+00  5.44249258E-01
  1.68714478E-01  8.00000000E-01  3.04752488E+03  4.57369518E+02  1.03948685E+02
  2.92101553E+01  9.28666296E+00  3.16392696E+00  7.86827235E+00  1.88128854E+00
  5.44249258E-01  1.68714478E-01  8.00000000E-01  3.04752488E+03  4.57369518E+02
  1.03948685E+02  2.92101553E+01  9.28666296E+00  3.16392696E+00  7.86827235E+00
  1.88128854E+00  5.44249258E-01  1.68714478E-01  8.00000000E-01  1.87311370E+01
  2.82539436E+00  6.40121692E-01  1.61277759E-01  1.87311370E+01  2.82539436E+00
  6.40121692E-01  1.61277759E-01  1.87311370E+01  2.82539436E+00  6.40121692E-01
  1.61277759E-01  1.87311370E+01  2.82539436E+00  6.40121692E-01  1.61277759E-01
  1.87311370E+01  2.82539436E+00  6.40121692E-01  1.61277759E-01  1.87311370E+01
  2.82539436E+00  6.40121692E-01  1.61277759E-01  1.87311370E+01  2.82539436E+00
  6.40121692E-01  1.61277759E-01  1.87311370E+01  2.82539436E+00  6.40121692E-01
  1.61277759E-01
Contraction coefficients                   R   N=         131
  1.83107443E-03  1.39501722E-02  6.84450781E-02  2.32714336E-01  4.70192898E-01
  3.58520853E-01 -1.10777550E-01 -1.48026263E-01  1.13076702E+00  1.00000000E+00
  1.00000000E+00  1.83107443E-03  1.39501722E-02  6.84450781E-02  2.32714336E-01
  4.70192898E-01  3.58520853E-01 -1.10777550E-01 -1.48026263E-01  1.13076702E+00
  1.00000000E+00  1.00000000E+00  1.83107443E-03  1.39501722E-02  6.84450781E-02
  2.32714336E-01  4.70192898E-01  3.58520853E-01 -1.10777550E-01 -1.48026263E-01
  1.13076702E+00  1.00000000E+00  1.00000000E+00  1.83107443E-03  1.39501722E-02
  6.84450781E-02  2.32714336E-01  4.70192898E-01  3.58520853E-01 -1.10777550E-01
 -1.48026263E-01  1.13076702E+00  1.00000000E+00  1.00000000E+00  1.83473713E-03
  1.40373228E-02  6.88426223E-02  2.32184443E-01  4.67941348E-01  3.62311985E-01
 -1.19332420E-01 -1.60854152E-01  1.14345644E+00  1.00000000E+00  1.00000000E+00
  1.83473713E-03  1.40373228E-02  6.88426223E-02  2.32184443E-01  4.67941348E-01
  3.62311985E-01 -1.19332420E-01 -1.60854152E-01  1.14345644E+00  1.00000000E+00
  1.00000000E+00  1.83473713E-03  1.40373228E-02  6.88426223E-02  2.32184443E-01
  4.67941348E-01  3.62311985E-01 -1.19332420E-01 -1.60854152E-01  1.14345644E+00
  1.00000000E+00  1.00000000E+00  1.83473713E-03  1.40373228E-02  6.88426223E-02
  2.32184443E-01  4.67941348E-01  3.62311985E-01 -1.19332420E-01 -1.60854152E-01
  1.14345644E+00  1.00000000E+00  1.00000000E+00  1.83473713E-03  1.40373228E-02
  6.88426223E-02  2.32184443E-01  4.67941348E-01  3.62311985E-01 -1.19332420E-01
 -1.60854152E-01  1.14345644E+00  1.00000000E+00  1.00000000E+00  3.34946043E-02
  2.34726953E-01  8.13757326E-01  1.00000000E+00  3.34946043E-02  2.34726953E-01
  8.13757326E-01  1.00000000E+00  3.34946043E-02  2.34726953E-01  8.13757326E-01
  1.00000000E+00  3.34946043E-02  2.34726953E-01  8.13757326E-01  1.00000000E+00
  3.34946043E-02  2.34726953E-01  8.13757326E-01  1.00000000E+00  3.34946043E-02
  2.34726953E-01  8.13757326E-01  1.00000000E+00  3.34946043E-02  2.34726953E-01
  8.13757326E-01  1.00000000E+00  3.34946043E-02  2.34726953E-01  8.13757326E-01
  1.00000000E+00
P(S=P) Contraction coefficients            R   N=         131
  0.00000000E+00  0.00000000E+00  0.00000000E+00  0.00000000E+00  0.00000000E+00
  0.00000000E+00  7.08742682E-02  3.39752839E-01  7.27158577E-01  1.00000000E+00
  0.00000000E+00  0.00000000E+00  0.00000000E+00  0.00000000E+00  0.00000000E+00
  0.00000000E+00  0.00000000E+00  7.08742682E-02  3.39752839E-01  7.27158577E-01
  1.00000000E+00  0.00000000E+00  0.00000000E+00  0.00000000E+00  0.00000000E+00
  0.00000000E+00  0.00000000E+00  0.00000000E+00  7.08742682E-02  3.39752839E-01
  7.27158577E-01  1.00000000E+00  0.00000000E+00  0.00000000E+00  0.00000000E+00
  0.00000000E+00  0.00000000E+00  0.00000000E+00  0.00000000E+00  7.08742682E-02
  3.39752839E-01  7.27158577E-01  1.00000000E+00  0.00000000E+00  0.00000000E+00
  0.00000000E+00  0.00000000E+00  0.00000000E+00  0.00000000E+00  0.00000000E+00
  6.89990666E-02  3.16423961E-01  7.44308291E-01  1.00000000E+00  0.00000000E+00
  0.00000000E+00  0.00000000E+00  0.00000000E+00  0.00000000E+00  0.00000000E+00
  0.00000000E+00  6.89990666E-02  3.16423961E-01  7.44308291E-01  1.00000000E+00
  0.00000000E+00  0.00000000E+00  0.00000000E+00  0.00000000E+00  0.00000000E+00
  0.00000000E+00  0.00000000E+00  6.89990666E-02  3.16423961E-01  7.44308291E-01
  1.00000000E+00  0.00000000E+00  0.00000000E+00  0.00000000E+00  0.00000000E+00
  0.00000000E+00  0.00000000E+00  0.00000000E+00  6.89990666E-02  3.16423961E-01
  7.44308291E-01  1.00000000E+00  0.00000000E+00  0.00000000E+00  0.00000000E+00
  0.00000000E+00  0.00000000E+00  0.00000000E+00  0.00000000E+00  6.89990666E-02
  3.16423961E-01  7.44308291E-01  1.00000000E+00  0.00000000E+00  0.00000000E+00
  0.00000000E+00  0.00000000E+00  0.00000000E+00  0.00000000E+00  0.00000000E+00
  0.00000000E+00  0.00000000E+00  0.00000000E+00  0.00000000E+00  0.00000000E+00
  0.00000000E+00  0.00000000E+00  0.00000000E+00  0.00000000E+00  0.00000000E+00
  0.00000000E+00  0.00000000E+00  0.00000000E+00  0.00000000E+00  0.00000000E+00
  0.00000000E+00  0.00000000E+00  0.00000000E+00  0.00000000E+00  0.00000000E+00
  0.00000000E+00  0.00000000E+00  0.00000000E+00  0.00000000E+00  0.00000000E+00
  0.00000000E+00
Coordinates of each shell                  R   N=         156
  4.53641869E+00 -1.42785959E+00  1.74905860E-04  4.53641869E+00 -1.42785959E+00
  1.74905860E-04  4.53641869E+00 -1.42785959E+00  1.74905860E-04  4.53641869E+00
 -1.42785959E+00  1.74905860E-04 -6.45055157E+00  1.49878966E+00  2.11939907E-04
 -6.45055157E+00  1.49878966E+00  2.11939907E-04 -6.45055157E+00  1.49878966E+00
  2.11939907E-04 -6.45055157E+00  1.49878966E+00  2.11939907E-04  3.04604635E+00
  2.59773766E+00 -2.94089904E-04  3.04604635E+00  2.59773766E+00 -2.94089904E-04
  3.04604635E+00  2.59773766E+00 -2.94089904E-04  3.04604635E+00  2.59773766E+00
 -2.94089904E-04 -4.96891734E+00 -2.51760404E+00 -2.66467439E-04 -4.96891734E+00
 -2.51760404E+00 -2.66467439E-04 -4.96891734E+00 -2.51760404E+00 -2.66467439E-04
 -4.96891734E+00 -2.51760404E+00 -2.66467439E-04  1.11596898E-01 -9.36941025E-01
  5.07206086E-05  1.11596898E-01 -9.36941025E-01  5.07206086E-05  1.11596898E-01
 -9.36941025E-01  5.07206086E-05  1.11596898E-01 -9.36941025E-01  5.07206086E-05
 -2.00974092E+00  9.98106487E-01  7.74352312E-05 -2.00974092E+00  9.98106487E-01
  7.74352312E-05 -2.00974092E+00  9.98106487E-01  7.74352312E-05 -2.00974092E+00
  9.98106487E-01  7.74352312E-05  2.66828175E+00  3.21375361E-01 -4.21780081E-05
  2.66828175E+00  3.21375361E-01 -4.21780081E-05  2.66828175E+00  3.21375361E-01
 -4.21780081E-05  2.66828175E+00  3.21375361E-01 -4.21780081E-05 -4.56555520E+00
 -2.48147448E-01 -1.28510892E-05 -4.56555520E+00 -2.48147448E-01 -1.28510892E-05
 -4.56555520E+00 -2.48147448E-01 -1.28510892E-05 -4.56555520E+00 -2.48147448E-01
 -1.28510892E-05  7.04995808E+00 -3.73045722E-01  6.15581030E-05  7.04995808E+00
 -3.73045722E-01  6.15581030E-05  7.04995808E+00 -3.73045722E-01  6.15581030E-05
  7.04995808E+00 -3.73045722E-01  6.15581030E-05 -1.64265203E-02 -2.18361552E+00
  1.64550958E+00 -1.64265203E-02 -2.18361552E+00  1.64550958E+00 -1.65210904E-02
 -2.18364602E+00 -1.64537914E+00 -1.65210904E-02 -2.18364602E+00 -1.64537914E+00
 -1.88394521E+00  2.24667098E+00 -1.64432139E+00 -1.88394521E+00  2.24667098E+00
 -1.64432139E+00 -1.88400919E+00  2.24658111E+00  1.64454841E+00 -1.88400919E+00
  2.24658111E+00  1.64454841E+00  8.30967387E+00 -1.99808761E+00  2.10963349E-04
  8.30967387E+00 -1.99808761E+00  2.10963349E-04  7.34324939E+00  7.84120764E-01
  1.68081452E+00  7.34324939E+00  7.84120764E-01  1.68081452E+00  7.34323372E+00
  7.83802383E-01 -1.68091287E+00  7.34323372E+00  7.83802383E-01 -1.68091287E+00
 -8.02646767E+00  5.27578425E-01  1.11515031E-04 -8.02646767E+00  5.27578425E-01
  1.11515031E-04
Constraint Structure                       R   N=          51
  4.53641869E+00 -1.42785959E+00  1.74905860E-04 -6.45055157E+00  1.49878966E+00
  2.11939907E-04  3.04604635E+00  2.59773766E+00 -2.94089904E-04 -4.96891734E+00
 -2.51760404E+00 -2.66467439E-04  1.11596898E-01 -9.36941025E-01  5.07206086E-05
 -2.00974092E+00  9.98106487E-01  7.74352312E-05  2.66828175E+00  3.21375361E-01
 -4.21780081E-05 -4.56555520E+00 -2.48147448E-01 -1.28510892E-05  7.04995808E+00
 -3.73045722E-01  6.15581030E-05 -1.64265203E-02 -2.18361552E+00  1.64550958E+00
 -1.65210904E-02 -2.18364602E+00 -1.64537914E+00 -1.88394521E+00  2.24667098E+00
 -1.64432139E+00 -1.88400919E+00  2.24658111E+00  1.64454841E+00  8.30967387E+00
 -1.99808761E+00  2.10963349E-04  7.34324939E+00  7.84120764E-01  1.68081452E+00
  7.34323372E+00  7.83802383E-01 -1.68091287E+00 -8.02646767E+00  5.27578425E-01
  1.11515031E-04
Num ILSW                                   I              100
ILSW                                       I   N=         100
           0           1           0           1           2           0
           0           0           0           0           0          -1
           0           0           0           0           0           0
           0           0           0           0           1           0
           1           0           0           0           0           0
           0           0      100000           0          -1           0
           0           0           0           0           0           0
           0           0           0           1           1           0
           0           0           1           0           0           0
           0           0           4          40           0           0
           0           0           0           0           0           0
           0           0           0           0           0           0
           0           0           0           0           0           0
           0           0           0           0           0           0
           0           0           0           0           0           0
           0           0           0           0           0           0
           0           0           0           0
Num RLSW                                   I               40
RLSW                                       R   N=          40
  1.00000000E+00  1.00000000E+00  1.00000000E+00  1.00000000E+00  1.00000000E+00
  0.00000000E+00  0.00000000E+00  1.00000000E+00  0.00000000E+00  0.00000000E+00
  0.00000000E+00  0.00000000E+00  1.00000000E+00  0.00000000E+00  0.00000000E+00
  0.00000000E+00  0.00000000E+00  1.00000000E+00  0.00000000E+00  0.00000000E+00
  0.00000000E+00  0.00000000E+00  1.00000000E+00  0.00000000E+00  0.00000000E+00
  0.00000000E+00  0.00000000E+00  1.00000000E+00  0.00000000E+00  0.00000000E+00
  0.00000000E+00  0.00000000E+00  0.00000000E+00  0.00000000E+00  0.00000000E+00
  0.00000000E+00  0.00000000E+00  0.00000000E+00  1.00000000E+00  1.00000000E+00
MxBond                                     I                4
NBond                                      I   N=          17
           2           2           1           1           4           4
           3           3           4           1           1           1
           1           1           1           1           1
IBond                                      I   N=          68
           7           9           0           0           8          17
           0           0           7           0           0           0
           8           0           0           0           6           7
          10          11           5           8          12          13
           1           3           5           0           2           4
           6           0           1          14          15          16
           5           0           0           0           5           0
           0           0           6           0           0           0
           6           0           0           0           9           0
           0           0           9           0           0           0
           9           0           0           0           2           0
           0           0
RBond                                      R   N=          68
  1.50000000E+00  1.00000000E+00  0.00000000E+00  0.00000000E+00  1.50000000E+00
  1.00000000E+00  0.00000000E+00  0.00000000E+00  2.00000000E+00  0.00000000E+00
  0.00000000E+00  0.00000000E+00  2.00000000E+00  0.00000000E+00  0.00000000E+00
  0.00000000E+00  1.00000000E+00  1.00000000E+00  1.00000000E+00  1.00000000E+00
  1.00000000E+00  1.00000000E+00  1.00000000E+00  1.00000000E+00  1.50000000E+00
  2.00000000E+00  1.00000000E+00  0.00000000E+00  1.50000000E+00  2.00000000E+00
  1.00000000E+00  0.00000000E+00  1.00000000E+00  1.00000000E+00  1.00000000E+00
  1.00000000E+00  1.00000000E+00  0.00000000E+00  0.00000000E+00  0.00000000E+00
  1.00000000E+00  0.00000000E+00  0.00000000E+00  0.00000000E+00  1.00000000E+00
  0.00000000E+00  0.00000000E+00  0.00000000E+00  1.00000000E+00  0.00000000E+00
  0.00000000E+00  0.00000000E+00  1.00000000E+00  0.00000000E+00  0.00000000E+00
  0.00000000E+00  1.00000000E+00  0.00000000E+00  0.00000000E+00  0.00000000E+00
  1.00000000E+00  0.00000000E+00  0.00000000E+00  0.00000000E+00  1.00000000E+00
  0.00000000E+00  0.00000000E+00  0.00000000E+00
Virial Ratio                               R      2.002994813894137E+00
SCF Energy                                 R     -4.934820925091717E+02
MP2 Energy                                 R     -4.948297662964269E+02
Total Energy                               R     -4.948297662964269E+02
Post-SCF wavefunction norm                 R      1.677964589333092E+00
RMS Force                                  R      7.216351002386917E-08
RMS Density                                R      3.521620923777085E-09
External E-field                           R   N=          35
  0.00000000E+00  0.00000000E+00  0.00000000E+00  0.00000000E+00  0.00000000E+00
  0.00000000E+00  0.00000000E+00  0.00000000E+00  0.00000000E+00  0.00000000E+00
  0.00000000E+00  0.00000000E+00  0.00000000E+00  0.00000000E+00  0.00000000E+00
  0.00000000E+00  0.00000000E+00  0.00000000E+00  0.00000000E+00  0.00000000E+00
  0.00000000E+00  0.00000000E+00  0.00000000E+00  0.00000000E+00  0.00000000E+00
  0.00000000E+00  0.00000000E+00  0.00000000E+00  0.00000000E+00  0.00000000E+00
  0.00000000E+00  0.00000000E+00  0.00000000E+00  0.00000000E+00  0.00000000E+00
IOpCl                                      I                0
IROHF                                      I                0
Alpha Orbital Energies                     R   N=         151
 -2.06245476E+01 -2.06153884E+01 -2.05650916E+01 -2.05605797E+01 -1.13990007E+01
 -1.13918201E+01 -1.12907322E+01 -1.12563750E+01 -1.12546972E+01 -1.46279211E+00
 -1.45883975E+00 -1.35978220E+00 -1.35759989E+00 -1.09527517E+00 -9.96978561E-01
 -9.30165488E-01 -8.10859898E-01 -7.68352155E-01 -7.21697100E-01 -7.02844061E-01
 -6.86387733E-01 -6.73403753E-01 -6.64178631E-01 -6.58076322E-01 -6.07623688E-01
 -5.97316389E-01 -5.63253696E-01 -5.46806697E-01 -5.42000963E-01 -5.30905544E-01
 -5.07722858E-01 -4.82323725E-01 -4.63590426E-01 -4.57933745E-01 -4.50310843E-01
  1.67579504E-01  1.83175124E-01  2.21870524E-01  2.35228039E-01  2.58657835E-01
  2.82684664E-01  2.95020817E-01  3.01445095E-01  3.08401809E-01  3.23204985E-01
  3.66435695E-01  3.82775508E-01  4.26439640E-01  4.31801566E-01  4.68578995E-01
  4.99019485E-01  5.78381213E-01  6.21353546E-01  7.21150158E-01  7.25261154E-01
  7.32463684E-01  7.52990408E-01  7.69223794E-01  7.81753999E-01  8.03166189E-01
  8.21056803E-01  8.71990029E-01  8.98759006E-01  9.15891812E-01  9.29940195E-01
  9.44082703E-01  9.81826775E-01  1.01852368E+00  1.06225455E+00  1.07121318E+00
  1.09238656E+00  1.10642021E+00  1.10668022E+00  1.11145392E+00  1.12176021E+00
  1.13289656E+00  1.13430829E+00  1.18819600E+00  1.19564692E+00  1.20941456E+00
  1.21293334E+00  1.21338691E+00  1.24081582E+00  1.27314881E+00  1.33214453E+00
  1.34753565E+00  1.34988001E+00  1.39257888E+00  1.43393761E+00  1.53337556E+00
  1.55889341E+00  1.56861957E+00  1.64828785E+00  1.65908179E+00  1.69607815E+00
  1.75405131E+00  1.78197631E+00  1.80273860E+00  1.83764422E+00  1.89353195E+00
  1.94796303E+00  1.95030534E+00  2.00316352E+00  2.00531484E+00  2.02879970E+00
  2.08007934E+00  2.08206419E+00  2.13170856E+00  2.14804847E+00  2.15497068E+00
  2.21328022E+00  2.22444623E+00  2.23122725E+00  2.24483439E+00  2.28842384E+00
  2.33331692E+00  2.34489418E+00  2.36117845E+00  2.40874984E+00  2.42109557E+00
  2.46430942E+00  2.52548509E+00  2.60061915E+00  2.61705556E+00  2.67108459E+00
  2.69156485E+00  2.74008243E+00  2.77454874E+00  2.79981198E+00  2.80956011E+00
  2.85440164E+00  2.97003060E+00  2.99425257E+00  3.01214220E+00  3.07304225E+00
  3.10160266E+00  3.19998253E+00  3.29198408E+00  3.32681467E+00  3.38550707E+00
  3.47342243E+00  3.52466035E+00  4.23873961E+00  4.38026771E+00  4.45970724E+00
  4.53234777E+00  4.63846060E+00  4.70949377E+00  4.72368290E+00  4.83519193E+00
  5.00902343E+00
Alpha MO coefficients                      R   N=       22801
  1.38006437E-06  1.55501462E-05 -5.63901734E-06 -1.18577014E-06 -3.93411061E-10
 -7.94719507E-05  5.18491627E-05 -5.76550716E-06  2.68580942E-09  5.62420059E-06
  1.18558766E-05  1.19823108E-05  5.16716009E-06 -8.97609565E-10 -2.63101881E-11
  9.94638425E-01  2.11735713E-02 -1.11682387E-04 -1.27298809E-03 -1.51093713E-07
  4.05406013E-03  2.04707341E-04  6.17812545E-04  7.22984540E-08 -4.15823902E-03
 -4.08425634E-03 -3.94882042E-03 -3.72768587E-06  1.82848765E-09 -1.90158303E-08
  7.64381848E-07  4.25278122E-06 -1.28415409E-06 -7.00268824E-08 -1.14819742E-10
 -2.16297319E-05  1.27464063E-05  1.45560683E-05 -1.12300911E-09  3.83805760E-06
 -9.31412638E-07  4.02453647E-06 -3.33247755E-06  3.92016417E-10  4.95284830E-10
 -2.90551610E-04  3.10544654E-05  2.47326394E-05 -3.57708612E-05 -5.03272540E-09
 -3.20340899E-04  6.63140133E-05 -9.16653017E-05 -8.47110188E-09  3.24663852E-05
 -3.36080532E-05 -4.60525792E-06  5.97811930E-05  6.42280890E-09 -4.20936719E-09
  1.03051444E-05  6.07825627E-05  7.61805455E-06 -7.97210971E-07 -1.53113859E-09
 -5.60811831E-04  1.18865309E-04 -1.95767941E-04  6.10851419E-09 -9.08416410E-06
  9.15304331E-06  1.49249227E-05  7.32487642E-06  3.21504296E-10 -6.85105872E-10
 -1.05042929E-05 -7.93580973E-06 -1.40420647E-05  1.52619588E-05 -1.63802510E-09
  7.00912482E-04  1.73664314E-04 -3.06252015E-04 -1.27215462E-09 -7.41637054E-05
 -7.92434549E-08 -3.80913439E-05 -4.77044351E-06  3.18963946E-09  4.48492694E-10
 -5.09173866E-07 -9.21977758E-06  2.02178664E-07  9.15713866E-07 -1.87945879E-10
  1.72090016E-04 -6.63219128E-05 -4.60474399E-05  4.25893435E-09  8.29331985E-06
  6.73440765E-06 -1.75942952E-06 -1.03137010E-06  6.45183826E-10 -1.76910889E-09
 -1.46389348E-06  3.92722229E-04 -2.29559888E-04  2.18944017E-04  2.79273262E-08
 -1.89088741E-04 -3.26191965E-04 -4.10182156E-04 -5.06068791E-08 -5.41004810E-05
 -3.48375778E-05 -5.24718820E-05  5.68395412E-05  5.79365359E-09  8.99279824E-10
 -7.69444040E-07 -2.00800944E-06  3.46220085E-06  1.13639046E-06 -6.68792136E-11
 -4.08777171E-07 -3.51762905E-06  1.33342718E-05 -2.43743378E-09 -2.49252653E-06
 -2.79942098E-06 -5.82149125E-07 -2.61424669E-06  4.61861792E-10  2.29143601E-10
  1.95701228E-05 -1.07109912E-05  1.95740035E-05 -1.07125250E-05  1.88362126E-05
 -3.44333643E-05  1.88440391E-05 -3.44647420E-05  1.04231379E-06  6.04480807E-06
 -7.03558716E-07 -2.66018263E-06 -7.03754470E-07 -2.66115935E-06  4.31441936E-04
 -2.51827631E-04  9.94648034E-01  2.12105879E-02  1.42430616E-04  1.22964091E-03
 -1.46468525E-07  3.92215671E-03 -2.79068158E-04 -6.82679606E-04  8.08949640E-08
 -4.19356638E-03 -4.05756043E-03 -3.91408283E-03 -3.40588548E-05  2.59191005E-09
  2.02281720E-08  7.18350122E-06  2.20357672E-05  4.89411926E-06  1.04165250E-06
 -3.28137268E-10 -1.14673669E-04 -5.02633235E-05  1.20416967E-05  3.38783229E-09
  7.50611273E-06  1.61908930E-05  1.65815473E-05  5.65220125E-06  1.06981127E-09
 -9.04933002E-11 -2.96484867E-04  4.15846891E-05 -1.82058961E-05  3.19579313E-05
 -4.55946952E-09 -3.42001533E-04 -8.12935054E-05  1.02386390E-04 -8.63525337E-09
  3.81431023E-05 -2.55986884E-05  9.66227054E-06  6.53350806E-05 -7.27743205E-09
  4.69618053E-09  7.12257605E-07  4.81707131E-06  2.43896335E-06 -9.93833684E-08
 -2.18978927E-10 -1.91822963E-05 -9.93330927E-06 -1.35750078E-05 -6.23092662E-10