091_PropionylFluoride Gaussian SP Calculation on node142.bme.utexas.edu 
Freq      RMP2-FC                                                     6-31G(d)            
Number of atoms                            I               10
Info1-9                                    I   N=           9
          21          20        1002           0           0         100
           6           2           1
Charge                                     I                0
Multiplicity                               I                1
Number of electrons                        I               40
Number of alpha electrons                  I               20
Number of beta electrons                   I               20
Number of basis functions                  I               85
Number of independent functions            I               85
Number of point charges in /Mol/           I                0
Number of translation vectors              I                0
Atomic numbers                             I   N=          10
           9           8           6           6           6           1
           1           1           1           1
Nuclear charges                            R   N=          10
  9.00000000E+00  8.00000000E+00  6.00000000E+00  6.00000000E+00  6.00000000E+00
  1.00000000E+00  1.00000000E+00  1.00000000E+00  1.00000000E+00  1.00000000E+00
Current cartesian coordinates              R   N=          30
  1.40931403E+00  2.35060927E+00  1.87745007E-01  2.97620923E+00 -1.49174802E+00
 -5.77443471E-01 -1.36033836E+00 -1.05532986E+00  9.42490573E-01 -3.45217341E+00
  1.39476173E-01 -6.60381884E-01  1.21894829E+00 -2.35372716E-01  1.07120005E-01
 -1.58120778E+00 -4.92594235E-01  2.92234703E+00 -1.40946617E+00 -3.11542401E+00
  8.48508290E-01 -3.24307361E+00 -3.80135124E-01 -2.64826704E+00 -5.29852616E+00
 -5.20728878E-01 -1.62380683E-02 -3.39984541E+00  2.19474143E+00 -5.11879676E-01
Force Field                                I                0
Int Atom Types                             I   N=          10
           0           0           0           0           0           0
           0           0           0           0
MM charges                                 R   N=          10
  0.00000000E+00  0.00000000E+00  0.00000000E+00  0.00000000E+00  0.00000000E+00
  0.00000000E+00  0.00000000E+00  0.00000000E+00  0.00000000E+00  0.00000000E+00
Integer atomic weights                     I   N=          10
          19          16          12          12          12           1
           1           1           1           1
Real atomic weights                        R   N=          10
  1.89984032E+01  1.59949146E+01  1.20000000E+01  1.20000000E+01  1.20000000E+01
  1.00782504E+00  1.00782504E+00  1.00782504E+00  1.00782504E+00  1.00782504E+00
Atom fragment info                         I   N=          10
           0           0           0           0           0           0
           0           0           0           0
Atom residue num                           I   N=          10
           0           0           0           0           0           0
           0           0           0           0
Nuclear spins                              I   N=          10
           1           0           0           0           0           1
           1           1           1           1
Nuclear ZEff                               R   N=          10
 -6.75000000E+00 -5.60000000E+00 -3.60000000E+00 -3.60000000E+00 -3.60000000E+00
 -1.00000000E+00 -1.00000000E+00 -1.00000000E+00 -1.00000000E+00 -1.00000000E+00
Nuclear QMom                               R   N=          10
  0.00000000E+00  0.00000000E+00  0.00000000E+00  0.00000000E+00  0.00000000E+00
  0.00000000E+00  0.00000000E+00  0.00000000E+00  0.00000000E+00  0.00000000E+00
Nuclear GFac                               R   N=          10
  2.62886700E+00  0.00000000E+00  0.00000000E+00  0.00000000E+00  0.00000000E+00
  2.79284600E+00  2.79284600E+00  2.79284600E+00  2.79284600E+00  2.79284600E+00
MicOpt                                     I   N=          10
          -1          -1          -1          -1          -1          -1
          -1          -1          -1          -1
Number of contracted shells                I               30
Number of primitive shells                 I               75
Pure/Cartesian d shells                    I                1
Pure/Cartesian f shells                    I                0
Highest angular momentum                   I                2
Largest degree of contraction              I                6
Shell types                                I   N=          30
           0          -1          -1           2           0          -1
          -1           2           0          -1          -1           2
           0          -1          -1           2           0          -1
          -1           2           0           0           0           0
           0           0           0           0           0           0
Number of primitives per shell             I   N=          30
           6           3           1           1           6           3
           1           1           6           3           1           1
           6           3           1           1           6           3
           1           1           3           1           3           1
           3           1           3           1           3           1
Shell to atom map                          I   N=          30
           1           1           1           1           2           2
           2           2           3           3           3           3
           4           4           4           4           5           5
           5           5           6           6           7           7
           8           8           9           9          10          10
Primitive exponents                        R   N=          75
  7.00171309E+03  1.05136609E+03  2.39285690E+02  6.73974453E+01  2.15199573E+01
  7.40310130E+00  2.08479528E+01  4.80830834E+00  1.34406986E+00  3.58151393E-01
  8.00000000E-01  5.48467166E+03  8.25234946E+02  1.88046958E+02  5.29645000E+01
  1.68975704E+01  5.79963534E+00  1.55396162E+01  3.59993359E+00  1.01376175E+00
  2.70005823E-01  8.00000000E-01  3.04752488E+03  4.57369518E+02  1.03948685E+02
  2.92101553E+01  9.28666296E+00  3.16392696E+00  7.86827235E+00  1.88128854E+00
  5.44249258E-01  1.68714478E-01  8.00000000E-01  3.04752488E+03  4.57369518E+02
  1.03948685E+02  2.92101553E+01  9.28666296E+00  3.16392696E+00  7.86827235E+00
  1.88128854E+00  5.44249258E-01  1.68714478E-01  8.00000000E-01  3.04752488E+03
  4.57369518E+02  1.03948685E+02  2.92101553E+01  9.28666296E+00  3.16392696E+00
  7.86827235E+00  1.88128854E+00  5.44249258E-01  1.68714478E-01  8.00000000E-01
  1.87311370E+01  2.82539436E+00  6.40121692E-01  1.61277759E-01  1.87311370E+01
  2.82539436E+00  6.40121692E-01  1.61277759E-01  1.87311370E+01  2.82539436E+00
  6.40121692E-01  1.61277759E-01  1.87311370E+01  2.82539436E+00  6.40121692E-01
  1.61277759E-01  1.87311370E+01  2.82539436E+00  6.40121692E-01  1.61277759E-01
Contraction coefficients                   R   N=          75
  1.81961690E-03  1.39160796E-02  6.84053245E-02  2.33185760E-01  4.71267439E-01
  3.56618546E-01 -1.08506975E-01 -1.46451658E-01  1.12868858E+00  1.00000000E+00
  1.00000000E+00  1.83107443E-03  1.39501722E-02  6.84450781E-02  2.32714336E-01
  4.70192898E-01  3.58520853E-01 -1.10777550E-01 -1.48026263E-01  1.13076702E+00
  1.00000000E+00  1.00000000E+00  1.83473713E-03  1.40373228E-02  6.88426223E-02
  2.32184443E-01  4.67941348E-01  3.62311985E-01 -1.19332420E-01 -1.60854152E-01
  1.14345644E+00  1.00000000E+00  1.00000000E+00  1.83473713E-03  1.40373228E-02
  6.88426223E-02  2.32184443E-01  4.67941348E-01  3.62311985E-01 -1.19332420E-01
 -1.60854152E-01  1.14345644E+00  1.00000000E+00  1.00000000E+00  1.83473713E-03
  1.40373228E-02  6.88426223E-02  2.32184443E-01  4.67941348E-01  3.62311985E-01
 -1.19332420E-01 -1.60854152E-01  1.14345644E+00  1.00000000E+00  1.00000000E+00
  3.34946043E-02  2.34726953E-01  8.13757326E-01  1.00000000E+00  3.34946043E-02
  2.34726953E-01  8.13757326E-01  1.00000000E+00  3.34946043E-02  2.34726953E-01
  8.13757326E-01  1.00000000E+00  3.34946043E-02  2.34726953E-01  8.13757326E-01
  1.00000000E+00  3.34946043E-02  2.34726953E-01  8.13757326E-01  1.00000000E+00
P(S=P) Contraction coefficients            R   N=          75
  0.00000000E+00  0.00000000E+00  0.00000000E+00  0.00000000E+00  0.00000000E+00
  0.00000000E+00  7.16287242E-02  3.45912103E-01  7.22469956E-01  1.00000000E+00
  0.00000000E+00  0.00000000E+00  0.00000000E+00  0.00000000E+00  0.00000000E+00
  0.00000000E+00  0.00000000E+00  7.08742682E-02  3.39752839E-01  7.27158577E-01
  1.00000000E+00  0.00000000E+00  0.00000000E+00  0.00000000E+00  0.00000000E+00
  0.00000000E+00  0.00000000E+00  0.00000000E+00  6.89990666E-02  3.16423961E-01
  7.44308291E-01  1.00000000E+00  0.00000000E+00  0.00000000E+00  0.00000000E+00
  0.00000000E+00  0.00000000E+00  0.00000000E+00  0.00000000E+00  6.89990666E-02
  3.16423961E-01  7.44308291E-01  1.00000000E+00  0.00000000E+00  0.00000000E+00
  0.00000000E+00  0.00000000E+00  0.00000000E+00  0.00000000E+00  0.00000000E+00
  6.89990666E-02  3.16423961E-01  7.44308291E-01  1.00000000E+00  0.00000000E+00
  0.00000000E+00  0.00000000E+00  0.00000000E+00  0.00000000E+00  0.00000000E+00
  0.00000000E+00  0.00000000E+00  0.00000000E+00  0.00000000E+00  0.00000000E+00
  0.00000000E+00  0.00000000E+00  0.00000000E+00  0.00000000E+00  0.00000000E+00
  0.00000000E+00  0.00000000E+00  0.00000000E+00  0.00000000E+00  0.00000000E+00
Coordinates of each shell                  R   N=          90
  1.40931403E+00  2.35060927E+00  1.87745007E-01  1.40931403E+00  2.35060927E+00
  1.87745007E-01  1.40931403E+00  2.35060927E+00  1.87745007E-01  1.40931403E+00
  2.35060927E+00  1.87745007E-01  2.97620923E+00 -1.49174802E+00 -5.77443471E-01
  2.97620923E+00 -1.49174802E+00 -5.77443471E-01  2.97620923E+00 -1.49174802E+00
 -5.77443471E-01  2.97620923E+00 -1.49174802E+00 -5.77443471E-01 -1.36033836E+00
 -1.05532986E+00  9.42490573E-01 -1.36033836E+00 -1.05532986E+00  9.42490573E-01
 -1.36033836E+00 -1.05532986E+00  9.42490573E-01 -1.36033836E+00 -1.05532986E+00
  9.42490573E-01 -3.45217341E+00  1.39476173E-01 -6.60381884E-01 -3.45217341E+00
  1.39476173E-01 -6.60381884E-01 -3.45217341E+00  1.39476173E-01 -6.60381884E-01
 -3.45217341E+00  1.39476173E-01 -6.60381884E-01  1.21894829E+00 -2.35372716E-01
  1.07120005E-01  1.21894829E+00 -2.35372716E-01  1.07120005E-01  1.21894829E+00
 -2.35372716E-01  1.07120005E-01  1.21894829E+00 -2.35372716E-01  1.07120005E-01
 -1.58120778E+00 -4.92594235E-01  2.92234703E+00 -1.58120778E+00 -4.92594235E-01
  2.92234703E+00 -1.40946617E+00 -3.11542401E+00  8.48508290E-01 -1.40946617E+00
 -3.11542401E+00  8.48508290E-01 -3.24307361E+00 -3.80135124E-01 -2.64826704E+00
 -3.24307361E+00 -3.80135124E-01 -2.64826704E+00 -5.29852616E+00 -5.20728878E-01
 -1.62380683E-02 -5.29852616E+00 -5.20728878E-01 -1.62380683E-02 -3.39984541E+00
  2.19474143E+00 -5.11879676E-01 -3.39984541E+00  2.19474143E+00 -5.11879676E-01
Constraint Structure                       R   N=          30
  1.40931403E+00  2.35060927E+00  1.87745007E-01  2.97620923E+00 -1.49174802E+00
 -5.77443471E-01 -1.36033836E+00 -1.05532986E+00  9.42490573E-01 -3.45217341E+00
  1.39476173E-01 -6.60381884E-01  1.21894829E+00 -2.35372716E-01  1.07120005E-01
 -1.58120778E+00 -4.92594235E-01  2.92234703E+00 -1.40946617E+00 -3.11542401E+00
  8.48508290E-01 -3.24307361E+00 -3.80135124E-01 -2.64826704E+00 -5.29852616E+00
 -5.20728878E-01 -1.62380683E-02 -3.39984541E+00  2.19474143E+00 -5.11879676E-01
Num ILSW                                   I              100
ILSW                                       I   N=         100
           0           1           0           0           2           0
           0           0           0           0           0          -1
           0           0           0           0           0           0
           0           0           0           0           1           0
           1           0           0           0           0           0
           0           0      100000           0          -1           0
           0           0           0           0           0           0
           0           0           0           1           1           0
           0           0           1           0           0           0
           0           0           4          40           0           0
           0           0           0           0           0           0
           0           0           0           0           0           0
           0           0           0           0           0           0
           0           0           0           0           0           0
           0           0           0           0           0           0
           0           0           0           0           0           0
           0           0           0           0
Num RLSW                                   I               40
RLSW                                       R   N=          40
  1.00000000E+00  1.00000000E+00  1.00000000E+00  1.00000000E+00  1.00000000E+00
  0.00000000E+00  0.00000000E+00  1.00000000E+00  0.00000000E+00  0.00000000E+00
  0.00000000E+00  0.00000000E+00  1.00000000E+00  0.00000000E+00  0.00000000E+00
  0.00000000E+00  0.00000000E+00  1.00000000E+00  0.00000000E+00  0.00000000E+00
  0.00000000E+00  0.00000000E+00  1.00000000E+00  0.00000000E+00  0.00000000E+00
  0.00000000E+00  0.00000000E+00  1.00000000E+00  0.00000000E+00  0.00000000E+00
  0.00000000E+00  0.00000000E+00  0.00000000E+00  0.00000000E+00  0.00000000E+00
  0.00000000E+00  0.00000000E+00  0.00000000E+00  1.00000000E+00  1.00000000E+00
MxBond                                     I                4
NBond                                      I   N=          10
           1           1           4           4           3           1
           1           1           1           1
IBond                                      I   N=          40
           5           0           0           0           5           0
           0           0           4           5           6           7
           3           8           9          10           1           2
           3           0           3           0           0           0
           3           0           0           0           4           0
           0           0           4           0           0           0
           4           0           0           0
RBond                                      R   N=          40
  1.00000000E+00  0.00000000E+00  0.00000000E+00  0.00000000E+00  2.00000000E+00
  0.00000000E+00  0.00000000E+00  0.00000000E+00  1.00000000E+00  1.00000000E+00
  1.00000000E+00  1.00000000E+00  1.00000000E+00  1.00000000E+00  1.00000000E+00
  1.00000000E+00  1.00000000E+00  2.00000000E+00  1.00000000E+00  0.00000000E+00
  1.00000000E+00  0.00000000E+00  0.00000000E+00  0.00000000E+00  1.00000000E+00
  0.00000000E+00  0.00000000E+00  0.00000000E+00  1.00000000E+00  0.00000000E+00
  0.00000000E+00  0.00000000E+00  1.00000000E+00  0.00000000E+00  0.00000000E+00
  0.00000000E+00  1.00000000E+00  0.00000000E+00  0.00000000E+00  0.00000000E+00
Virial Ratio                               R      2.002656344343597E+00
SCF Energy                                 R     -2.908292836567879E+02
MP2 Energy                                 R     -2.915640189960650E+02
Total Energy                               R     -2.915640189960650E+02
Post-SCF wavefunction norm                 R      1.560385560210783E+00
RMS Force                                  R      1.090208798445701E-06
RMS Density                                R      1.826763606124267E-09
External E-field                           R   N=          35
  0.00000000E+00  0.00000000E+00  0.00000000E+00  0.00000000E+00  0.00000000E+00
  0.00000000E+00  0.00000000E+00  0.00000000E+00  0.00000000E+00  0.00000000E+00
  0.00000000E+00  0.00000000E+00  0.00000000E+00  0.00000000E+00  0.00000000E+00
  0.00000000E+00  0.00000000E+00  0.00000000E+00  0.00000000E+00  0.00000000E+00
  0.00000000E+00  0.00000000E+00  0.00000000E+00  0.00000000E+00  0.00000000E+00
  0.00000000E+00  0.00000000E+00  0.00000000E+00  0.00000000E+00  0.00000000E+00
  0.00000000E+00  0.00000000E+00  0.00000000E+00  0.00000000E+00  0.00000000E+00
IOpCl                                      I                0
IROHF                                      I                0
Alpha Orbital Energies                     R   N=          85
 -2.63241443E+01 -2.05894665E+01 -1.14280269E+01 -1.12687693E+01 -1.12469251E+01
 -1.63571398E+00 -1.41741979E+00 -1.08824289E+00 -9.23940941E-01 -8.25492070E-01
 -7.26375838E-01 -7.12133874E-01 -6.98126963E-01 -6.39280336E-01 -6.08169689E-01
 -5.76937619E-01 -5.52156999E-01 -5.29032704E-01 -5.13112889E-01 -4.75126251E-01
  1.53725129E-01  2.33188368E-01  2.74183378E-01  2.81784477E-01  3.01301869E-01
  3.17888582E-01  3.55870456E-01  3.86001017E-01  4.58370269E-01  4.98875962E-01
  7.01930443E-01  7.10534300E-01  7.24254637E-01  7.55426623E-01  8.12942601E-01
  8.56156176E-01  9.13653761E-01  9.47137026E-01  9.86530596E-01  1.03136948E+00
  1.09690616E+00  1.12258092E+00  1.13971627E+00  1.16659421E+00  1.19676544E+00
  1.21216166E+00  1.27719631E+00  1.31164630E+00  1.40387405E+00  1.44181426E+00
  1.53311249E+00  1.59853272E+00  1.64816648E+00  1.68648095E+00  1.72549439E+00
  1.81024073E+00  1.90965160E+00  1.95978211E+00  2.03605905E+00  2.07221004E+00
  2.10710241E+00  2.12860329E+00  2.18729200E+00  2.21068763E+00  2.22648744E+00
  2.25862900E+00  2.29159054E+00  2.36878855E+00  2.41491202E+00  2.55955369E+00
  2.60565464E+00  2.65549712E+00  2.69156672E+00  2.79449074E+00  2.91652498E+00
  2.98955685E+00  3.12468688E+00  3.27602383E+00  3.34103878E+00  3.48169081E+00
  4.36082123E+00  4.52588904E+00  4.70699907E+00  4.85546461E+00  5.04596848E+00
Alpha MO coefficients                      R   N=        7225
  9.94429052E-01  1.77502936E-02 -8.34668446E-05 -8.48909855E-04 -1.70043579E-05
  8.11023434E-03  7.24778231E-05  5.99414122E-04  2.21345693E-06 -4.54297437E-03
 -5.03006019E-03 -4.57503129E-03 -5.09678019E-05 -1.29676349E-05 -1.31883766E-05
 -8.05591370E-06  4.02507975E-06  1.18659322E-05 -2.64802333E-05 -8.35457503E-06
  1.69543679E-04  2.59596534E-05 -3.95653065E-05 -4.60577903E-07 -4.36475859E-05
 -8.71685221E-05 -5.99841755E-06  3.80437550E-05  1.76054390E-05 -1.82488384E-05
  3.22949755E-06  8.76776401E-05 -3.18424807E-05 -9.78281687E-06  8.53459982E-06
 -2.02689304E-04 -1.66481922E-04 -1.86834306E-04 -2.53633861E-05 -4.84695525E-05
 -4.86961438E-05 -1.16891088E-05 -5.41248147E-05  1.84201411E-05  9.94534014E-06
  4.90322489E-06  1.50283434E-05  3.78822874E-05 -2.66645822E-06 -8.97523010E-06
  2.25750794E-05 -1.57510865E-04  8.17062661E-05  6.48235419E-05  9.79289398E-06
  4.07788403E-06  1.16450524E-05  8.04252935E-06 -6.58643226E-06  3.89963590E-06
 -1.67635345E-05  1.95238720E-04  1.00089047E-04  5.16099014E-04  1.02106193E-06
  1.36124962E-04 -3.17998729E-04  3.14524239E-05  9.63467214E-05  9.77143833E-06
  3.47118828E-04 -5.58891948E-05  2.85279540E-05 -2.94058245E-05  1.65564810E-05
  3.62501148E-05 -6.16753441E-06 -4.99776861E-06 -6.65072361E-05  1.25486937E-05
  6.06899098E-05 -1.38744723E-05 -9.38826746E-05  4.48837341E-05 -1.68092778E-04
 -5.53909754E-06 -5.71789124E-05 -1.07165831E-05  3.68758662E-05  6.77985055E-06
  1.18709334E-04 -5.31823724E-06 -4.57010556E-05 -1.60080893E-06 -4.27788541E-05
 -3.01719014E-05 -7.65711861E-05  7.87184062E-05 -7.50588908E-06 -2.51091487E-05
  9.94692953E-01  2.09876632E-02 -1.27914201E-03  9.30278717E-04  4.98632935E-04
  4.66005655E-03 -4.10657989E-05  5.23965019E-05  2.49761625E-05 -3.69151069E-03
 -3.80197373E-03 -4.10563265E-03 -2.06222820E-04 -2.05606500E-04  9.80396197E-05
  2.12882936E-06 -7.44980100E-06  1.49218274E-06  3.48962262E-05  2.55335415E-08
 -1.42400576E-04 -9.82762848E-05 -8.98427165E-05  1.45441006E-06 -5.83384499E-07
  3.59137895E-05 -6.99064953E-06  6.40754718E-05  9.98733336E-07 -2.35421062E-05
  4.86846715E-06  1.94085880E-05  1.55461568E-05 -9.26160496E-07  8.56662427E-07
 -6.99281922E-05 -8.42902650E-05  6.28960053E-07  2.37997712E-05  1.60215817E-06
  7.18913880E-06  1.63875026E-05 -3.99663967E-06 -1.17243402E-06 -2.63654995E-06
 -7.03638280E-06  4.42634450E-04 -1.06592062E-04  9.09610446E-05  4.71180142E-05
 -3.95384234E-04 -5.51130755E-04  2.60635902E-04  1.92019418E-04 -5.59016846E-04
 -3.24848004E-04 -1.00226538E-04  4.27313652E-04  2.41158102E-04 -1.69969020E-04
  1.55103573E-05 -1.83350796E-05  5.96356228E-06 -5.54208540E-05  6.03370832E-06
  3.52324420E-05 -2.90107259E-06 -4.31689777E-05  1.54096369E-05 -1.48591773E-05
 -2.21813079E-05  7.70572952E-04  6.84659243E-05 -3.82284513E-04 -5.10818678E-05
 -1.49955953E-03 -5.26807615E-04  1.76533263E-03  2.81564731E-04  5.43528726E-04
 -8.28544744E-04  6.66163308E-04  7.05661550E-06  3.82398931E-05 -9.25471314E-05
 -3.10728405E-04  7.62735376E-04 -2.37906090E-04  2.23132566E-04  1.15541364E-04
 -4.09377306E-03  1.01257102E-03 -1.72689736E-03 -5.50235224E-04  4.09575700E-04
  1.13432975E-05  4.10359811E-04  8.32907762E-05  2.95985737E-05 -6.73199218E-05
  1.93469778E-03  7.26877890E-05 -3.26180203E-05 -8.73247327E-05  2.82851526E-05
  3.99039152E-03  2.20548801E-03  9.88899908E-04 -2.94684653E-04 -4.07115094E-04
 -2.11179884E-04 -1.65882790E-04 -8.31294331E-05  7.98271618E-05  8.07946212E-05
 -8.88325783E-05 -3.27023474E-04 -1.98430548E-04 -1.62686701E-05  2.29324981E-05
  8.27950355E-04  1.02603024E-03  1.33263042E-05 -1.86943059E-04 -5.49771261E-06
 -9.31211474E-05 -1.00419716E-04 -1.83856654E-05  2.09390602E-05 -2.84513252E-05
  9.95980001E-01  2.55987000E-02  5.76970193E-04  1.30413754E-03 -1.74410789E-04
 -6.37025935E-03  4.86980643E-03 -1.09799317E-04 -1.52753564E-03 -8.08421192E-04
 -5.42215849E-04 -1.95605359E-03 -3.74168466E-04 -5.40580685E-04  2.41320393E-04
 -2.08121272E-04  1.75735819E-04 -6.68392988E-05  2.88458106E-04 -1.51135958E-04
 -1.57419570E-04  2.68306160E-05  6.01876483E-04 -1.08446488E-04 -6.82306649E-05
 -1.10185300E-04 -6.94493159E-04  5.02575272E-05  1.12777237E-04 -2.65107932E-05
  2.04655720E-03 -7.51753909E-05 -4.36465132E-04  4.71541016E-05 -3.90290605E-04
 -3.65126785E-04 -5.63544729E-04  7.03527124E-05 -8.44560102E-05 -1.27975416E-05
 -1.66055235E-05 -1.22988503E-04  1.78448787E-05  5.08103181E-06  2.02590501E-06
  3.07776763E-04  1.11743573E-04  4.71790377E-04 -1.58200547E-05 -5.35795129E-05
  5.92183055E-05 -1.55460646E-04 -8.15253945E-05 -4.77580452E-05  4.96182927E-05
  9.95736326E-01  2.88668942E-02  3.99912485E-04  2.69665596E-04 -1.48121742E-04
 -1.79989693E-02 -8.40507001E-04 -8.05075938E-04  9.35275384E-04 -1.65523988E-03
 -1.61182882E-03 -1.65886278E-03  4.19510991E-05 -1.15933143E-05  3.89395677E-05
  1.31425642E-02  3.80798621E-04  9.81778107E-05 -7.94692090E-06  3.59767374E-05
  4.11734168E-03  1.45582949E-03 -7.84997720E-04  9.63022171E-04 -2.98251229E-04
 -2.07607684E-04 -2.67701148E-04  1.18569020E-04 -1.57632456E-04  1.36759550E-04
 -2.27483305E-03  8.97502671E-05 -1.16362591E-04 -4.25020311E-05  1.34589144E-05
  4.18059437E-03 -2.32875100E-03 -1.32344664E-03  6.30288147E-04 -5.80804474E-04
 -3.09887617E-04 -1.96199528E-04 -1.27410533E-04  1.89358390E-04  5.41498250E-05
  2.49120777E-04  2.68170295E-03  2.74028352E-04  2.57684422E-03 -1.80706623E-04
  2.19077989E-06 -1.34232594E-04 -1.04970538E-04 -1.55622390E-04  4.23098638E-05
  1.40932282E-05  9.23123047E-05  7.12965995E-06  6.75028662E-06  2.64204461E-05
 -4.63154911E-04  1.11703365E-04  6.34995548E-05 -7.08441192E-05  5.63597483E-05
  5.59681717E-05  7.87757935E-06 -2.12235694E-05  2.42622294E-05  1.19727431E-05
 -5.37341644E-06 -2.36370323E-05 -4.07532104E-05 -2.64906124E-07 -2.02954023E-05
  3.12085492E-04  8.31982456E-05  6.04355910E-05  1.13406061E-04 -2.14710462E-05
  5.11812614E-06  1.53383696E-06 -4.55279230E-07 -1.00460279E-05 -2.79006104E-06
 -1.34239459E-02 -1.57952304E-04 -5.83080311E-05 -4.61971689E-06  1.59167928E-05
  2.84800581E-03 -1.57307257E-03  3.83472786E-04 -8.46066528E-04 -3.44435699E-04
 -1.43684195E-04 -2.13360757E-04  1.11924570E-04 -1.86714022E-04  1.37693172E-04
  9.95655942E-01  2.84250739E-02  2.53623296E-04 -1.28459777E-04  1.20062971E-04
 -1.48445330E-02 -7.35205987E-04  3.16134550E-04 -2.82230112E-04 -1.83432356E-03
 -1.81014717E-03 -1.82764809E-03  3.04615383E-05 -2.77004570E-05  1.93841579E-05
 -2.62443704E-06 -3.14220517E-04  1.11814539E-04 -1.74732993E-05 -3.08227436E-06
  1.07606627E-03 -8.91871452E-04  2.42978774E-04  1.50345160E-04 -1.87400462E-05
 -8.31289884E-05 -1.18568414E-04 -1.31840566E-06  1.81448946E-05 -4.33521711E-05
 -9.77779583E-05  4.43487270E-05 -1.47724036E-04 -1.13397782E-05  1.65301360E-04
  2.59140585E-03  1.22072083E-04  2.35373859E-03  1.50393422E-04  2.53072006E-03
 -2.17174963E-01  5.05215524E-01 -6.70126306E-03 -6.73881685E-02 -1.61241881E-03
  4.33043044E-01 -5.67409678E-03 -4.57054851E-02 -7.10056422E-04  1.96892108E-02
  3.85487949E-02  2.03696725E-02  2.16889689E-03  4.67762111E-04  4.70260378E-04
 -2.72290933E-02  6.24972109E-02 -1.89890288E-02  2.34613060E-02  7.97133703E-03
  4.23252152E-02 -4.42268081E-03  1.09810114E-02  1.95668565E-03  1.52880039E-03
  4.03632402E-03  1.27391108E-03 -3.99877949E-03 -3.65990904E-04  1.56953960E-03
 -7.85214580E-03  1.47714865E-02  1.23043882E-02  7.76731423E-03 -3.88683190E-03
 -1.69018421E-03 -7.50439126E-04  4.86217939E-03  2.26041693E-03  4.23585311E-03
  9.27464232E-04  5.17670037E-04  2.73063532E-03 -1.56945270E-03 -7.46730505E-04
 -1.89927609E-03  2.62649667E-03  2.08702969E-03  2.66108460E-04  1.22440334E-03
  1.32889119E-03  4.46955053E-03 -2.05382398E-03 -2.09363313E-03  5.08139741E-04
 -3.19885519E-05 -1.18206975E-04  1.03635280E-05  3.93567258E-04 -2.09554722E-05
 -6.57495878E-02  1.21085507E-01  1.95294727E-02  7.70628469E-02 -2.68795133E-03
  3.24672099E-02 -6.01407858E-03 -6.87080076E-03  1.98799052E-03 -8.46496185E-03
  2.01346663E-02 -1.11355268E-02 -7.64028175E-04 -1.23488063E-03  2.34666860E-03
  2.42618463E-03  6.69206793E-04  2.29190124E-03  9.20936859E-04  2.13688069E-04
 -1.78678208E-03  4.45407473E-04  2.12933029E-03  8.01921272E-04  4.53749182E-03
  5.14732996E-02 -1.16919161E-01  1.10942259E-02 -1.76137044E-02 -4.85003969E-03
 -1.23239390E-01  1.05826601E-02 -1.10244662E-02 -4.28331514E-03 -4.57336434E-03
  1.38440595E-03 -3.91907211E-03 -1.43127224E-03  2.17149495E-04  8.11912981E-04
 -1.95013038E-01  4.27494137E-01 -1.09841467E-01  7.30743277E-02  4.23021715E-02
  3.99439284E-01 -4.25778513E-02  3.06190930E-02  1.69034152E-02  9.53324513E-03
  2.43207460E-03 -1.35478539E-03 -1.05862282E-02 -5.82095365E-03  4.09423718E-03
 -1.21092375E-02  2.34804372E-02  1.86951090E-02 -9.85377967E-04 -6.57874498E-03
 -2.81599834E-03 -1.37958843E-03 -1.29784868E-02 -2.28736965E-03  5.66896583E-03
 -7.22043975E-04  4.14830716E-04  2.67505065E-05 -2.47254706E-03 -1.13908111E-04
 -1.54381880E-03  4.45718321E-03  2.79387449E-03 -1.26532866E-03  6.21553721E-04
  1.51045337E-03 -4.80094409E-03  9.10614190E-04  4.34087240E-03  5.22973769E-05
  5.52951374E-05  4.63593976E-04 -2.65295767E-04  2.61305500E-04 -1.17981567E-04
 -1.01004138E-01  2.00552364E-01  1.45346445E-01 -1.33263934E-01 -5.81716522E-02
  4.69279461E-02 -3.37874793E-02  8.97806655E-03  1.14652668E-02  1.42272077E-02
 -1.23560853E-02 -1.12818575E-02 -2.52937056E-02 -1.35561540E-02  9.03758837E-03
  4.12778000E-03  7.65776816E-04  6.54090666E-03 -3.71239853E-03  1.17798774E-03
  3.37903836E-03  1.68937620E-04 -3.26679826E-03  9.05128225E-04 -3.02932246E-03
  2.51229238E-02 -5.58887630E-02 -4.41699876E-02 -4.74054644E-02  8.92241582E-03
 -7.78630415E-02 -2.20878714E-02 -2.62106518E-02  4.02135540E-03 -9.84123728E-04
  3.35251659E-03 -1.71573386E-03  2.93030137E-03 -3.16571652E-05 -4.35359740E-04
  3.37475109E-02 -7.64096232E-02 -1.72787210E-02 -1.61716921E-02  3.46059238E-03
 -7.90957934E-02 -7.69803108E-03 -3.84242137E-03  1.52530200E-03  1.34704424E-03
 -2.97828139E-03  4.20914711E-04  1.05380851E-03 -2.03610449E-06 -7.74948260E-04
 -1.57047447E-01  2.93241837E-01  3.05141399E-03  3.16594547E-02 -3.20708248E-02
  2.62555795E-01  1.08031055E-03  4.99877819E-03 -3.79902853E-03  7.58732696E-03
  5.48383654E-03  6.72813861E-03 -1.05616377E-03  2.13714395E-03 -1.81792072E-03
 -1.14962589E-01  2.11981753E-01  5.07884116E-02 -2.41989493E-02  3.39406515E-02
  1.81095606E-01  6.86525393E-03 -2.13786591E-03  2.68063319E-03  8.74210331E-03
  3.86024786E-03  5.20159795E-03 -3.37507287E-03  4.62039857E-03 -2.37040554E-03
 -5.46080185E-02  1.19682224E-01 -1.48467627E-01 -1.30896573E-02  4.47409006E-02
  6.10166551E-02 -2.46989652E-02 -3.40745694E-03  7.48121803E-03  1.08182424E-02
 -3.33327742E-03 -2.62640216E-03  7.40053276E-03 -4.48312720E-03 -2.49613294E-03
  8.90777622E-02  1.21210524E-02  8.57958588E-02  8.90964092E-03  6.28941584E-02
  8.38609916E-03  6.10100527E-02  9.51541503E-03  6.34515380E-02  6.65250844E-03
 -2.88709363E-02  6.57509152E-02  4.74687502E-02  1.36309435E-01 -2.62331381E-02
  9.49435960E-02  2.59227126E-02  8.70040603E-02 -1.50192492E-02  3.50454170E-03
 -1.01600658E-02  3.71637138E-03 -3.73758577E-03  1.87175912E-04  1.40250281E-03
 -4.21763625E-02  9.68054797E-02  5.09611920E-02 -4.57187952E-03 -2.63179239E-02
  1.15264906E-01  2.34048405E-02 -8.29413779E-03 -1.29924951E-02 -2.11733393E-03
  2.03133857E-03 -7.23884859E-04  1.53575320E-03  1.94672130E-03 -1.05206246E-03
  6.18135630E-02 -1.18533532E-01 -1.58855063E-01  1.94010813E-02 -4.81557217E-02
 -1.34532569E-01 -3.65798771E-02  6.45215307E-03 -1.78935412E-02 -3.58353262E-03
 -2.50561524E-03  5.23847173E-05 -1.14234041E-02  1.17404601E-02 -4.99337597E-03
 -1.48699696E-01  2.76296960E-01 -5.42458387E-02  1.88590099E-02 -2.97425723E-02