126544003                                                               
Freq      RMP2-FC                                                     6-31G(d)            
Number of atoms                            I               19
Info1-9                                    I   N=           9
          31          29        1002           0           0         100
           6           2           1
Charge                                     I                0
Multiplicity                               I                1
Number of electrons                        I               74
Number of alpha electrons                  I               37
Number of beta electrons                   I               37
Number of basis functions                  I              168
Number of independent functions            I              168
Number of point charges in /Mol/           I                0
Number of translation vectors              I                0
Atomic numbers                             I   N=          19
           8           8           7           6           6           6
           6           6           6           6           1           1
           1           1           1           1           1           1
           1
Nuclear charges                            R   N=          19
  8.00000000E+00  8.00000000E+00  7.00000000E+00  6.00000000E+00  6.00000000E+00
  6.00000000E+00  6.00000000E+00  6.00000000E+00  6.00000000E+00  6.00000000E+00
  1.00000000E+00  1.00000000E+00  1.00000000E+00  1.00000000E+00  1.00000000E+00
  1.00000000E+00  1.00000000E+00  1.00000000E+00  1.00000000E+00
Current cartesian coordinates              R   N=          57
 -7.71737948E-01 -2.27468571E+00  4.13454939E-06  3.25857513E+00  3.15045866E+00
  2.56954932E-05  4.20537161E+00 -1.09825864E+00 -2.82333631E-05 -4.35230972E+00
  4.58988800E-02  8.89232223E-06 -1.09886790E-01  2.32168270E-01 -2.17387141E-05
 -2.23410424E+00  1.71352602E+00 -1.62822178E-05 -3.35898747E+00 -2.34627031E+00
  1.73864436E-05  2.59558102E+00  9.11070837E-01 -2.30609842E-06 -7.09208705E+00
  7.46499795E-01 -2.06068249E-06  6.92453210E+00 -7.72634803E-01  7.83767251E-06
 -2.23774942E+00  3.75848028E+00 -3.53338980E-05 -4.19104507E+00 -4.21209040E+00
  5.04749014E-05 -7.57267452E+00  1.86745120E+00 -1.66912571E+00 -8.28400996E+00
 -9.41332047E-01  1.91978921E-05 -7.57268101E+00  1.86749764E+00  1.66908848E+00
  3.45210388E+00 -2.85531494E+00 -3.59074334E-05  7.77293734E+00 -1.61912651E+00
 -1.68422984E+00  7.77289517E+00 -1.61908146E+00  1.68429028E+00  7.29149776E+00
  1.25359096E+00 -1.30232337E-05
Force Field                                I                0
Int Atom Types                             I   N=          19
           0           0           0           0           0           0
           0           0           0           0           0           0
           0           0           0           0           0           0
           0
MM charges                                 R   N=          19
  0.00000000E+00  0.00000000E+00  0.00000000E+00  0.00000000E+00  0.00000000E+00
  0.00000000E+00  0.00000000E+00  0.00000000E+00  0.00000000E+00  0.00000000E+00
  0.00000000E+00  0.00000000E+00  0.00000000E+00  0.00000000E+00  0.00000000E+00
  0.00000000E+00  0.00000000E+00  0.00000000E+00  0.00000000E+00
Integer atomic weights                     I   N=          19
          16          16          14          12          12          12
          12          12          12          12           1           1
           1           1           1           1           1           1
           1
Real atomic weights                        R   N=          19
  1.59949146E+01  1.59949146E+01  1.40030740E+01  1.20000000E+01  1.20000000E+01
  1.20000000E+01  1.20000000E+01  1.20000000E+01  1.20000000E+01  1.20000000E+01
  1.00782504E+00  1.00782504E+00  1.00782504E+00  1.00782504E+00  1.00782504E+00
  1.00782504E+00  1.00782504E+00  1.00782504E+00  1.00782504E+00
Atom fragment info                         I   N=          19
           0           0           0           0           0           0
           0           0           0           0           0           0
           0           0           0           0           0           0
           0
Atom residue num                           I   N=          19
           0           0           0           0           0           0
           0           0           0           0           0           0
           0           0           0           0           0           0
           0
Nuclear spins                              I   N=          19
           0           0           2           0           0           0
           0           0           0           0           1           1
           1           1           1           1           1           1
           1
Nuclear ZEff                               R   N=          19
 -5.60000000E+00 -5.60000000E+00 -4.55000000E+00 -3.60000000E+00 -3.60000000E+00
 -3.60000000E+00 -3.60000000E+00 -3.60000000E+00 -3.60000000E+00 -3.60000000E+00
 -1.00000000E+00 -1.00000000E+00 -1.00000000E+00 -1.00000000E+00 -1.00000000E+00
 -1.00000000E+00 -1.00000000E+00 -1.00000000E+00 -1.00000000E+00
Nuclear QMom                               R   N=          19
  0.00000000E+00  0.00000000E+00  2.04400000E+00  0.00000000E+00  0.00000000E+00
  0.00000000E+00  0.00000000E+00  0.00000000E+00  0.00000000E+00  0.00000000E+00
  0.00000000E+00  0.00000000E+00  0.00000000E+00  0.00000000E+00  0.00000000E+00
  0.00000000E+00  0.00000000E+00  0.00000000E+00  0.00000000E+00
Nuclear GFac                               R   N=          19
  0.00000000E+00  0.00000000E+00  4.03761000E-01  0.00000000E+00  0.00000000E+00
  0.00000000E+00  0.00000000E+00  0.00000000E+00  0.00000000E+00  0.00000000E+00
  2.79284600E+00  2.79284600E+00  2.79284600E+00  2.79284600E+00  2.79284600E+00
  2.79284600E+00  2.79284600E+00  2.79284600E+00  2.79284600E+00
MicOpt                                     I   N=          19
          -1          -1          -1          -1          -1          -1
          -1          -1          -1          -1          -1          -1
          -1          -1          -1          -1          -1          -1
          -1
Number of contracted shells                I               58
Number of primitive shells                 I              146
Pure/Cartesian d shells                    I                1
Pure/Cartesian f shells                    I                0
Highest angular momentum                   I                2
Largest degree of contraction              I                6
Shell types                                I   N=          58
           0          -1          -1           2           0          -1
          -1           2           0          -1          -1           2
           0          -1          -1           2           0          -1
          -1           2           0          -1          -1           2
           0          -1          -1           2           0          -1
          -1           2           0          -1          -1           2
           0          -1          -1           2           0           0
           0           0           0           0           0           0
           0           0           0           0           0           0
           0           0           0           0
Number of primitives per shell             I   N=          58
           6           3           1           1           6           3
           1           1           6           3           1           1
           6           3           1           1           6           3
           1           1           6           3           1           1
           6           3           1           1           6           3
           1           1           6           3           1           1
           6           3           1           1           3           1
           3           1           3           1           3           1
           3           1           3           1           3           1
           3           1           3           1
Shell to atom map                          I   N=          58
           1           1           1           1           2           2
           2           2           3           3           3           3
           4           4           4           4           5           5
           5           5           6           6           6           6
           7           7           7           7           8           8
           8           8           9           9           9           9
          10          10          10          10          11          11
          12          12          13          13          14          14
          15          15          16          16          17          17
          18          18          19          19
Primitive exponents                        R   N=         146
  5.48467166E+03  8.25234946E+02  1.88046958E+02  5.29645000E+01  1.68975704E+01
  5.79963534E+00  1.55396162E+01  3.59993359E+00  1.01376175E+00  2.70005823E-01
  8.00000000E-01  5.48467166E+03  8.25234946E+02  1.88046958E+02  5.29645000E+01
  1.68975704E+01  5.79963534E+00  1.55396162E+01  3.59993359E+00  1.01376175E+00
  2.70005823E-01  8.00000000E-01  4.17351146E+03  6.27457911E+02  1.42902093E+02
  4.02343293E+01  1.28202129E+01  4.39043701E+00  1.16263619E+01  2.71627981E+00
  7.72218397E-01  2.12031498E-01  8.00000000E-01  3.04752488E+03  4.57369518E+02
  1.03948685E+02  2.92101553E+01  9.28666296E+00  3.16392696E+00  7.86827235E+00
  1.88128854E+00  5.44249258E-01  1.68714478E-01  8.00000000E-01  3.04752488E+03
  4.57369518E+02  1.03948685E+02  2.92101553E+01  9.28666296E+00  3.16392696E+00
  7.86827235E+00  1.88128854E+00  5.44249258E-01  1.68714478E-01  8.00000000E-01
  3.04752488E+03  4.57369518E+02  1.03948685E+02  2.92101553E+01  9.28666296E+00
  3.16392696E+00  7.86827235E+00  1.88128854E+00  5.44249258E-01  1.68714478E-01
  8.00000000E-01  3.04752488E+03  4.57369518E+02  1.03948685E+02  2.92101553E+01
  9.28666296E+00  3.16392696E+00  7.86827235E+00  1.88128854E+00  5.44249258E-01
  1.68714478E-01  8.00000000E-01  3.04752488E+03  4.57369518E+02  1.03948685E+02
  2.92101553E+01  9.28666296E+00  3.16392696E+00  7.86827235E+00  1.88128854E+00
  5.44249258E-01  1.68714478E-01  8.00000000E-01  3.04752488E+03  4.57369518E+02
  1.03948685E+02  2.92101553E+01  9.28666296E+00  3.16392696E+00  7.86827235E+00
  1.88128854E+00  5.44249258E-01  1.68714478E-01  8.00000000E-01  3.04752488E+03
  4.57369518E+02  1.03948685E+02  2.92101553E+01  9.28666296E+00  3.16392696E+00
  7.86827235E+00  1.88128854E+00  5.44249258E-01  1.68714478E-01  8.00000000E-01
  1.87311370E+01  2.82539436E+00  6.40121692E-01  1.61277759E-01  1.87311370E+01
  2.82539436E+00  6.40121692E-01  1.61277759E-01  1.87311370E+01  2.82539436E+00
  6.40121692E-01  1.61277759E-01  1.87311370E+01  2.82539436E+00  6.40121692E-01
  1.61277759E-01  1.87311370E+01  2.82539436E+00  6.40121692E-01  1.61277759E-01
  1.87311370E+01  2.82539436E+00  6.40121692E-01  1.61277759E-01  1.87311370E+01
  2.82539436E+00  6.40121692E-01  1.61277759E-01  1.87311370E+01  2.82539436E+00
  6.40121692E-01  1.61277759E-01  1.87311370E+01  2.82539436E+00  6.40121692E-01
  1.61277759E-01
Contraction coefficients                   R   N=         146
  1.83107443E-03  1.39501722E-02  6.84450781E-02  2.32714336E-01  4.70192898E-01
  3.58520853E-01 -1.10777550E-01 -1.48026263E-01  1.13076702E+00  1.00000000E+00
  1.00000000E+00  1.83107443E-03  1.39501722E-02  6.84450781E-02  2.32714336E-01
  4.70192898E-01  3.58520853E-01 -1.10777550E-01 -1.48026263E-01  1.13076702E+00
  1.00000000E+00  1.00000000E+00  1.83477216E-03  1.39946270E-02  6.85865518E-02
  2.32240873E-01  4.69069948E-01  3.60455199E-01 -1.14961182E-01 -1.69117479E-01
  1.14585195E+00  1.00000000E+00  1.00000000E+00  1.83473713E-03  1.40373228E-02
  6.88426223E-02  2.32184443E-01  4.67941348E-01  3.62311985E-01 -1.19332420E-01
 -1.60854152E-01  1.14345644E+00  1.00000000E+00  1.00000000E+00  1.83473713E-03
  1.40373228E-02  6.88426223E-02  2.32184443E-01  4.67941348E-01  3.62311985E-01
 -1.19332420E-01 -1.60854152E-01  1.14345644E+00  1.00000000E+00  1.00000000E+00
  1.83473713E-03  1.40373228E-02  6.88426223E-02  2.32184443E-01  4.67941348E-01
  3.62311985E-01 -1.19332420E-01 -1.60854152E-01  1.14345644E+00  1.00000000E+00
  1.00000000E+00  1.83473713E-03  1.40373228E-02  6.88426223E-02  2.32184443E-01
  4.67941348E-01  3.62311985E-01 -1.19332420E-01 -1.60854152E-01  1.14345644E+00
  1.00000000E+00  1.00000000E+00  1.83473713E-03  1.40373228E-02  6.88426223E-02
  2.32184443E-01  4.67941348E-01  3.62311985E-01 -1.19332420E-01 -1.60854152E-01
  1.14345644E+00  1.00000000E+00  1.00000000E+00  1.83473713E-03  1.40373228E-02
  6.88426223E-02  2.32184443E-01  4.67941348E-01  3.62311985E-01 -1.19332420E-01
 -1.60854152E-01  1.14345644E+00  1.00000000E+00  1.00000000E+00  1.83473713E-03
  1.40373228E-02  6.88426223E-02  2.32184443E-01  4.67941348E-01  3.62311985E-01
 -1.19332420E-01 -1.60854152E-01  1.14345644E+00  1.00000000E+00  1.00000000E+00
  3.34946043E-02  2.34726953E-01  8.13757326E-01  1.00000000E+00  3.34946043E-02
  2.34726953E-01  8.13757326E-01  1.00000000E+00  3.34946043E-02  2.34726953E-01
  8.13757326E-01  1.00000000E+00  3.34946043E-02  2.34726953E-01  8.13757326E-01
  1.00000000E+00  3.34946043E-02  2.34726953E-01  8.13757326E-01  1.00000000E+00
  3.34946043E-02  2.34726953E-01  8.13757326E-01  1.00000000E+00  3.34946043E-02
  2.34726953E-01  8.13757326E-01  1.00000000E+00  3.34946043E-02  2.34726953E-01
  8.13757326E-01  1.00000000E+00  3.34946043E-02  2.34726953E-01  8.13757326E-01
  1.00000000E+00
P(S=P) Contraction coefficients            R   N=         146
  0.00000000E+00  0.00000000E+00  0.00000000E+00  0.00000000E+00  0.00000000E+00
  0.00000000E+00  7.08742682E-02  3.39752839E-01  7.27158577E-01  1.00000000E+00
  0.00000000E+00  0.00000000E+00  0.00000000E+00  0.00000000E+00  0.00000000E+00
  0.00000000E+00  0.00000000E+00  7.08742682E-02  3.39752839E-01  7.27158577E-01
  1.00000000E+00  0.00000000E+00  0.00000000E+00  0.00000000E+00  0.00000000E+00
  0.00000000E+00  0.00000000E+00  0.00000000E+00  6.75797439E-02  3.23907296E-01
  7.40895140E-01  1.00000000E+00  0.00000000E+00  0.00000000E+00  0.00000000E+00
  0.00000000E+00  0.00000000E+00  0.00000000E+00  0.00000000E+00  6.89990666E-02
  3.16423961E-01  7.44308291E-01  1.00000000E+00  0.00000000E+00  0.00000000E+00
  0.00000000E+00  0.00000000E+00  0.00000000E+00  0.00000000E+00  0.00000000E+00
  6.89990666E-02  3.16423961E-01  7.44308291E-01  1.00000000E+00  0.00000000E+00
  0.00000000E+00  0.00000000E+00  0.00000000E+00  0.00000000E+00  0.00000000E+00
  0.00000000E+00  6.89990666E-02  3.16423961E-01  7.44308291E-01  1.00000000E+00
  0.00000000E+00  0.00000000E+00  0.00000000E+00  0.00000000E+00  0.00000000E+00
  0.00000000E+00  0.00000000E+00  6.89990666E-02  3.16423961E-01  7.44308291E-01
  1.00000000E+00  0.00000000E+00  0.00000000E+00  0.00000000E+00  0.00000000E+00
  0.00000000E+00  0.00000000E+00  0.00000000E+00  6.89990666E-02  3.16423961E-01
  7.44308291E-01  1.00000000E+00  0.00000000E+00  0.00000000E+00  0.00000000E+00
  0.00000000E+00  0.00000000E+00  0.00000000E+00  0.00000000E+00  6.89990666E-02
  3.16423961E-01  7.44308291E-01  1.00000000E+00  0.00000000E+00  0.00000000E+00
  0.00000000E+00  0.00000000E+00  0.00000000E+00  0.00000000E+00  0.00000000E+00
  6.89990666E-02  3.16423961E-01  7.44308291E-01  1.00000000E+00  0.00000000E+00
  0.00000000E+00  0.00000000E+00  0.00000000E+00  0.00000000E+00  0.00000000E+00
  0.00000000E+00  0.00000000E+00  0.00000000E+00  0.00000000E+00  0.00000000E+00
  0.00000000E+00  0.00000000E+00  0.00000000E+00  0.00000000E+00  0.00000000E+00
  0.00000000E+00  0.00000000E+00  0.00000000E+00  0.00000000E+00  0.00000000E+00
  0.00000000E+00  0.00000000E+00  0.00000000E+00  0.00000000E+00  0.00000000E+00
  0.00000000E+00  0.00000000E+00  0.00000000E+00  0.00000000E+00  0.00000000E+00
  0.00000000E+00  0.00000000E+00  0.00000000E+00  0.00000000E+00  0.00000000E+00
  0.00000000E+00
Coordinates of each shell                  R   N=         174
 -7.71737948E-01 -2.27468571E+00  4.13454939E-06 -7.71737948E-01 -2.27468571E+00
  4.13454939E-06 -7.71737948E-01 -2.27468571E+00  4.13454939E-06 -7.71737948E-01
 -2.27468571E+00  4.13454939E-06  3.25857513E+00  3.15045866E+00  2.56954932E-05
  3.25857513E+00  3.15045866E+00  2.56954932E-05  3.25857513E+00  3.15045866E+00
  2.56954932E-05  3.25857513E+00  3.15045866E+00  2.56954932E-05  4.20537161E+00
 -1.09825864E+00 -2.82333631E-05  4.20537161E+00 -1.09825864E+00 -2.82333631E-05
  4.20537161E+00 -1.09825864E+00 -2.82333631E-05  4.20537161E+00 -1.09825864E+00
 -2.82333631E-05 -4.35230972E+00  4.58988800E-02  8.89232223E-06 -4.35230972E+00
  4.58988800E-02  8.89232223E-06 -4.35230972E+00  4.58988800E-02  8.89232223E-06
 -4.35230972E+00  4.58988800E-02  8.89232223E-06 -1.09886790E-01  2.32168270E-01
 -2.17387141E-05 -1.09886790E-01  2.32168270E-01 -2.17387141E-05 -1.09886790E-01
  2.32168270E-01 -2.17387141E-05 -1.09886790E-01  2.32168270E-01 -2.17387141E-05
 -2.23410424E+00  1.71352602E+00 -1.62822178E-05 -2.23410424E+00  1.71352602E+00
 -1.62822178E-05 -2.23410424E+00  1.71352602E+00 -1.62822178E-05 -2.23410424E+00
  1.71352602E+00 -1.62822178E-05 -3.35898747E+00 -2.34627031E+00  1.73864436E-05
 -3.35898747E+00 -2.34627031E+00  1.73864436E-05 -3.35898747E+00 -2.34627031E+00
  1.73864436E-05 -3.35898747E+00 -2.34627031E+00  1.73864436E-05  2.59558102E+00
  9.11070837E-01 -2.30609842E-06  2.59558102E+00  9.11070837E-01 -2.30609842E-06
  2.59558102E+00  9.11070837E-01 -2.30609842E-06  2.59558102E+00  9.11070837E-01
 -2.30609842E-06 -7.09208705E+00  7.46499795E-01 -2.06068249E-06 -7.09208705E+00
  7.46499795E-01 -2.06068249E-06 -7.09208705E+00  7.46499795E-01 -2.06068249E-06
 -7.09208705E+00  7.46499795E-01 -2.06068249E-06  6.92453210E+00 -7.72634803E-01
  7.83767251E-06  6.92453210E+00 -7.72634803E-01  7.83767251E-06  6.92453210E+00
 -7.72634803E-01  7.83767251E-06  6.92453210E+00 -7.72634803E-01  7.83767251E-06
 -2.23774942E+00  3.75848028E+00 -3.53338980E-05 -2.23774942E+00  3.75848028E+00
 -3.53338980E-05 -4.19104507E+00 -4.21209040E+00  5.04749014E-05 -4.19104507E+00
 -4.21209040E+00  5.04749014E-05 -7.57267452E+00  1.86745120E+00 -1.66912571E+00
 -7.57267452E+00  1.86745120E+00 -1.66912571E+00 -8.28400996E+00 -9.41332047E-01
  1.91978921E-05 -8.28400996E+00 -9.41332047E-01  1.91978921E-05 -7.57268101E+00
  1.86749764E+00  1.66908848E+00 -7.57268101E+00  1.86749764E+00  1.66908848E+00
  3.45210388E+00 -2.85531494E+00 -3.59074334E-05  3.45210388E+00 -2.85531494E+00
 -3.59074334E-05  7.77293734E+00 -1.61912651E+00 -1.68422984E+00  7.77293734E+00
 -1.61912651E+00 -1.68422984E+00  7.77289517E+00 -1.61908146E+00  1.68429028E+00
  7.77289517E+00 -1.61908146E+00  1.68429028E+00  7.29149776E+00  1.25359096E+00
 -1.30232337E-05  7.29149776E+00  1.25359096E+00 -1.30232337E-05
Constraint Structure                       R   N=          57
 -7.71737948E-01 -2.27468571E+00  4.13454939E-06  3.25857513E+00  3.15045866E+00
  2.56954932E-05  4.20537161E+00 -1.09825864E+00 -2.82333631E-05 -4.35230972E+00
  4.58988800E-02  8.89232223E-06 -1.09886790E-01  2.32168270E-01 -2.17387141E-05
 -2.23410424E+00  1.71352602E+00 -1.62822178E-05 -3.35898747E+00 -2.34627031E+00
  1.73864436E-05  2.59558102E+00  9.11070837E-01 -2.30609842E-06 -7.09208705E+00
  7.46499795E-01 -2.06068249E-06  6.92453210E+00 -7.72634803E-01  7.83767251E-06
 -2.23774942E+00  3.75848028E+00 -3.53338980E-05 -4.19104507E+00 -4.21209040E+00
  5.04749014E-05 -7.57267452E+00  1.86745120E+00 -1.66912571E+00 -8.28400996E+00
 -9.41332047E-01  1.91978921E-05 -7.57268101E+00  1.86749764E+00  1.66908848E+00
  3.45210388E+00 -2.85531494E+00 -3.59074334E-05  7.77293734E+00 -1.61912651E+00
 -1.68422984E+00  7.77289517E+00 -1.61908146E+00  1.68429028E+00  7.29149776E+00
  1.25359096E+00 -1.30232337E-05
Num ILSW                                   I              100
ILSW                                       I   N=         100
           0           1           0           0           2           0
           0           0           0           0           0          -1
           0           0           0           0           0           0
           0           0           0           0           1           0
           1           0           0           0           0           0
           0           0      100000           0          -1           0
           0           0           0           0           0           0
           0           0           0           1           1           0
           0           0           1           0           0           0
           0           0           4          40           0           0
           0           0           0           0           0           0
           0           0           0           0           0           0
           0           0           0           0           0           0
           0           0           0           0           0           0
           0           0           0           0           0           0
           0           0           0           0           0           0
           0           0           0           0
Num RLSW                                   I               40
RLSW                                       R   N=          40
  1.00000000E+00  1.00000000E+00  1.00000000E+00  1.00000000E+00  1.00000000E+00
  0.00000000E+00  0.00000000E+00  1.00000000E+00  0.00000000E+00  0.00000000E+00
  0.00000000E+00  0.00000000E+00  1.00000000E+00  0.00000000E+00  0.00000000E+00
  0.00000000E+00  0.00000000E+00  1.00000000E+00  0.00000000E+00  0.00000000E+00
  0.00000000E+00  0.00000000E+00  1.00000000E+00  0.00000000E+00  0.00000000E+00
  0.00000000E+00  0.00000000E+00  1.00000000E+00  0.00000000E+00  0.00000000E+00
  0.00000000E+00  0.00000000E+00  0.00000000E+00  0.00000000E+00  0.00000000E+00
  0.00000000E+00  0.00000000E+00  0.00000000E+00  1.00000000E+00  1.00000000E+00
MxBond                                     I                4
NBond                                      I   N=          19
           2           1           3           3           3           3
           3           3           4           4           1           1
           1           1           1           1           1           1
           1
IBond                                      I   N=          76
           5           7           0           0           8           0
           0           0           8          10          16           0
           6           7           9           0           1           6
           8           0           4           5          11           0
           1           4          12           0           2           3
           5           0           4          13          14          15
           3          17          18          19           6           0
           0           0           7           0           0           0
           9           0           0           0           9           0
           0           0           9           0           0           0
           3           0           0           0          10           0
           0           0          10           0           0           0
          10           0           0           0
RBond                                      R   N=          76
  1.50000000E+00  1.50000000E+00  0.00000000E+00  0.00000000E+00  2.00000000E+00
  0.00000000E+00  0.00000000E+00  0.00000000E+00  1.00000000E+00  1.00000000E+00
  1.00000000E+00  0.00000000E+00  1.50000000E+00  1.50000000E+00  1.00000000E+00
  0.00000000E+00  1.50000000E+00  1.50000000E+00  1.50000000E+00  0.00000000E+00
  1.50000000E+00  1.50000000E+00  1.00000000E+00  0.00000000E+00  1.50000000E+00
  1.50000000E+00  1.00000000E+00  0.00000000E+00  2.00000000E+00  1.00000000E+00
  1.50000000E+00  0.00000000E+00  1.00000000E+00  1.00000000E+00  1.00000000E+00
  1.00000000E+00  1.00000000E+00  1.00000000E+00  1.00000000E+00  1.00000000E+00
  1.00000000E+00  0.00000000E+00  0.00000000E+00  0.00000000E+00  1.00000000E+00
  0.00000000E+00  0.00000000E+00  0.00000000E+00  1.00000000E+00  0.00000000E+00
  0.00000000E+00  0.00000000E+00  1.00000000E+00  0.00000000E+00  0.00000000E+00
  0.00000000E+00  1.00000000E+00  0.00000000E+00  0.00000000E+00  0.00000000E+00
  1.00000000E+00  0.00000000E+00  0.00000000E+00  0.00000000E+00  1.00000000E+00
  0.00000000E+00  0.00000000E+00  0.00000000E+00  1.00000000E+00  0.00000000E+00
  0.00000000E+00  0.00000000E+00  1.00000000E+00  0.00000000E+00  0.00000000E+00
  0.00000000E+00
Virial Ratio                               R      2.002655473388047E+00
SCF Energy                                 R     -4.744800337240700E+02
MP2 Energy                                 R     -4.758941231756808E+02
Total Energy                               R     -4.758941231756808E+02
Post-SCF wavefunction norm                 R      1.711182236396499E+00
RMS Force                                  R      3.622088289953811E-07
RMS Density                                R      1.953063681066017E-09
External E-field                           R   N=          35
  0.00000000E+00  0.00000000E+00  0.00000000E+00  0.00000000E+00  0.00000000E+00
  0.00000000E+00  0.00000000E+00  0.00000000E+00  0.00000000E+00  0.00000000E+00
  0.00000000E+00  0.00000000E+00  0.00000000E+00  0.00000000E+00  0.00000000E+00
  0.00000000E+00  0.00000000E+00  0.00000000E+00  0.00000000E+00  0.00000000E+00
  0.00000000E+00  0.00000000E+00  0.00000000E+00  0.00000000E+00  0.00000000E+00
  0.00000000E+00  0.00000000E+00  0.00000000E+00  0.00000000E+00  0.00000000E+00
  0.00000000E+00  0.00000000E+00  0.00000000E+00  0.00000000E+00  0.00000000E+00
IOpCl                                      I                0
IROHF                                      I                0
Alpha Orbital Energies                     R   N=         168
 -2.06425169E+01 -2.05178954E+01 -1.55875889E+01 -1.13580457E+01 -1.13018844E+01
 -1.12969106E+01 -1.12567309E+01 -1.12490584E+01 -1.12458412E+01 -1.12384517E+01
 -1.46583066E+00 -1.36416195E+00 -1.22470503E+00 -1.11020610E+00 -1.03830492E+00
 -9.71225775E-01 -9.38593117E-01 -8.36489180E-01 -7.93580902E-01 -7.68822727E-01
 -7.33736144E-01 -6.65042699E-01 -6.50600645E-01 -6.30963339E-01 -6.13304254E-01
 -5.94729400E-01 -5.86014712E-01 -5.78399807E-01 -5.75229239E-01 -5.48824039E-01
 -5.40699865E-01 -5.28591914E-01 -5.19208523E-01 -4.23650432E-01 -3.92973689E-01
 -3.81950595E-01 -3.19757016E-01  1.10561156E-01  2.09145762E-01  2.43103575E-01
  2.48047495E-01  2.71302797E-01  2.79661264E-01  2.95400497E-01  2.98585094E-01
  3.07800633E-01  3.26005685E-01  3.27284979E-01  3.46229207E-01  3.63098214E-01
  3.71855941E-01  3.88177264E-01  4.18904846E-01  4.90428634E-01  5.01979320E-01
  5.38567182E-01  5.84671603E-01  6.14472687E-01  6.64752127E-01  7.16905962E-01
  7.21597769E-01  7.33043599E-01  7.34866641E-01  7.58167354E-01  7.85320194E-01
  8.02355224E-01  8.29338353E-01  8.29827459E-01  8.41352475E-01  8.58252427E-01
  8.68436039E-01  8.87697838E-01  9.05976198E-01  9.55003422E-01  9.56502925E-01
  9.78321032E-01  9.87040909E-01  1.02587916E+00  1.03885752E+00  1.06332919E+00
  1.08204791E+00  1.09919749E+00  1.13758191E+00  1.14062084E+00  1.14543460E+00
  1.15430521E+00  1.16369276E+00  1.17175362E+00  1.21529086E+00  1.21706998E+00
  1.23885005E+00  1.25278678E+00  1.28445344E+00  1.30851277E+00  1.32903617E+00
  1.35207063E+00  1.35894446E+00  1.38271574E+00  1.44909909E+00  1.47705318E+00
  1.52509878E+00  1.54162526E+00  1.60358977E+00  1.62788225E+00  1.64220147E+00
  1.65847905E+00  1.67959477E+00  1.69231540E+00  1.71765245E+00  1.77357786E+00
  1.81460483E+00  1.82105793E+00  1.82681294E+00  1.90622462E+00  2.02648257E+00
  2.07003570E+00  2.07060379E+00  2.08492617E+00  2.12042443E+00  2.15057889E+00
  2.15576855E+00  2.19841534E+00  2.20681278E+00  2.24734564E+00  2.27755499E+00
  2.34511621E+00  2.36667009E+00  2.37068297E+00  2.39201449E+00  2.41246398E+00
  2.44893252E+00  2.46424254E+00  2.54031619E+00  2.54039132E+00  2.57791295E+00
  2.60522244E+00  2.60716691E+00  2.61752071E+00  2.65136174E+00  2.66454604E+00
  2.71317256E+00  2.74553156E+00  2.79036702E+00  2.85804390E+00  2.85942217E+00
  2.87868781E+00  2.92649596E+00  3.01071920E+00  3.04718148E+00  3.05846339E+00
  3.10374972E+00  3.23889548E+00  3.25453250E+00  3.32249845E+00  3.34898468E+00
  3.39775387E+00  3.59344878E+00  3.66022925E+00  4.37626892E+00  4.42852686E+00
  4.48143801E+00  4.57583788E+00  4.64703325E+00  4.67342999E+00  4.73057532E+00
  4.92089870E+00  5.02621775E+00  5.10713767E+00
Alpha MO coefficients                      R   N=       28224
  9.94656285E-01  2.11850140E-02 -7.95366126E-04  9.97434691E-04 -7.20411593E-09
  3.87217136E-03  6.16623238E-04 -6.57217234E-04  2.79311008E-09 -4.11917667E-03
 -4.08780514E-03 -3.94593388E-03 -4.14475920E-05  1.33084179E-09  1.88308998E-09
  1.02000249E-05  1.81290694E-05  7.72372169E-08 -6.28165053E-06 -5.09024460E-10
 -8.28715361E-05 -2.21571938E-06  3.45559813E-05  2.05755650E-09  5.36533485E-06
  1.45120200E-05  3.97776202E-06 -9.17965428E-06 -2.72922018E-10 -2.12740094E-11
 -5.38566866E-06 -4.23271485E-06 -2.99687378E-05  2.35493042E-05  5.81171329E-10
  9.76620525E-05  2.51070953E-04 -3.44430600E-04 -3.48317276E-09 -1.69929710E-05
 -3.71995355E-05 -4.78040967E-06  3.03964127E-05  1.12972322E-09 -3.85618982E-10
  6.78051239E-06  5.36871477E-05 -4.88522647E-05  3.79836348E-05 -1.17965349E-11
 -7.98463137E-04 -1.32171103E-04  5.46822559E-04 -1.98268098E-09 -2.32059480E-05
 -4.39167594E-05 -6.79352679E-06  4.97221468E-05 -2.70053539E-10 -2.37816280E-10