15361                                                                   
Freq      RMP2-FC                                                     6-31G(d)            
Number of atoms                            I               15
Info1-9                                    I   N=           9
          27          25        1002           0           0         100
           6           2           1
Charge                                     I                0
Multiplicity                               I                1
Number of electrons                        I              118
Number of alpha electrons                  I               59
Number of beta electrons                   I               59
Number of basis functions                  I              177
Number of independent functions            I              177
Number of point charges in /Mol/           I                0
Number of translation vectors              I                0
Atomic numbers                             I   N=          15
          35          35           6           6           6           6
           6           6           6           1           1           1
           1           1           1
Nuclear charges                            R   N=          15
  3.50000000E+01  3.50000000E+01  6.00000000E+00  6.00000000E+00  6.00000000E+00
  6.00000000E+00  6.00000000E+00  6.00000000E+00  6.00000000E+00  1.00000000E+00
  1.00000000E+00  1.00000000E+00  1.00000000E+00  1.00000000E+00  1.00000000E+00
Current cartesian coordinates              R   N=          45
  5.37191681E+00 -1.70199362E+00  1.93342278E-03 -5.37191692E+00 -1.70199343E+00
  1.93358734E-03  7.19694613E-07  4.06635089E+00 -3.11119093E-02 -2.28226405E+00
  2.72734781E+00 -1.93703273E-02  2.28226452E+00  2.72734670E+00 -1.93689954E-02
  4.36264831E-07  6.91294661E+00  2.58638573E-02  2.24955656E+00  9.35113199E-02
 -1.41151481E-03 -2.24955723E+00  9.35124109E-02 -1.41199327E-03 -5.34158973E-07
 -1.27771210E+00  9.77003914E-03 -4.07692916E+00  3.72668810E+00 -3.48196416E-02
  4.07693101E+00  3.72668463E+00 -3.48180554E-02  1.94357972E-05  7.61063123E+00
  1.97411355E+00  1.67385690E+00  7.67187630E+00 -9.17597256E-01 -1.67387477E+00
  7.67187529E+00 -9.17564558E-01 -2.06039476E-06 -3.32803067E+00  1.75856662E-02
Force Field                                I                0
Int Atom Types                             I   N=          15
           0           0           0           0           0           0
           0           0           0           0           0           0
           0           0           0
MM charges                                 R   N=          15
  0.00000000E+00  0.00000000E+00  0.00000000E+00  0.00000000E+00  0.00000000E+00
  0.00000000E+00  0.00000000E+00  0.00000000E+00  0.00000000E+00  0.00000000E+00
  0.00000000E+00  0.00000000E+00  0.00000000E+00  0.00000000E+00  0.00000000E+00
Integer atomic weights                     I   N=          15
          79          79          12          12          12          12
          12          12          12           1           1           1
           1           1           1
Real atomic weights                        R   N=          15
  7.89183361E+01  7.89183361E+01  1.20000000E+01  1.20000000E+01  1.20000000E+01
  1.20000000E+01  1.20000000E+01  1.20000000E+01  1.20000000E+01  1.00782504E+00
  1.00782504E+00  1.00782504E+00  1.00782504E+00  1.00782504E+00  1.00782504E+00
Atom fragment info                         I   N=          15
           0           0           0           0           0           0
           0           0           0           0           0           0
           0           0           0
Atom residue num                           I   N=          15
           0           0           0           0           0           0
           0           0           0           0           0           0
           0           0           0
Nuclear spins                              I   N=          15
           3           3           0           0           0           0
           0           0           0           1           1           1
           1           1           1
Nuclear ZEff                               R   N=          15
 -2.45000000E+01 -2.45000000E+01 -3.60000000E+00 -3.60000000E+00 -3.60000000E+00
 -3.60000000E+00 -3.60000000E+00 -3.60000000E+00 -3.60000000E+00 -1.00000000E+00
 -1.00000000E+00 -1.00000000E+00 -1.00000000E+00 -1.00000000E+00 -1.00000000E+00
Nuclear QMom                               R   N=          15
  3.13000000E+01  3.13000000E+01  0.00000000E+00  0.00000000E+00  0.00000000E+00
  0.00000000E+00  0.00000000E+00  0.00000000E+00  0.00000000E+00  0.00000000E+00
  0.00000000E+00  0.00000000E+00  0.00000000E+00  0.00000000E+00  0.00000000E+00
Nuclear GFac                               R   N=          15
  2.10639900E+00  2.10639900E+00  0.00000000E+00  0.00000000E+00  0.00000000E+00
  0.00000000E+00  0.00000000E+00  0.00000000E+00  0.00000000E+00  2.79284600E+00
  2.79284600E+00  2.79284600E+00  2.79284600E+00  2.79284600E+00  2.79284600E+00
MicOpt                                     I   N=          15
          -1          -1          -1          -1          -1          -1
          -1          -1          -1          -1          -1          -1
          -1          -1          -1
Number of contracted shells                I               64
Number of primitive shells                 I              163
Pure/Cartesian d shells                    I                1
Pure/Cartesian f shells                    I                0
Highest angular momentum                   I                2
Largest degree of contraction              I                8
Shell types                                I   N=          64
           0           0           0           0           0           0
           1           1           1           1           2           2
           0           0           0           0           0           0
           1           1           1           1           2           2
           0          -1          -1           2           0          -1
          -1           2           0          -1          -1           2
           0          -1          -1           2           0          -1
          -1           2           0          -1          -1           2
           0          -1          -1           2           0           0
           0           0           0           0           0           0
           0           0           0           0
Number of primitives per shell             I   N=          64
           8           2           1           1           1           1
           6           3           1           1           5           1
           8           2           1           1           1           1
           6           3           1           1           5           1
           6           3           1           1           6           3
           1           1           6           3           1           1
           6           3           1           1           6           3
           1           1           6           3           1           1
           6           3           1           1           3           1
           3           1           3           1           3           1
           3           1           3           1
Shell to atom map                          I   N=          64
           1           1           1           1           1           1
           1           1           1           1           1           1
           2           2           2           2           2           2
           2           2           2           2           2           2
           3           3           3           3           4           4
           4           4           5           5           5           5
           6           6           6           6           7           7
           7           7           8           8           8           8
           9           9           9           9          10          10
          11          11          12          12          13          13
          14          14          15          15
Primitive exponents                        R   N=         163
  5.74300000E+05  8.90700000E+04  2.02100000E+04  5.73600000E+03  1.89900000E+03
  6.98700000E+02  2.77800000E+02  1.15200000E+02  3.59700000E+01  1.55000000E+01
  4.77100000E+00  2.07700000E+00  4.21100000E-01  1.61000000E-01  4.40600000E+03
  1.04200000E+03  3.32100000E+02  1.21900000E+02  4.92400000E+01  2.11600000E+01
  8.83600000E+00  3.82900000E+00  1.64300000E+00  4.65000000E-01  1.42700000E-01
  1.08400000E+02  3.07100000E+01  1.06600000E+01  3.85100000E+00  1.31700000E+00
  3.38000000E-01  5.74300000E+05  8.90700000E+04  2.02100000E+04  5.73600000E+03
  1.89900000E+03  6.98700000E+02  2.77800000E+02  1.15200000E+02  3.59700000E+01
  1.55000000E+01  4.77100000E+00  2.07700000E+00  4.21100000E-01  1.61000000E-01
  4.40600000E+03  1.04200000E+03  3.32100000E+02  1.21900000E+02  4.92400000E+01
  2.11600000E+01  8.83600000E+00  3.82900000E+00  1.64300000E+00  4.65000000E-01
  1.42700000E-01  1.08400000E+02  3.07100000E+01  1.06600000E+01  3.85100000E+00
  1.31700000E+00  3.38000000E-01  3.04752488E+03  4.57369518E+02  1.03948685E+02
  2.92101553E+01  9.28666296E+00  3.16392696E+00  7.86827235E+00  1.88128854E+00
  5.44249258E-01  1.68714478E-01  8.00000000E-01  3.04752488E+03  4.57369518E+02
  1.03948685E+02  2.92101553E+01  9.28666296E+00  3.16392696E+00  7.86827235E+00
  1.88128854E+00  5.44249258E-01  1.68714478E-01  8.00000000E-01  3.04752488E+03
  4.57369518E+02  1.03948685E+02  2.92101553E+01  9.28666296E+00  3.16392696E+00
  7.86827235E+00  1.88128854E+00  5.44249258E-01  1.68714478E-01  8.00000000E-01
  3.04752488E+03  4.57369518E+02  1.03948685E+02  2.92101553E+01  9.28666296E+00
  3.16392696E+00  7.86827235E+00  1.88128854E+00  5.44249258E-01  1.68714478E-01
  8.00000000E-01  3.04752488E+03  4.57369518E+02  1.03948685E+02  2.92101553E+01
  9.28666296E+00  3.16392696E+00  7.86827235E+00  1.88128854E+00  5.44249258E-01
  1.68714478E-01  8.00000000E-01  3.04752488E+03  4.57369518E+02  1.03948685E+02
  2.92101553E+01  9.28666296E+00  3.16392696E+00  7.86827235E+00  1.88128854E+00
  5.44249258E-01  1.68714478E-01  8.00000000E-01  3.04752488E+03  4.57369518E+02
  1.03948685E+02  2.92101553E+01  9.28666296E+00  3.16392696E+00  7.86827235E+00
  1.88128854E+00  5.44249258E-01  1.68714478E-01  8.00000000E-01  1.87311370E+01
  2.82539436E+00  6.40121692E-01  1.61277759E-01  1.87311370E+01  2.82539436E+00
  6.40121692E-01  1.61277759E-01  1.87311370E+01  2.82539436E+00  6.40121692E-01
  1.61277759E-01  1.87311370E+01  2.82539436E+00  6.40121692E-01  1.61277759E-01
  1.87311370E+01  2.82539436E+00  6.40121692E-01  1.61277759E-01  1.87311370E+01
  2.82539436E+00  6.40121692E-01  1.61277759E-01
Contraction coefficients                   R   N=         163
  2.10682753E-04  1.61271721E-03  8.36010959E-03  3.40275588E-02  1.08515001E-01
  2.67396944E-01  4.29567221E-01  2.86993117E-01  2.77772914E-01  7.47057636E-01
  1.00000000E+00  1.00000000E+00  1.00000000E+00  1.00000000E+00  1.39552623E-03
  1.23748283E-02  6.10175241E-02  2.26775547E-01  4.05975875E-01  4.50692322E-01
  2.92018585E-01  5.30220862E-01  2.75287404E-01  1.00000000E+00  1.00000000E+00
  2.15879371E-02  1.34176036E-01  3.67870647E-01  4.91895206E-01  2.68321979E-01
  1.00000000E+00  2.10682753E-04  1.61271721E-03  8.36010959E-03  3.40275588E-02
  1.08515001E-01  2.67396944E-01  4.29567221E-01  2.86993117E-01  2.77772914E-01
  7.47057636E-01  1.00000000E+00  1.00000000E+00  1.00000000E+00  1.00000000E+00
  1.39552623E-03  1.23748283E-02  6.10175241E-02  2.26775547E-01  4.05975875E-01
  4.50692322E-01  2.92018585E-01  5.30220862E-01  2.75287404E-01  1.00000000E+00
  1.00000000E+00  2.15879371E-02  1.34176036E-01  3.67870647E-01  4.91895206E-01
  2.68321979E-01  1.00000000E+00  1.83473713E-03  1.40373228E-02  6.88426223E-02
  2.32184443E-01  4.67941348E-01  3.62311985E-01 -1.19332420E-01 -1.60854152E-01
  1.14345644E+00  1.00000000E+00  1.00000000E+00  1.83473713E-03  1.40373228E-02
  6.88426223E-02  2.32184443E-01  4.67941348E-01  3.62311985E-01 -1.19332420E-01
 -1.60854152E-01  1.14345644E+00  1.00000000E+00  1.00000000E+00  1.83473713E-03
  1.40373228E-02  6.88426223E-02  2.32184443E-01  4.67941348E-01  3.62311985E-01
 -1.19332420E-01 -1.60854152E-01  1.14345644E+00  1.00000000E+00  1.00000000E+00
  1.83473713E-03  1.40373228E-02  6.88426223E-02  2.32184443E-01  4.67941348E-01
  3.62311985E-01 -1.19332420E-01 -1.60854152E-01  1.14345644E+00  1.00000000E+00
  1.00000000E+00  1.83473713E-03  1.40373228E-02  6.88426223E-02  2.32184443E-01
  4.67941348E-01  3.62311985E-01 -1.19332420E-01 -1.60854152E-01  1.14345644E+00
  1.00000000E+00  1.00000000E+00  1.83473713E-03  1.40373228E-02  6.88426223E-02
  2.32184443E-01  4.67941348E-01  3.62311985E-01 -1.19332420E-01 -1.60854152E-01
  1.14345644E+00  1.00000000E+00  1.00000000E+00  1.83473713E-03  1.40373228E-02
  6.88426223E-02  2.32184443E-01  4.67941348E-01  3.62311985E-01 -1.19332420E-01
 -1.60854152E-01  1.14345644E+00  1.00000000E+00  1.00000000E+00  3.34946043E-02
  2.34726953E-01  8.13757326E-01  1.00000000E+00  3.34946043E-02  2.34726953E-01
  8.13757326E-01  1.00000000E+00  3.34946043E-02  2.34726953E-01  8.13757326E-01
  1.00000000E+00  3.34946043E-02  2.34726953E-01  8.13757326E-01  1.00000000E+00
  3.34946043E-02  2.34726953E-01  8.13757326E-01  1.00000000E+00  3.34946043E-02
  2.34726953E-01  8.13757326E-01  1.00000000E+00
P(S=P) Contraction coefficients            R   N=         163
  0.00000000E+00  0.00000000E+00  0.00000000E+00  0.00000000E+00  0.00000000E+00
  0.00000000E+00  0.00000000E+00  0.00000000E+00  0.00000000E+00  0.00000000E+00
  0.00000000E+00  0.00000000E+00  0.00000000E+00  0.00000000E+00  0.00000000E+00
  0.00000000E+00  0.00000000E+00  0.00000000E+00  0.00000000E+00  0.00000000E+00
  0.00000000E+00  0.00000000E+00  0.00000000E+00  0.00000000E+00  0.00000000E+00
  0.00000000E+00  0.00000000E+00  0.00000000E+00  0.00000000E+00  0.00000000E+00
  0.00000000E+00  0.00000000E+00  0.00000000E+00  0.00000000E+00  0.00000000E+00
  0.00000000E+00  0.00000000E+00  0.00000000E+00  0.00000000E+00  0.00000000E+00
  0.00000000E+00  0.00000000E+00  0.00000000E+00  0.00000000E+00  0.00000000E+00
  0.00000000E+00  0.00000000E+00  0.00000000E+00  0.00000000E+00  0.00000000E+00
  0.00000000E+00  0.00000000E+00  0.00000000E+00  0.00000000E+00  0.00000000E+00
  0.00000000E+00  0.00000000E+00  0.00000000E+00  0.00000000E+00  0.00000000E+00
  0.00000000E+00  0.00000000E+00  0.00000000E+00  0.00000000E+00  0.00000000E+00
  0.00000000E+00  0.00000000E+00  0.00000000E+00  6.89990666E-02  3.16423961E-01
  7.44308291E-01  1.00000000E+00  0.00000000E+00  0.00000000E+00  0.00000000E+00
  0.00000000E+00  0.00000000E+00  0.00000000E+00  0.00000000E+00  6.89990666E-02
  3.16423961E-01  7.44308291E-01  1.00000000E+00  0.00000000E+00  0.00000000E+00
  0.00000000E+00  0.00000000E+00  0.00000000E+00  0.00000000E+00  0.00000000E+00
  6.89990666E-02  3.16423961E-01  7.44308291E-01  1.00000000E+00  0.00000000E+00
  0.00000000E+00  0.00000000E+00  0.00000000E+00  0.00000000E+00  0.00000000E+00
  0.00000000E+00  6.89990666E-02  3.16423961E-01  7.44308291E-01  1.00000000E+00
  0.00000000E+00  0.00000000E+00  0.00000000E+00  0.00000000E+00  0.00000000E+00
  0.00000000E+00  0.00000000E+00  6.89990666E-02  3.16423961E-01  7.44308291E-01
  1.00000000E+00  0.00000000E+00  0.00000000E+00  0.00000000E+00  0.00000000E+00
  0.00000000E+00  0.00000000E+00  0.00000000E+00  6.89990666E-02  3.16423961E-01
  7.44308291E-01  1.00000000E+00  0.00000000E+00  0.00000000E+00  0.00000000E+00
  0.00000000E+00  0.00000000E+00  0.00000000E+00  0.00000000E+00  6.89990666E-02
  3.16423961E-01  7.44308291E-01  1.00000000E+00  0.00000000E+00  0.00000000E+00
  0.00000000E+00  0.00000000E+00  0.00000000E+00  0.00000000E+00  0.00000000E+00
  0.00000000E+00  0.00000000E+00  0.00000000E+00  0.00000000E+00  0.00000000E+00
  0.00000000E+00  0.00000000E+00  0.00000000E+00  0.00000000E+00  0.00000000E+00
  0.00000000E+00  0.00000000E+00  0.00000000E+00  0.00000000E+00  0.00000000E+00
  0.00000000E+00  0.00000000E+00  0.00000000E+00
Coordinates of each shell                  R   N=         192
  5.37191681E+00 -1.70199362E+00  1.93342278E-03  5.37191681E+00 -1.70199362E+00
  1.93342278E-03  5.37191681E+00 -1.70199362E+00  1.93342278E-03  5.37191681E+00
 -1.70199362E+00  1.93342278E-03  5.37191681E+00 -1.70199362E+00  1.93342278E-03
  5.37191681E+00 -1.70199362E+00  1.93342278E-03  5.37191681E+00 -1.70199362E+00
  1.93342278E-03  5.37191681E+00 -1.70199362E+00  1.93342278E-03  5.37191681E+00
 -1.70199362E+00  1.93342278E-03  5.37191681E+00 -1.70199362E+00  1.93342278E-03
  5.37191681E+00 -1.70199362E+00  1.93342278E-03  5.37191681E+00 -1.70199362E+00
  1.93342278E-03 -5.37191692E+00 -1.70199343E+00  1.93358734E-03 -5.37191692E+00
 -1.70199343E+00  1.93358734E-03 -5.37191692E+00 -1.70199343E+00  1.93358734E-03
 -5.37191692E+00 -1.70199343E+00  1.93358734E-03 -5.37191692E+00 -1.70199343E+00
  1.93358734E-03 -5.37191692E+00 -1.70199343E+00  1.93358734E-03 -5.37191692E+00
 -1.70199343E+00  1.93358734E-03 -5.37191692E+00 -1.70199343E+00  1.93358734E-03
 -5.37191692E+00 -1.70199343E+00  1.93358734E-03 -5.37191692E+00 -1.70199343E+00
  1.93358734E-03 -5.37191692E+00 -1.70199343E+00  1.93358734E-03 -5.37191692E+00
 -1.70199343E+00  1.93358734E-03  7.19694613E-07  4.06635089E+00 -3.11119093E-02
  7.19694613E-07  4.06635089E+00 -3.11119093E-02  7.19694613E-07  4.06635089E+00
 -3.11119093E-02  7.19694613E-07  4.06635089E+00 -3.11119093E-02 -2.28226405E+00
  2.72734781E+00 -1.93703273E-02 -2.28226405E+00  2.72734781E+00 -1.93703273E-02
 -2.28226405E+00  2.72734781E+00 -1.93703273E-02 -2.28226405E+00  2.72734781E+00
 -1.93703273E-02  2.28226452E+00  2.72734670E+00 -1.93689954E-02  2.28226452E+00
  2.72734670E+00 -1.93689954E-02  2.28226452E+00  2.72734670E+00 -1.93689954E-02
  2.28226452E+00  2.72734670E+00 -1.93689954E-02  4.36264831E-07  6.91294661E+00
  2.58638573E-02  4.36264831E-07  6.91294661E+00  2.58638573E-02  4.36264831E-07
  6.91294661E+00  2.58638573E-02  4.36264831E-07  6.91294661E+00  2.58638573E-02
  2.24955656E+00  9.35113199E-02 -1.41151481E-03  2.24955656E+00  9.35113199E-02
 -1.41151481E-03  2.24955656E+00  9.35113199E-02 -1.41151481E-03  2.24955656E+00
  9.35113199E-02 -1.41151481E-03 -2.24955723E+00  9.35124109E-02 -1.41199327E-03
 -2.24955723E+00  9.35124109E-02 -1.41199327E-03 -2.24955723E+00  9.35124109E-02
 -1.41199327E-03 -2.24955723E+00  9.35124109E-02 -1.41199327E-03 -5.34158973E-07
 -1.27771210E+00  9.77003914E-03 -5.34158973E-07 -1.27771210E+00  9.77003914E-03
 -5.34158973E-07 -1.27771210E+00  9.77003914E-03 -5.34158973E-07 -1.27771210E+00
  9.77003914E-03 -4.07692916E+00  3.72668810E+00 -3.48196416E-02 -4.07692916E+00
  3.72668810E+00 -3.48196416E-02  4.07693101E+00  3.72668463E+00 -3.48180554E-02
  4.07693101E+00  3.72668463E+00 -3.48180554E-02  1.94357972E-05  7.61063123E+00
  1.97411355E+00  1.94357972E-05  7.61063123E+00  1.97411355E+00  1.67385690E+00
  7.67187630E+00 -9.17597256E-01  1.67385690E+00  7.67187630E+00 -9.17597256E-01
 -1.67387477E+00  7.67187529E+00 -9.17564558E-01 -1.67387477E+00  7.67187529E+00
 -9.17564558E-01 -2.06039476E-06 -3.32803067E+00  1.75856662E-02 -2.06039476E-06
 -3.32803067E+00  1.75856662E-02
Constraint Structure                       R   N=          45
  5.37191681E+00 -1.70199362E+00  1.93342278E-03 -5.37191692E+00 -1.70199343E+00
  1.93358734E-03  7.19694613E-07  4.06635089E+00 -3.11119093E-02 -2.28226405E+00
  2.72734781E+00 -1.93703273E-02  2.28226452E+00  2.72734670E+00 -1.93689954E-02
  4.36264831E-07  6.91294661E+00  2.58638573E-02  2.24955656E+00  9.35113199E-02
 -1.41151481E-03 -2.24955723E+00  9.35124109E-02 -1.41199327E-03 -5.34158973E-07
 -1.27771210E+00  9.77003914E-03 -4.07692916E+00  3.72668810E+00 -3.48196416E-02
  4.07693101E+00  3.72668463E+00 -3.48180554E-02  1.94357972E-05  7.61063123E+00
  1.97411355E+00  1.67385690E+00  7.67187630E+00 -9.17597256E-01 -1.67387477E+00
  7.67187529E+00 -9.17564558E-01 -2.06039476E-06 -3.32803067E+00  1.75856662E-02
Num ILSW                                   I              100
ILSW                                       I   N=         100
           0           1           0           0           2           0
           0           0           0           0           0          -1
           0           0           0           0           0           0
           0           0           0           0           1           0
           1           0           0           0           0           0
           0           0      100000           0          -1           0
           0           0           0           0           0           0
           0           0           0           1           1           0
           0           0           1           0           0           0
           0           0           4          40           0           0
           0           0           0           0           0           0
           0           0           0           0           0           0
           0           0           0           0           0           0
           0           0           0           0           0           0
           0           0           0           0           0           0
           0           0           0           0           0           0
           0           0           0           0
Num RLSW                                   I               40
RLSW                                       R   N=          40
  1.00000000E+00  1.00000000E+00  1.00000000E+00  1.00000000E+00  1.00000000E+00
  0.00000000E+00  0.00000000E+00  1.00000000E+00  0.00000000E+00  0.00000000E+00
  0.00000000E+00  0.00000000E+00  1.00000000E+00  0.00000000E+00  0.00000000E+00
  0.00000000E+00  0.00000000E+00  1.00000000E+00  0.00000000E+00  0.00000000E+00
  0.00000000E+00  0.00000000E+00  1.00000000E+00  0.00000000E+00  0.00000000E+00
  0.00000000E+00  0.00000000E+00  1.00000000E+00  0.00000000E+00  0.00000000E+00
  0.00000000E+00  0.00000000E+00  0.00000000E+00  0.00000000E+00  0.00000000E+00
  0.00000000E+00  0.00000000E+00  0.00000000E+00  1.00000000E+00  1.00000000E+00
MxBond                                     I                4
NBond                                      I   N=          15
           1           1           3           3           3           4
           3           3           3           1           1           1
           1           1           1
IBond                                      I   N=          60
           7           0           0           0           8           0
           0           0           4           5           6           0
           3           8          10           0           3           7
          11           0           3          12          13          14
           1           5           9           0           2           4
           9           0           7           8          15           0
           4           0           0           0           5           0
           0           0           6           0           0           0
           6           0           0           0           6           0
           0           0           9           0           0           0
RBond                                      R   N=          60
  1.00000000E+00  0.00000000E+00  0.00000000E+00  0.00000000E+00  1.00000000E+00
  0.00000000E+00  0.00000000E+00  0.00000000E+00  1.50000000E+00  1.50000000E+00
  1.00000000E+00  0.00000000E+00  1.50000000E+00  1.50000000E+00  1.00000000E+00
  0.00000000E+00  1.50000000E+00  1.50000000E+00  1.00000000E+00  0.00000000E+00
  1.00000000E+00  1.00000000E+00  1.00000000E+00  1.00000000E+00  1.00000000E+00
  1.50000000E+00  1.50000000E+00  0.00000000E+00  1.00000000E+00  1.50000000E+00
  1.50000000E+00  0.00000000E+00  1.50000000E+00  1.50000000E+00  1.00000000E+00
  0.00000000E+00  1.00000000E+00  0.00000000E+00  0.00000000E+00  0.00000000E+00
  1.00000000E+00  0.00000000E+00  0.00000000E+00  0.00000000E+00  1.00000000E+00
  0.00000000E+00  0.00000000E+00  0.00000000E+00  1.00000000E+00  0.00000000E+00
  0.00000000E+00  0.00000000E+00  1.00000000E+00  0.00000000E+00  0.00000000E+00
  0.00000000E+00  1.00000000E+00  0.00000000E+00  0.00000000E+00  0.00000000E+00
Virial Ratio                               R      2.004397461483653E+00
SCF Energy                                 R     -5.408351860737877E+03
MP2 Energy                                 R     -5.409473783423038E+03
Total Energy                               R     -5.409473783423038E+03
Post-SCF wavefunction norm                 R      1.696219749369509E+00
RMS Force                                  R      5.386981453736453E-07
RMS Density                                R      2.308468942800008E-10
External E-field                           R   N=          35
  0.00000000E+00  0.00000000E+00  0.00000000E+00  0.00000000E+00  0.00000000E+00
  0.00000000E+00  0.00000000E+00  0.00000000E+00  0.00000000E+00  0.00000000E+00
  0.00000000E+00  0.00000000E+00  0.00000000E+00  0.00000000E+00  0.00000000E+00
  0.00000000E+00  0.00000000E+00  0.00000000E+00  0.00000000E+00  0.00000000E+00
  0.00000000E+00  0.00000000E+00  0.00000000E+00  0.00000000E+00  0.00000000E+00
  0.00000000E+00  0.00000000E+00  0.00000000E+00  0.00000000E+00  0.00000000E+00
  0.00000000E+00  0.00000000E+00  0.00000000E+00  0.00000000E+00  0.00000000E+00
IOpCl                                      I                0
IROHF                                      I                0
Alpha Orbital Energies                     R   N=         177
 -4.90071901E+02 -4.90071893E+02 -6.44834244E+01 -6.44833567E+01 -5.86228755E+01
 -5.86228654E+01 -5.86210772E+01 -5.86209501E+01 -5.86209056E+01 -5.86209005E+01
 -1.13156321E+01 -1.13156197E+01 -1.12721789E+01 -1.12663404E+01 -1.12603609E+01
 -1.12602983E+01 -1.12429121E+01 -9.73164720E+00 -9.73162708E+00 -7.48091373E+00
 -7.48091372E+00 -7.47200334E+00 -7.47200101E+00 -7.47199448E+00 -7.47199435E+00
 -3.21985378E+00 -3.21985252E+00 -3.21555198E+00 -3.21555170E+00 -3.21553765E+00
 -3.21553696E+00 -3.20519647E+00 -3.20519639E+00 -3.20519034E+00 -3.20519033E+00
 -1.19292133E+00 -1.08995306E+00 -1.08561270E+00 -9.95871037E-01 -9.70567535E-01
 -9.57916979E-01 -8.12736209E-01 -8.11070606E-01 -7.07057008E-01 -6.74885572E-01
 -6.02156364E-01 -5.96246514E-01 -5.85991096E-01 -5.81062086E-01 -5.59263243E-01
 -5.38591640E-01 -5.08335913E-01 -4.88925611E-01 -4.62555516E-01 -4.21434806E-01
 -4.18204530E-01 -4.15182339E-01 -3.42087049E-01 -3.35853998E-01  1.10826497E-01
  1.15267911E-01  1.39659789E-01  1.90712987E-01  2.35974881E-01  2.78005819E-01
  2.91150916E-01  2.96624029E-01  3.04995751E-01  3.19813154E-01  3.52322755E-01
  3.63914036E-01  3.76328218E-01  4.22693431E-01  4.49726052E-01  4.70677116E-01
  4.89355506E-01  4.90134069E-01  5.35558084E-01  6.24830764E-01  6.25123734E-01
  6.44091945E-01  6.45701258E-01  6.48067372E-01  6.55039622E-01  6.60488809E-01
  6.66872431E-01  6.77371984E-01  6.99153752E-01  7.02249656E-01  7.02429728E-01
  7.05301472E-01  7.36365828E-01  7.43238626E-01  7.52630550E-01  7.74362080E-01
  7.87315006E-01  7.93890497E-01  8.51964654E-01  8.74733571E-01  8.74896922E-01
  9.20231232E-01  9.52027514E-01  9.56894414E-01  9.82308347E-01  9.85682945E-01
  9.99640745E-01  1.01863419E+00  1.03198199E+00  1.04290957E+00  1.05077965E+00
  1.10318471E+00  1.11023729E+00  1.12725070E+00  1.14041173E+00  1.15721687E+00
  1.17533827E+00  1.21383597E+00  1.24857702E+00  1.29168607E+00  1.32911378E+00
  1.35666978E+00  1.40872028E+00  1.45295074E+00  1.46198191E+00  1.47985308E+00
  1.53162519E+00  1.60266240E+00  1.63885650E+00  1.66369086E+00  1.72098283E+00
  1.73609294E+00  1.73970155E+00  1.78490943E+00  1.84173396E+00  1.84504216E+00
  1.85369011E+00  2.02918945E+00  2.09140735E+00  2.11324072E+00  2.15741573E+00
  2.17839272E+00  2.18272229E+00  2.22897561E+00  2.23416950E+00  2.35035314E+00
  2.38503233E+00  2.41802267E+00  2.42277529E+00  2.45598841E+00  2.48143911E+00
  2.56480851E+00  2.56740124E+00  2.60370770E+00  2.64869683E+00  2.67423431E+00
  2.73112634E+00  2.83900022E+00  2.92074484E+00  2.96741063E+00  3.04048317E+00
  3.04740516E+00  3.10188911E+00  3.14439044E+00  3.19955363E+00  3.40408278E+00
  3.70298867E+00  4.47355736E+00  4.49387527E+00  4.51637251E+00  4.63820509E+00
  4.71712693E+00  4.78679390E+00  5.08536975E+00  9.27041739E+00  9.27510426E+00
  7.44330611E+01  7.45318903E+01
Alpha MO coefficients                      R   N=       31329
  7.03566986E-01  2.32038871E-02 -3.12985671E-02 -3.36822459E-02 -1.85311562E-02
 -1.38183621E-02 -1.27848642E-05  7.47331014E-06 -2.35220040E-08  3.65388663E-05
 -2.14623938E-05  7.56036239E-08 -1.58298250E-04  9.30862205E-05 -3.37344278E-07
  3.70887182E-04 -1.83421679E-04  4.21289594E-07  3.11559865E-02  3.11533516E-02
  3.11454009E-02 -1.95911512E-07 -2.27892606E-08 -6.04602323E-08  7.69335541E-03
  7.73630000E-03  7.78606546E-03  9.47647810E-06  1.85797823E-07  3.50432846E-07
  7.03490771E-01  2.32013748E-02 -3.12951808E-02 -3.36786029E-02 -1.85291464E-02
 -1.38168949E-02  1.27832774E-05  7.47241056E-06 -2.35235949E-08 -3.65341599E-05
 -2.14597284E-05  7.56073870E-08  1.58277320E-04  9.30743616E-05 -3.37355329E-07
 -3.70862115E-04 -1.83403877E-04  4.21261299E-07  3.11526170E-02  3.11499816E-02
  3.11420322E-02  1.96133047E-07  2.27896319E-08 -6.04522750E-08  7.69251807E-03
  7.73546870E-03  7.78522619E-03 -9.47879000E-06 -1.85809173E-07  3.50371203E-07
 -1.50308865E-06 -1.93890719E-05  2.96751451E-10 -5.38794623E-05  8.72968973E-08
  7.72114841E-04  3.53206006E-08  3.38062315E-04  3.08772918E-06 -1.50769540E-05