
    -----------------------------------------------------------------------
          Psi4: An Open-Source Ab Initio Electronic Structure Package
                               Psi4 1.3.2 release

                         Git: Rev {HEAD} ecbda83 


    R. M. Parrish, L. A. Burns, D. G. A. Smith, A. C. Simmonett,
    A. E. DePrince III, E. G. Hohenstein, U. Bozkaya, A. Yu. Sokolov,
    R. Di Remigio, R. M. Richard, J. F. Gonthier, A. M. James,
    H. R. McAlexander, A. Kumar, M. Saitow, X. Wang, B. P. Pritchard,
    P. Verma, H. F. Schaefer III, K. Patkowski, R. A. King, E. F. Valeev,
    F. A. Evangelista, J. M. Turney, T. D. Crawford, and C. D. Sherrill,
    J. Chem. Theory Comput. 13(7) pp 3185--3197 (2017).
    (doi: 10.1021/acs.jctc.7b00174)


                         Additional Contributions by
    P. Kraus, H. Kruse, M. H. Lechner, M. C. Schieber, R. A. Shaw,
    A. Alenaizan, R. Galvelis, Z. L. Glick, S. Lehtola, and J. P. Misiewicz

    -----------------------------------------------------------------------


    Psi4 started on: Friday, 26 February 2021 04:30PM

    Process ID: 83214
    Host:       node142.bme.utexas.edu
    PSIDATADIR: /home/xy3866/psi4conda/share/psi4
    Memory:     500.0 MiB
    Threads:    8
    
  ==> Input File <==

--------------------------------------------------------------------------
#psi4
#
memory 32 gb

molecule  {
0 1
  O        0.6578240    -1.4038190    -0.0084800
  O       -1.9400820     1.1224280     0.2266150
  O       -1.5482610    -1.4485240    -0.4053400
  C        0.3934500     1.4379940    -0.3488290
  C        1.8080496     0.8248829    -0.4162818
  C       -0.6401280     0.6164470     0.4297460
  C        1.7409690    -0.5516630     0.4430470
  C       -0.5671300    -0.8317210    -0.0237270
  H        0.4383430     2.4405150     0.0852910
  H        0.0022100     1.5496010    -1.3639530
  H        2.0656470     0.4995800    -1.3827820
  H        2.5523030     1.3896650     0.0543080
  H       -0.3983570     0.6446350     1.5043810
  H        2.6396080    -1.1506800     0.2905800
  H        1.6294670    -0.3677470     1.5171870
  H       -2.4737670     0.3533780    -0.0616490
units angstrom
no_reorient  #important for SAPT in psi4, default
symmetry c1  #important for SAPT in psi4, default
}

set PROPERTIES_ORIGIN ["COM"]
properties('MP2/aug-cc-pvtz', properties = ['dipole'])
--------------------------------------------------------------------------

  Memory set to  29.802 GiB by Python driver.
    SCF Algorithm Type (re)set to DF.

*** tstart() called on node142.bme.utexas.edu
*** at Fri Feb 26 16:30:49 2021

   => Loading Basis Set <=

    Name: AUG-CC-PVTZ
    Role: ORBITAL
    Keyword: BASIS
    atoms 1-3  entry O          line   327 file /home/xy3866/psi4conda/share/psi4/basis/aug-cc-pvtz.gbs 
    atoms 4-8  entry C          line   235 file /home/xy3866/psi4conda/share/psi4/basis/aug-cc-pvtz.gbs 
    atoms 9-16 entry H          line    36 file /home/xy3866/psi4conda/share/psi4/basis/aug-cc-pvtz.gbs 


         ---------------------------------------------------------
                                   SCF
               by Justin Turney, Rob Parrish, Andy Simmonett
                          and Daniel G. A. Smith
                              RHF Reference
                        8 Threads,  30517 MiB Core
         ---------------------------------------------------------

  ==> Geometry <==

    Molecular point group: c1
    Full point group: C1

    Geometry (in Angstrom), charge = 0, multiplicity = 1:

       Center              X                  Y                   Z               Mass       
    ------------   -----------------  -----------------  -----------------  -----------------
         O            0.709056662356    -1.366612780211     0.003053812043    15.994914619570
         O           -1.888849337644     1.159634219789     0.238148812043    15.994914619570
         O           -1.497028337644    -1.411317780211    -0.393806187957    15.994914619570
         C            0.444682662356     1.475200219789    -0.337295187957    12.000000000000
         C            1.859282262356     0.862089119789    -0.404747987957    12.000000000000
         C           -0.588895337644     0.653653219789     0.441279812043    12.000000000000
         C            1.792201662356    -0.514456780211     0.454580812043    12.000000000000
         C           -0.515897337644    -0.794514780211    -0.012193187957    12.000000000000
         H            0.489575662356     2.477721219789     0.096824812043     1.007825032230
         H            0.053442662356     1.586807219789    -1.352419187957     1.007825032230
         H            2.116879662356     0.536786219789    -1.371248187957     1.007825032230
         H            2.603535662356     1.426871219789     0.065841812043     1.007825032230
         H           -0.347124337644     0.681841219789     1.515914812043     1.007825032230
         H            2.690840662356    -1.113473780211     0.302113812043     1.007825032230
         H            1.680699662356    -0.330540780211     1.528720812043     1.007825032230
         H           -2.422534337644     0.390584219789    -0.050115187957     1.007825032230

  Running in c1 symmetry.

  Rotational constants: A =      0.10081  B =      0.07067  C =      0.04610 [cm^-1]
  Rotational constants: A =   3022.08482  B =   2118.68879  C =   1381.90436 [MHz]
  Nuclear repulsion =  400.005260570874157

  Charge       = 0
  Multiplicity = 1
  Electrons    = 62
  Nalpha       = 31
  Nbeta        = 31

  ==> Algorithm <==

  SCF Algorithm Type is DF.
  DIIS enabled.
  MOM disabled.
  Fractional occupation disabled.
  Guess Type is SAD.
  Energy threshold   = 1.00e-10
  Density threshold  = 1.00e-10
  Integral threshold = 0.00e+00

  ==> Primary Basis <==

  Basis Set: AUG-CC-PVTZ
    Blend: AUG-CC-PVTZ
    Number of shells: 184
    Number of basis function: 552
    Number of Cartesian functions: 640
    Spherical Harmonics?: true
    Max angular momentum: 3

   => Loading Basis Set <=

    Name: (AUG-CC-PVTZ AUX)
    Role: JKFIT
    Keyword: DF_BASIS_SCF
    atoms 1-3  entry O          line   286 file /home/xy3866/psi4conda/share/psi4/basis/aug-cc-pvtz-jkfit.gbs 
    atoms 4-8  entry C          line   162 file /home/xy3866/psi4conda/share/psi4/basis/aug-cc-pvtz-jkfit.gbs 
    atoms 9-16 entry H          line    70 file /home/xy3866/psi4conda/share/psi4/basis/aug-cc-pvtz-jkfit.gbs 

  ==> Pre-Iterations <==

   -------------------------------------------------------
    Irrep   Nso     Nmo     Nalpha   Nbeta   Ndocc  Nsocc
   -------------------------------------------------------
     A        552     552       0       0       0       0
   -------------------------------------------------------
    Total     552     552      31      31      31       0
   -------------------------------------------------------

  ==> Integral Setup <==

  DFHelper Memory: AOs need 2.752 GiB; user supplied 22.352 GiB. Using in-core AOs.

  ==> MemDFJK: Density-Fitted J/K Matrices <==

    J tasked:                   Yes
    K tasked:                   Yes
    wK tasked:                   No
    OpenMP threads:               8
    Memory [MiB]:             22888
    Algorithm:                 Disk
    Schwarz Cutoff:           1E-12
    Mask sparsity (%):       2.3104
    Fitting Condition:        1E-10

   => Auxiliary Basis Set <=

  Basis Set: (AUG-CC-PVTZ AUX)
    Blend: AUG-CC-PVTZ-JKFIT
    Number of shells: 352
    Number of basis function: 1200
    Number of Cartesian functions: 1488
    Spherical Harmonics?: true
    Max angular momentum: 4

  Minimum eigenvalue in the overlap matrix is 3.2167597164E-06.
  Using Symmetric Orthogonalization.

  SCF Guess: Superposition of Atomic Densities via on-the-fly atomic UHF.

  ==> Iterations <==

                           Total Energy        Delta E     RMS |[F,P]|

   @DF-RHF iter SAD:  -418.07419402190186   -4.18074e+02   0.00000e+00 
   @DF-RHF iter   1:  -418.48969153774379   -4.15498e-01   1.27900e-03 DIIS
   @DF-RHF iter   2:  -418.67326528568702   -1.83574e-01   7.47070e-04 DIIS
   @DF-RHF iter   3:  -418.73183064665352   -5.85654e-02   1.46651e-04 DIIS
   @DF-RHF iter   4:  -418.73573489003519   -3.90424e-03   6.46802e-05 DIIS
   @DF-RHF iter   5:  -418.73642622129836   -6.91331e-04   1.31025e-05 DIIS
   @DF-RHF iter   6:  -418.73649001895518   -6.37977e-05   6.22402e-06 DIIS
   @DF-RHF iter   7:  -418.73650139554263   -1.13766e-05   2.55695e-06 DIIS
   @DF-RHF iter   8:  -418.73650419384933   -2.79831e-06   9.78115e-07 DIIS
   @DF-RHF iter   9:  -418.73650461786298   -4.24014e-07   2.83796e-07 DIIS
   @DF-RHF iter  10:  -418.73650464964567   -3.17827e-08   8.97730e-08 DIIS
   @DF-RHF iter  11:  -418.73650465214098   -2.49531e-09   3.06263e-08 DIIS
   @DF-RHF iter  12:  -418.73650465236102   -2.20041e-10   1.08503e-08 DIIS
   @DF-RHF iter  13:  -418.73650465239155   -3.05249e-11   2.79709e-09 DIIS
   @DF-RHF iter  14:  -418.73650465239427   -2.72848e-12   8.12670e-10 DIIS
   @DF-RHF iter  15:  -418.73650465239444   -1.70530e-13   2.72771e-10 DIIS
   @DF-RHF iter  16:  -418.73650465239530   -8.52651e-13   1.12057e-10 DIIS
   @DF-RHF iter  17:  -418.73650465239422    1.08002e-12   5.07953e-11 DIIS
  Energy and wave function converged.


  ==> Post-Iterations <==

    Orbital Energies [Eh]
    ---------------------

    Doubly Occupied:                                                      

       1A    -20.619982     2A    -20.567542     3A    -20.556295  
       4A    -11.392898     5A    -11.316490     6A    -11.314304  
       7A    -11.253476     8A    -11.249680     9A     -1.467048  
      10A     -1.385100    11A     -1.358312    12A     -1.097028  
      13A     -1.017601    14A     -0.921003    15A     -0.869570  
      16A     -0.763688    17A     -0.743663    18A     -0.708358  
      19A     -0.687394    20A     -0.642074    21A     -0.632535  
      22A     -0.627309    23A     -0.590491    24A     -0.574890  
      25A     -0.545630    26A     -0.539693    27A     -0.513771  
      28A     -0.503694    29A     -0.468950    30A     -0.448445  
      31A     -0.440629  

    Virtual:                                                              

      32A      0.021871    33A      0.033146    34A      0.035272  
      35A      0.041561    36A      0.052476    37A      0.055389  
      38A      0.057143    39A      0.074074    40A      0.078079  
      41A      0.086944    42A      0.107724    43A      0.112187  
      44A      0.117303    45A      0.118704    46A      0.119981  
      47A      0.124478    48A      0.127223    49A      0.128655  
      50A      0.135659    51A      0.136369    52A      0.147625  
      53A      0.152432    54A      0.158857    55A      0.162473  
      56A      0.169513    57A      0.176486    58A      0.190837  
      59A      0.200892    60A      0.206045    61A      0.209193  
      62A      0.229249    63A      0.240333    64A      0.241753  
      65A      0.248586    66A      0.260865    67A      0.262152  
      68A      0.264561    69A      0.268075    70A      0.275982  
      71A      0.283699    72A      0.285317    73A      0.295881  
      74A      0.307087    75A      0.311195    76A      0.314304  
      77A      0.316506    78A      0.323529    79A      0.329881  
      80A      0.334759    81A      0.345204    82A      0.349888  
      83A      0.355332    84A      0.356931    85A      0.360581  
      86A      0.367537    87A      0.379209    88A      0.382798  
      89A      0.387030    90A      0.387938    91A      0.395055  
      92A      0.403941    93A      0.411345    94A      0.416721  
      95A      0.421691    96A      0.433856    97A      0.437505  
      98A      0.441117    99A      0.448246   100A      0.452747  
     101A      0.458463   102A      0.468439   103A      0.476459  
     104A      0.482615   105A      0.489718   106A      0.491526  
     107A      0.504594   108A      0.510791   109A      0.512504  
     110A      0.515693   111A      0.523134   112A      0.528207  
     113A      0.536878   114A      0.544351   115A      0.551247  
     116A      0.556479   117A      0.567353   118A      0.573580  
     119A      0.581909   120A      0.585311   121A      0.591961  
     122A      0.594274   123A      0.599343   124A      0.604910  
     125A      0.616018   126A      0.629854   127A      0.640907  
     128A      0.641883   129A      0.650176   130A      0.655597  
     131A      0.668001   132A      0.676465   133A      0.684502  
     134A      0.695288   135A      0.713345   136A      0.715159  
     137A      0.736510   138A      0.738604   139A      0.750832  
     140A      0.763573   141A      0.764120   142A      0.776788  
     143A      0.786760   144A      0.791491   145A      0.799629  
     146A      0.809801   147A      0.825863   148A      0.840743  
     149A      0.857222   150A      0.860193   151A      0.868895  
     152A      0.870987   153A      0.877473   154A      0.881497  
     155A      0.890620   156A      0.899468   157A      0.910518  
     158A      0.920150   159A      0.922373   160A      0.924373  
     161A      0.940208   162A      0.947991   163A      0.955657  
     164A      0.957486   165A      0.967306   166A      0.978235  
     167A      0.981448   168A      0.992493   169A      1.000924  
     170A      1.006399   171A      1.013215   172A      1.016825  
     173A      1.026184   174A      1.033404   175A      1.043257  
     176A      1.062866   177A      1.069645   178A      1.075373  
     179A      1.077932   180A      1.090935   181A      1.097483  
     182A      1.104473   183A      1.110601   184A      1.113540  
     185A      1.118896   186A      1.134152   187A      1.136658  
     188A      1.145312   189A      1.150168   190A      1.159740  
     191A      1.170449   192A      1.175313   193A      1.184526  
     194A      1.194900   195A      1.206269   196A      1.209893  
     197A      1.220628   198A      1.228549   199A      1.236954  
     200A      1.248171   201A      1.256036   202A      1.269892  
     203A      1.272995   204A      1.279006   205A      1.291141  
     206A      1.301929   207A      1.325427   208A      1.347006  
     209A      1.347594   210A      1.356934   211A      1.369472  
     212A      1.371343   213A      1.385125   214A      1.387865  
     215A      1.394789   216A      1.405940   217A      1.426119  
     218A      1.427701   219A      1.449260   220A      1.458899  
     221A      1.476674   222A      1.486754   223A      1.493108  
     224A      1.498936   225A      1.507882   226A      1.520738  
     227A      1.522808   228A      1.534127   229A      1.539951  
     230A      1.552052   231A      1.556744   232A      1.569617  
     233A      1.581053   234A      1.595040   235A      1.606187  
     236A      1.611539   237A      1.623009   238A      1.627829  
     239A      1.636355   240A      1.653392   241A      1.665784  
     242A      1.678233   243A      1.688811   244A      1.691327  
     245A      1.702680   246A      1.711586   247A      1.720088  
     248A      1.723452   249A      1.733258   250A      1.747243  
     251A      1.753972   252A      1.771449   253A      1.778983  
     254A      1.787669   255A      1.788877   256A      1.806058  
     257A      1.821555   258A      1.836761   259A      1.843421  
     260A      1.845900   261A      1.862191   262A      1.886054  
     263A      1.892221   264A      1.895424   265A      1.906496  
     266A      1.918049   267A      1.919664   268A      1.939094  
     269A      1.955473   270A      1.958401   271A      1.966660  
     272A      1.978190   273A      1.983942   274A      2.014194  
     275A      2.024861   276A      2.034671   277A      2.035960  
     278A      2.048692   279A      2.057245   280A      2.077215  
     281A      2.080193   282A      2.092672   283A      2.118802  
     284A      2.125240   285A      2.156290   286A      2.175566  
     287A      2.183662   288A      2.199152   289A      2.209321  
     290A      2.229927   291A      2.231816   292A      2.269008  
     293A      2.276589   294A      2.283849   295A      2.315052  
     296A      2.332442   297A      2.348659   298A      2.356320  
     299A      2.366563   300A      2.379303   301A      2.406349  
     302A      2.427192   303A      2.432308   304A      2.437014  
     305A      2.460218   306A      2.478859   307A      2.497586  
     308A      2.519790   309A      2.539456   310A      2.544879  
     311A      2.574647   312A      2.596148   313A      2.600913  
     314A      2.614442   315A      2.641591   316A      2.658235  
     317A      2.667029   318A      2.688833   319A      2.695858  
     320A      2.726004   321A      2.760788   322A      2.794750  
     323A      2.805180   324A      2.826072   325A      2.840320  
     326A      2.849888   327A      2.861356   328A      2.872074  
     329A      2.890213   330A      2.903047   331A      2.930450  
     332A      2.936525   333A      2.981203   334A      2.998828  
     335A      3.017635   336A      3.036426   337A      3.047294  
     338A      3.081466   339A      3.091611   340A      3.106386  
     341A      3.134176   342A      3.152533   343A      3.167507  
     344A      3.188612   345A      3.199224   346A      3.255041  
     347A      3.278153   348A      3.294034   349A      3.311394  
     350A      3.336386   351A      3.352680   352A      3.404317  
     353A      3.418241   354A      3.447830   355A      3.450350  
     356A      3.456859   357A      3.471323   358A      3.502763  
     359A      3.527660   360A      3.542605   361A      3.574949  
     362A      3.587462   363A      3.595501   364A      3.628363  
     365A      3.644644   366A      3.656438   367A      3.661418  
     368A      3.682114   369A      3.694132   370A      3.712991  
     371A      3.727402   372A      3.746722   373A      3.753588  
     374A      3.792090   375A      3.798383   376A      3.805888  
     377A      3.825033   378A      3.830698   379A      3.849014  
     380A      3.854174   381A      3.869464   382A      3.880955  
     383A      3.916610   384A      3.927546   385A      3.946997  
     386A      3.956490   387A      3.968674   388A      3.977155  
     389A      3.995370   390A      4.015059   391A      4.022879  
     392A      4.031008   393A      4.055656   394A      4.058671  
     395A      4.094763   396A      4.103002   397A      4.108598  
     398A      4.134044   399A      4.136926   400A      4.160583  
     401A      4.177073   402A      4.180064   403A      4.216911  
     404A      4.232866   405A      4.237316   406A      4.261081  
     407A      4.266066   408A      4.300746   409A      4.316807  
     410A      4.335523   411A      4.342948   412A      4.362156  
     413A      4.385518   414A      4.391856   415A      4.400145  
     416A      4.417175   417A      4.435754   418A      4.461696  
     419A      4.471250   420A      4.491438   421A      4.512497  
     422A      4.527233   423A      4.532981   424A      4.547418  
     425A      4.560380   426A      4.574678   427A      4.600213  
     428A      4.634230   429A      4.646013   430A      4.660696  
     431A      4.668516   432A      4.682427   433A      4.709741  
     434A      4.723687   435A      4.786861   436A      4.804477  
     437A      4.811760   438A      4.835251   439A      4.864124  
     440A      4.885376   441A      4.898977   442A      4.911726  
     443A      4.929962   444A      4.945714   445A      4.961707  
     446A      4.962779   447A      4.980396   448A      5.017785  
     449A      5.032820   450A      5.047866   451A      5.073718  
     452A      5.083632   453A      5.095392   454A      5.114873  
     455A      5.139153   456A      5.165236   457A      5.185159  
     458A      5.224960   459A      5.244789   460A      5.259649  
     461A      5.263826   462A      5.292100   463A      5.294943  
     464A      5.327156   465A      5.340123   466A      5.357590  
     467A      5.380917   468A      5.410193   469A      5.419675  
     470A      5.449647   471A      5.456493   472A      5.497585  
     473A      5.513470   474A      5.536938   475A      5.547847  
     476A      5.574799   477A      5.588548   478A      5.620370  
     479A      5.630384   480A      5.665043   481A      5.695891  
     482A      5.705331   483A      5.718894   484A      5.760422  
     485A      5.778164   486A      5.842717   487A      5.921092  
     488A      5.947999   489A      5.969590   490A      5.997929  
     491A      6.025747   492A      6.071119   493A      6.084309  
     494A      6.112959   495A      6.145701   496A      6.302314  
     497A      6.344615   498A      6.356377   499A      6.406040  
     500A      6.423724   501A      6.481556   502A      6.600412  
     503A      6.654753   504A      6.688978   505A      6.742070  
     506A      6.750187   507A      6.789227   508A      6.852455  
     509A      6.905528   510A      6.934173   511A      6.961354  
     512A      6.988191   513A      7.000683   514A      7.014779  
     515A      7.046024   516A      7.098479   517A      7.101677  
     518A      7.141884   519A      7.172304   520A      7.224722  
     521A      7.288331   522A      7.319370   523A      7.377814  
     524A      7.400640   525A      7.413042   526A      7.439369  
     527A      7.484871   528A      7.509399   529A      7.563700  
     530A      7.621663   531A      7.657118   532A      7.754502  
     533A      7.775440   534A      7.829394   535A      7.866737  
     536A      7.894115   537A      7.907710   538A      7.962220  
     539A      8.016852   540A      8.121773   541A      8.254019  
     542A      8.353728   543A      8.501974   544A      8.629984  
     545A     15.122519   546A     16.081152   547A     16.802306  
     548A     17.363253   549A     17.852055   550A     18.623061  
     551A     19.748229   552A     20.004223  

    Final Occupation by Irrep:
              A 
    DOCC [    31 ]

  @DF-RHF Final Energy:  -418.73650465239422

   => Energetics <=

    Nuclear Repulsion Energy =            400.0052605708741567
    One-Electron Energy =               -1365.8484498082157188
    Two-Electron Energy =                 547.1066845849472884
    Total Energy =                       -418.7365046523942738

Computation Completed

*** tstop() called on node142.bme.utexas.edu at Fri Feb 26 16:31:36 2021
Module time:
	user time   =     216.39 seconds =       3.61 minutes
	system time =      26.13 seconds =       0.44 minutes
	total time  =         47 seconds =       0.78 minutes
Total time:
	user time   =     216.39 seconds =       3.61 minutes
	system time =      26.13 seconds =       0.44 minutes
	total time  =         47 seconds =       0.78 minutes
   => Loading Basis Set <=

    Name: (AUG-CC-PVTZ AUX)
    Role: RIFIT
    Keyword: DF_BASIS_MP2
    atoms 1-3  entry O          line   264 file /home/xy3866/psi4conda/share/psi4/basis/aug-cc-pvtz-ri.gbs 
    atoms 4-8  entry C          line   148 file /home/xy3866/psi4conda/share/psi4/basis/aug-cc-pvtz-ri.gbs 
    atoms 9-16 entry H          line    30 file /home/xy3866/psi4conda/share/psi4/basis/aug-cc-pvtz-ri.gbs 


*** tstart() called on node142.bme.utexas.edu
*** at Fri Feb 26 16:31:37 2021


  //>>>>>>>>>>>>>>>>>>>>>>>>>>>>>>>>>>>//
  //               DFMP2               //
  //<<<<<<<<<<<<<<<<<<<<<<<<<<<<<<<<<<<//

	 --------------------------------------------------------
	                          DF-MP2                         
	      2nd-Order Density-Fitted Moller-Plesset Theory     
	              RMP2 Wavefunction,   8 Threads             
	                                                         
	        Rob Parrish, Justin Turney, Andy Simmonett,      
	           Ed Hohenstein, and C. David Sherrill          
	 --------------------------------------------------------

   => Auxiliary Basis Set <=

  Basis Set: (AUG-CC-PVTZ AUX)
    Blend: AUG-CC-PVTZ-RI
    Number of shells: 336
    Number of basis function: 1216
    Number of Cartesian functions: 1528
    Spherical Harmonics?: true
    Max angular momentum: 4

	 --------------------------------------------------------
	                 NBF =   552, NAUX =  1216
	 --------------------------------------------------------
	   CLASS    FOCC     OCC    AOCC    AVIR     VIR    FVIR
	   PAIRS       0      31      31     521     521       0
	 --------------------------------------------------------

  DFHelper Memory: AOs need 2.752 GiB; user supplied 22.352 GiB. Using in-core AOs.


         ------------------------------------------------------------
                                     CPHF                           
                                  Rob Parrish                       
         ------------------------------------------------------------

  ==> Geometry <==

    Molecular point group: c1
    Full point group: C1

    Geometry (in Angstrom), charge = 0, multiplicity = 1:

       Center              X                  Y                   Z               Mass       
    ------------   -----------------  -----------------  -----------------  -----------------
         O            0.709056662356    -1.366612780211     0.003053812043    15.994914619570
         O           -1.888849337644     1.159634219789     0.238148812043    15.994914619570
         O           -1.497028337644    -1.411317780211    -0.393806187957    15.994914619570
         C            0.444682662356     1.475200219789    -0.337295187957    12.000000000000
         C            1.859282262356     0.862089119789    -0.404747987957    12.000000000000
         C           -0.588895337644     0.653653219789     0.441279812043    12.000000000000
         C            1.792201662356    -0.514456780211     0.454580812043    12.000000000000
         C           -0.515897337644    -0.794514780211    -0.012193187957    12.000000000000
         H            0.489575662356     2.477721219789     0.096824812043     1.007825032230
         H            0.053442662356     1.586807219789    -1.352419187957     1.007825032230
         H            2.116879662356     0.536786219789    -1.371248187957     1.007825032230
         H            2.603535662356     1.426871219789     0.065841812043     1.007825032230
         H           -0.347124337644     0.681841219789     1.515914812043     1.007825032230
         H            2.690840662356    -1.113473780211     0.302113812043     1.007825032230
         H            1.680699662356    -0.330540780211     1.528720812043     1.007825032230
         H           -2.422534337644     0.390584219789    -0.050115187957     1.007825032230

  Nuclear repulsion =  400.005260570874157
  Reference energy  = -418.736504652394217

  ==> Basis Set <==

  Basis Set: AUG-CC-PVTZ
    Blend: AUG-CC-PVTZ
    Number of shells: 184
    Number of basis function: 552
    Number of Cartesian functions: 640
    Spherical Harmonics?: true
    Max angular momentum: 3

  ==> CGRSolver (by Rob Parrish) <==

   Number of roots    =         1
   Preconditioning    =    JACOBI
   Convergence cutoff =     1E-06
   Maximum iterations =       100

  ==> CPHFRHamiltonian (by Rob Parrish) <== 

  ==> MemDFJK: Density-Fitted J/K Matrices <==

    J tasked:                   Yes
    K tasked:                   Yes
    wK tasked:                   No
    OpenMP threads:               8
    Memory [MiB]:             22888
    Algorithm:                 Disk
    Schwarz Cutoff:           1E-12
    Mask sparsity (%):       2.3104
    Fitting Condition:        1E-10

   => Auxiliary Basis Set <=

  Basis Set: (AUG-CC-PVTZ AUX)
    Blend: AUG-CC-PVTZ-JKFIT
    Number of shells: 352
    Number of basis function: 1200
    Number of Cartesian functions: 1488
    Spherical Harmonics?: true
    Max angular momentum: 4

  ==> CPHF Iterations <==

  => Iterations <=

             Iter  Converged  Remaining    Residual
  CGR           1          0          1   1.106E-01
  CGR           2          0          1   2.965E-02
  CGR           3          0          1   1.229E-02
  CGR           4          0          1   3.788E-03
  CGR           5          0          1   1.424E-03
  CGR           6          0          1   4.540E-04
  CGR           7          0          1   1.414E-04
  CGR           8          0          1   5.799E-05
  CGR           9          0          1   2.353E-05
  CGR          10          0          1   8.956E-06
  CGR          11          0          1   3.257E-06
  CGR          12          0          1   1.129E-06
  CGR          13          1          0   4.489E-07

    CGRSolver converged.

	-----------------------------------------------------------
	 ==================> DF-MP2 Energies <==================== 
	-----------------------------------------------------------
	 Reference Energy          =    -418.7365046523942169 [Eh]
	 Singles Energy            =      -0.0000000000000000 [Eh]
	 Same-Spin Energy          =      -0.4123966975889568 [Eh]
	 Opposite-Spin Energy      =      -1.2929671533771465 [Eh]
	 Correlation Energy        =      -1.7053638509661033 [Eh]
	 Total Energy              =    -420.4418685033602969 [Eh]
	-----------------------------------------------------------
	 ================> DF-SCS-MP2 Energies <================== 
	-----------------------------------------------------------
	 SCS Same-Spin Scale       =       0.3333333333333333 [-]
	 SCS Opposite-Spin Scale   =       1.2000000000000000 [-]
	 SCS Same-Spin Energy      =      -0.1374655658629856 [Eh]
	 SCS Opposite-Spin Energy  =      -1.5515605840525757 [Eh]
	 SCS Correlation Energy    =      -1.6890261499155612 [Eh]
	 SCS Total Energy          =    -420.4255308023097655 [Eh]
	-----------------------------------------------------------



Properties will be evaluated at  -0.000000,   0.000000,   0.000000 [a0]

Properties computed using the MP2 density matrix

  Nuclear Dipole Moment: [e a0]
     X:     6.4232      Y:     5.2951      Z:     0.6889

  Electronic Dipole Moment: [e a0]
     X:    -4.9080      Y:    -4.6573      Z:    -0.3009

  Dipole Moment: [e a0]
     X:     1.5152      Y:     0.6378      Z:     0.3880     Total:     1.6891

  Dipole Moment: [D]
     X:     3.8513      Y:     1.6212      Z:     0.9862     Total:     4.2934


*** tstop() called on node142.bme.utexas.edu at Fri Feb 26 16:33:14 2021
Module time:
	user time   =     573.67 seconds =       9.56 minutes
	system time =      28.84 seconds =       0.48 minutes
	total time  =         97 seconds =       1.62 minutes
Total time:
	user time   =     790.22 seconds =      13.17 minutes
	system time =      54.97 seconds =       0.92 minutes
	total time  =        145 seconds =       2.42 minutes

    Psi4 stopped on: Friday, 26 February 2021 04:33PM
    Psi4 wall time for execution: 0:02:24.41

*** Psi4 exiting successfully. Buy a developer a beer!
