33643                                                                   
Freq      RMP2-FC                                                     Gen                 
Number of atoms                            I               11
Info1-9                                    I   N=           9
         128         126        1002           0           0         100
           6           2           1
Charge                                     I                0
Multiplicity                               I                1
Number of electrons                        I               50
Number of alpha electrons                  I               25
Number of beta electrons                   I               25
Number of basis functions                  I              101
Number of independent functions            I              101
Number of point charges in /Mol/           I                0
Number of translation vectors              I                0
Atomic numbers                             I   N=          11
          53           6           6           6           1           1
           1           1           1           1           1
Nuclear charges                            R   N=          11
  2.50000000E+01  6.00000000E+00  6.00000000E+00  6.00000000E+00  1.00000000E+00
  1.00000000E+00  1.00000000E+00  1.00000000E+00  1.00000000E+00  1.00000000E+00
  1.00000000E+00
Current cartesian coordinates              R   N=          33
 -1.98584358E+00 -6.17970033E-02  2.01130685E-06  3.75602561E+00 -9.49498050E-01
 -1.58751234E-05  1.88666784E+00  1.23079451E+00 -1.29779263E-05  6.47563124E+00
  3.37914273E-02  1.45886425E-05  3.42905397E+00 -2.13647055E+00  1.66058379E+00
  3.42907480E+00 -2.13644890E+00 -1.66063560E+00  2.07871092E+00  2.40719142E+00
 -1.68114315E+00  2.07872474E+00  2.40720257E+00  1.68110820E+00  7.82026083E+00
 -1.53374051E+00 -8.98306153E-05  6.85195385E+00  1.18858652E+00 -1.67157192E+00
  6.85198239E+00  1.18839330E+00  1.67172749E+00
Force Field                                I                0
Int Atom Types                             I   N=          11
           0           0           0           0           0           0
           0           0           0           0           0
MM charges                                 R   N=          11
  0.00000000E+00  0.00000000E+00  0.00000000E+00  0.00000000E+00  0.00000000E+00
  0.00000000E+00  0.00000000E+00  0.00000000E+00  0.00000000E+00  0.00000000E+00
  0.00000000E+00
Integer atomic weights                     I   N=          11
         127          12          12          12           1           1
           1           1           1           1           1
Real atomic weights                        R   N=          11
  1.26900400E+02  1.20000000E+01  1.20000000E+01  1.20000000E+01  1.00782504E+00
  1.00782504E+00  1.00782504E+00  1.00782504E+00  1.00782504E+00  1.00782504E+00
  1.00782504E+00
Atom fragment info                         I   N=          11
           0           0           0           0           0           0
           0           0           0           0           0
Atom residue num                           I   N=          11
           0           0           0           0           0           0
           0           0           0           0           0
Nuclear spins                              I   N=          11
           5           0           0           0           1           1
           1           1           1           1           1
Nuclear ZEff                               R   N=          11
 -5.83000000E+03 -3.60000000E+00 -3.60000000E+00 -3.60000000E+00 -1.00000000E+00
 -1.00000000E+00 -1.00000000E+00 -1.00000000E+00 -1.00000000E+00 -1.00000000E+00
 -1.00000000E+00
Nuclear QMom                               R   N=          11
 -7.10000000E+01  0.00000000E+00  0.00000000E+00  0.00000000E+00  0.00000000E+00
  0.00000000E+00  0.00000000E+00  0.00000000E+00  0.00000000E+00  0.00000000E+00
  0.00000000E+00
Nuclear GFac                               R   N=          11
  2.81328000E+00  0.00000000E+00  0.00000000E+00  0.00000000E+00  2.79284600E+00
  2.79284600E+00  2.79284600E+00  2.79284600E+00  2.79284600E+00  2.79284600E+00
  2.79284600E+00
MicOpt                                     I   N=          11
          -1          -1          -1          -1          -1          -1
          -1          -1          -1          -1          -1
Number of contracted shells                I               46
Number of primitive shells                 I               94
Pure/Cartesian d shells                    I                0
Pure/Cartesian f shells                    I                0
Highest angular momentum                   I                2
Largest degree of contraction              I                6
Shell types                                I   N=          46
           0           0           0           0           1           1
           1           1          -2          -2           0          -1
          -1          -1          -2           0          -1          -1
          -1          -2           0          -1          -1          -1
          -2           0           0           0           0           0
           0           0           0           0           0           0
           0           0           0           0           0           0
           0           0           0           0
Number of primitives per shell             I   N=          46
           6           2           1           1           4           1
           1           1           5           1           6           3
           1           1           1           6           3           1
           1           1           6           3           1           1
           1           3           1           1           3           1
           1           3           1           1           3           1
           1           3           1           1           3           1
           1           3           1           1
Shell to atom map                          I   N=          46
           1           1           1           1           1           1
           1           1           1           1           2           2
           2           2           2           3           3           3
           3           3           4           4           4           4
           4           5           5           5           6           6
           6           7           7           7           8           8
           8           9           9           9          10          10
          10          11          11          11
Primitive exponents                        R   N=          94
  4.45904892E+02  2.33368424E+01  1.95834461E+01  8.51120892E+00  2.19961619E+00
  1.06689705E+00  1.17205476E+01  1.76259864E+00  2.86974763E-01  1.12276096E-01
  2.04990273E+01  1.05587546E+01  1.50158955E+00  6.45971731E-01  3.02886568E+00
  3.45065918E-01  1.11345138E-01  5.12353549E+01  1.56162395E+01  4.52660021E+00
  2.05298088E+00  8.76402816E-01  3.09000000E-01  4.56324000E+03  6.82024000E+02
  1.54973000E+02  4.44553000E+01  1.30290000E+01  1.82773000E+00  2.09642000E+01
  4.80331000E+00  1.45933000E+00  4.83456000E-01  1.45585000E-01  6.26000000E-01
  4.56324000E+03  6.82024000E+02  1.54973000E+02  4.44553000E+01  1.30290000E+01
  1.82773000E+00  2.09642000E+01  4.80331000E+00  1.45933000E+00  4.83456000E-01
  1.45585000E-01  6.26000000E-01  4.56324000E+03  6.82024000E+02  1.54973000E+02
  4.44553000E+01  1.30290000E+01  1.82773000E+00  2.09642000E+01  4.80331000E+00
  1.45933000E+00  4.83456000E-01  1.45585000E-01  6.26000000E-01  3.38650000E+01
  5.09479000E+00  1.15879000E+00  3.25840000E-01  1.02741000E-01  3.38650000E+01
  5.09479000E+00  1.15879000E+00  3.25840000E-01  1.02741000E-01  3.38650000E+01
  5.09479000E+00  1.15879000E+00  3.25840000E-01  1.02741000E-01  3.38650000E+01
  5.09479000E+00  1.15879000E+00  3.25840000E-01  1.02741000E-01  3.38650000E+01
  5.09479000E+00  1.15879000E+00  3.25840000E-01  1.02741000E-01  3.38650000E+01
  5.09479000E+00  1.15879000E+00  3.25840000E-01  1.02741000E-01  3.38650000E+01
  5.09479000E+00  1.15879000E+00  3.25840000E-01  1.02741000E-01
Contraction coefficients                   R   N=          94
  2.20257546E-03 -1.64769178E-01  4.00523643E-01 -8.30344053E-01  9.10349039E-01
  4.63450337E-01 -4.69729845E-02  1.02523810E+00  1.00000000E+00  1.00000000E+00
  8.45621086E-02 -4.20516792E-01  9.15704773E-01  1.83978523E-01  1.00000000E+00
  1.00000000E+00  1.00000000E+00  4.10151694E-03 -5.16112495E-03  2.96351970E-01
  5.19951965E-01  3.17507168E-01  1.00000000E+00  1.96665025E-03  1.52306019E-02
  7.61269097E-02  2.60801033E-01  6.16462078E-01  2.21006028E-01  1.14660081E-01
  9.19999648E-01 -3.03068213E-03  1.00000000E+00  1.00000000E+00  1.00000000E+00
  1.96665025E-03  1.52306019E-02  7.61269097E-02  2.60801033E-01  6.16462078E-01
  2.21006028E-01  1.14660081E-01  9.19999648E-01 -3.03068213E-03  1.00000000E+00
  1.00000000E+00  1.00000000E+00  1.96665025E-03  1.52306019E-02  7.61269097E-02
  2.60801033E-01  6.16462078E-01  2.21006028E-01  1.14660081E-01  9.19999648E-01
 -3.03068213E-03  1.00000000E+00  1.00000000E+00  1.00000000E+00  2.54938145E-02
  1.90373109E-01  8.52161486E-01  1.00000000E+00  1.00000000E+00  2.54938145E-02
  1.90373109E-01  8.52161486E-01  1.00000000E+00  1.00000000E+00  2.54938145E-02
  1.90373109E-01  8.52161486E-01  1.00000000E+00  1.00000000E+00  2.54938145E-02
  1.90373109E-01  8.52161486E-01  1.00000000E+00  1.00000000E+00  2.54938145E-02
  1.90373109E-01  8.52161486E-01  1.00000000E+00  1.00000000E+00  2.54938145E-02
  1.90373109E-01  8.52161486E-01  1.00000000E+00  1.00000000E+00  2.54938145E-02
  1.90373109E-01  8.52161486E-01  1.00000000E+00  1.00000000E+00
P(S=P) Contraction coefficients            R   N=          94
  0.00000000E+00  0.00000000E+00  0.00000000E+00  0.00000000E+00  0.00000000E+00
  0.00000000E+00  0.00000000E+00  0.00000000E+00  0.00000000E+00  0.00000000E+00
  0.00000000E+00  0.00000000E+00  0.00000000E+00  0.00000000E+00  0.00000000E+00
  0.00000000E+00  0.00000000E+00  0.00000000E+00  0.00000000E+00  0.00000000E+00
  0.00000000E+00  0.00000000E+00  0.00000000E+00  0.00000000E+00  0.00000000E+00
  0.00000000E+00  0.00000000E+00  0.00000000E+00  0.00000000E+00  4.02486927E-02
  2.37593957E-01  8.15853851E-01  1.00000000E+00  1.00000000E+00  0.00000000E+00
  0.00000000E+00  0.00000000E+00  0.00000000E+00  0.00000000E+00  0.00000000E+00
  0.00000000E+00  4.02486927E-02  2.37593957E-01  8.15853851E-01  1.00000000E+00
  1.00000000E+00  0.00000000E+00  0.00000000E+00  0.00000000E+00  0.00000000E+00
  0.00000000E+00  0.00000000E+00  0.00000000E+00  4.02486927E-02  2.37593957E-01
  8.15853851E-01  1.00000000E+00  1.00000000E+00  0.00000000E+00  0.00000000E+00
  0.00000000E+00  0.00000000E+00  0.00000000E+00  0.00000000E+00  0.00000000E+00
  0.00000000E+00  0.00000000E+00  0.00000000E+00  0.00000000E+00  0.00000000E+00
  0.00000000E+00  0.00000000E+00  0.00000000E+00  0.00000000E+00  0.00000000E+00
  0.00000000E+00  0.00000000E+00  0.00000000E+00  0.00000000E+00  0.00000000E+00
  0.00000000E+00  0.00000000E+00  0.00000000E+00  0.00000000E+00  0.00000000E+00
  0.00000000E+00  0.00000000E+00  0.00000000E+00  0.00000000E+00  0.00000000E+00
  0.00000000E+00  0.00000000E+00  0.00000000E+00  0.00000000E+00
Coordinates of each shell                  R   N=         138
 -1.98584358E+00 -6.17970033E-02  2.01130685E-06 -1.98584358E+00 -6.17970033E-02
  2.01130685E-06 -1.98584358E+00 -6.17970033E-02  2.01130685E-06 -1.98584358E+00
 -6.17970033E-02  2.01130685E-06 -1.98584358E+00 -6.17970033E-02  2.01130685E-06
 -1.98584358E+00 -6.17970033E-02  2.01130685E-06 -1.98584358E+00 -6.17970033E-02
  2.01130685E-06 -1.98584358E+00 -6.17970033E-02  2.01130685E-06 -1.98584358E+00
 -6.17970033E-02  2.01130685E-06 -1.98584358E+00 -6.17970033E-02  2.01130685E-06
  3.75602561E+00 -9.49498050E-01 -1.58751234E-05  3.75602561E+00 -9.49498050E-01
 -1.58751234E-05  3.75602561E+00 -9.49498050E-01 -1.58751234E-05  3.75602561E+00
 -9.49498050E-01 -1.58751234E-05  3.75602561E+00 -9.49498050E-01 -1.58751234E-05
  1.88666784E+00  1.23079451E+00 -1.29779263E-05  1.88666784E+00  1.23079451E+00
 -1.29779263E-05  1.88666784E+00  1.23079451E+00 -1.29779263E-05  1.88666784E+00
  1.23079451E+00 -1.29779263E-05  1.88666784E+00  1.23079451E+00 -1.29779263E-05
  6.47563124E+00  3.37914273E-02  1.45886425E-05  6.47563124E+00  3.37914273E-02
  1.45886425E-05  6.47563124E+00  3.37914273E-02  1.45886425E-05  6.47563124E+00
  3.37914273E-02  1.45886425E-05  6.47563124E+00  3.37914273E-02  1.45886425E-05
  3.42905397E+00 -2.13647055E+00  1.66058379E+00  3.42905397E+00 -2.13647055E+00
  1.66058379E+00  3.42905397E+00 -2.13647055E+00  1.66058379E+00  3.42907480E+00
 -2.13644890E+00 -1.66063560E+00  3.42907480E+00 -2.13644890E+00 -1.66063560E+00
  3.42907480E+00 -2.13644890E+00 -1.66063560E+00  2.07871092E+00  2.40719142E+00
 -1.68114315E+00  2.07871092E+00  2.40719142E+00 -1.68114315E+00  2.07871092E+00
  2.40719142E+00 -1.68114315E+00  2.07872474E+00  2.40720257E+00  1.68110820E+00
  2.07872474E+00  2.40720257E+00  1.68110820E+00  2.07872474E+00  2.40720257E+00
  1.68110820E+00  7.82026083E+00 -1.53374051E+00 -8.98306153E-05  7.82026083E+00
 -1.53374051E+00 -8.98306153E-05  7.82026083E+00 -1.53374051E+00 -8.98306153E-05
  6.85195385E+00  1.18858652E+00 -1.67157192E+00  6.85195385E+00  1.18858652E+00
 -1.67157192E+00  6.85195385E+00  1.18858652E+00 -1.67157192E+00  6.85198239E+00
  1.18839330E+00  1.67172749E+00  6.85198239E+00  1.18839330E+00  1.67172749E+00
  6.85198239E+00  1.18839330E+00  1.67172749E+00
Constraint Structure                       R   N=          33
 -1.98584358E+00 -6.17970033E-02  2.01130685E-06  3.75602561E+00 -9.49498050E-01
 -1.58751234E-05  1.88666784E+00  1.23079451E+00 -1.29779263E-05  6.47563124E+00
  3.37914273E-02  1.45886425E-05  3.42905397E+00 -2.13647055E+00  1.66058379E+00
  3.42907480E+00 -2.13644890E+00 -1.66063560E+00  2.07871092E+00  2.40719142E+00
 -1.68114315E+00  2.07872474E+00  2.40720257E+00  1.68110820E+00  7.82026083E+00
 -1.53374051E+00 -8.98306153E-05  6.85195385E+00  1.18858652E+00 -1.67157192E+00
  6.85198239E+00  1.18839330E+00  1.67172749E+00
Num ILSW                                   I              100
ILSW                                       I   N=         100
           0           0           0           1           2           0
           0           0           0           0           0          -1
           0           0           0           0           0           0
           0           0           0           0           1           0
           1           0           0           0           0           0
           0           0      100000           0          -1           0
           0           0           0           0           0           0
           0           0           0           1           1           0
           0           0           1           0           0           0
           0           0           4          40           0           0
           0           0           0           0           0           0
           0           0           0           0           0           0
           0           0           0           0           0           0
           0           0           0           0           0           0
           0           0           0           0           0           0
           0           0           0           0           0           0
           0           0           0           0
Num RLSW                                   I               40
RLSW                                       R   N=          40
  1.00000000E+00  1.00000000E+00  1.00000000E+00  1.00000000E+00  1.00000000E+00
  0.00000000E+00  0.00000000E+00  1.00000000E+00  0.00000000E+00  0.00000000E+00
  0.00000000E+00  0.00000000E+00  1.00000000E+00  0.00000000E+00  0.00000000E+00
  0.00000000E+00  0.00000000E+00  1.00000000E+00  0.00000000E+00  0.00000000E+00
  0.00000000E+00  0.00000000E+00  1.00000000E+00  0.00000000E+00  0.00000000E+00
  0.00000000E+00  0.00000000E+00  1.00000000E+00  0.00000000E+00  0.00000000E+00
  0.00000000E+00  0.00000000E+00  0.00000000E+00  0.00000000E+00  0.00000000E+00
  0.00000000E+00  0.00000000E+00  0.00000000E+00  1.00000000E+00  1.00000000E+00
ECP-MxAtEC                                 I           250000
ECP-MaxLECP                                I               10
ECP-MaxAtL                                 I          2250000
ECP-MxTECP                                 I         11250000
ECP-LenNCZ                                 I               29
ECP-KFirst                                 I   N=         110
           1           0           0           0           0           0
           0           0           0           0           0           5
           0           0           0           0           0           0
           0           0           0           0          12           0
           0           0           0           0           0           0
           0           0           0          20           0           0
           0           0           0           0           0           0
           0           0           0           0           0           0
           0           0           0           0           0           0
           0           0           0           0           0           0
           0           0           0           0           0           0
           0           0           0           0           0           0
           0           0           0           0           0           0
           0           0           0           0           0           0
           0           0           0           0           0           0
           0           0           0           0           0           0
           0           0           0           0           0           0
           0           0           0           0           0           0
           0           0
ECP-KLast                                  I   N=         110
           4           0           0           0           0           0
           0           0           0           0           0          11
           0           0           0           0           0           0
           0           0           0           0          19           0
           0           0           0           0           0           0
           0           0           0          29           0           0
           0           0           0           0           0           0
           0           0           0           0           0           0
           0           0           0           0           0           0
           0           0           0           0           0           0
           0           0           0           0           0           0
           0           0           0           0           0           0
           0           0           0           0           0           0
           0           0           0           0           0           0
           0           0           0           0           0           0
           0           0           0           0           0           0
           0           0           0           0           0           0
           0           0           0           0           0           0
           0           0
ECP-LMax                                   I   N=          11
           3           0           0           0           0           0
           0           0           0           0           0
ECP-LPSkip                                 I   N=          11
           0           1           1           1           1           1
           1           1           1           1           1
ECP-RNFroz                                 R   N=          11
  2.80000000E+01  0.00000000E+00  0.00000000E+00  0.00000000E+00  0.00000000E+00
  0.00000000E+00  0.00000000E+00  0.00000000E+00  0.00000000E+00  0.00000000E+00
  0.00000000E+00
ECP-NLP                                    I   N=          29
           2           2           2           2           2           2
           2           2           2           2           2           2
           2           2           2           2           2           2
           2           2           2           2           2           2
           2           2           2           2           2
ECP-CLP1                                   R   N=          29
 -2.18420400E+01 -2.84681910E+01 -2.43713000E-01 -3.20804000E-01  4.99942930E+01
  2.81025317E+02  6.15733260E+01  2.18420400E+01  2.84681910E+01  2.43713000E-01
  3.20804000E-01  6.74428410E+01  1.34881137E+02  1.46750510E+01  2.93756660E+01
  2.18420400E+01  2.84681910E+01  2.43713000E-01  3.20804000E-01  3.54395290E+01
  5.31760570E+01  9.06719500E+00  1.32069370E+01  8.93350000E-02  5.23800000E-02
  2.18420400E+01  2.84681910E+01  2.43713000E-01  3.20804000E-01
ECP-CLP2                                   R   N=          29
  0.00000000E+00  0.00000000E+00  0.00000000E+00  0.00000000E+00  0.00000000E+00
  0.00000000E+00  0.00000000E+00  0.00000000E+00  0.00000000E+00  0.00000000E+00
  0.00000000E+00  0.00000000E+00  0.00000000E+00  0.00000000E+00  0.00000000E+00
  0.00000000E+00  0.00000000E+00  0.00000000E+00  0.00000000E+00  0.00000000E+00
  0.00000000E+00  0.00000000E+00  0.00000000E+00  0.00000000E+00  0.00000000E+00
  0.00000000E+00  0.00000000E+00  0.00000000E+00  0.00000000E+00
ECP-ZLP                                    R   N=          29
  1.94586090E+01  1.93492600E+01  4.82376700E+00  4.88431500E+00  4.00158350E+01
  1.74297470E+01  9.00548400E+00  1.94586090E+01  1.93492600E+01  4.82376700E+00
  4.88431500E+00  1.53554660E+01  1.49718330E+01  8.96016400E+00  8.25909600E+00
  1.94586090E+01  1.93492600E+01  4.82376700E+00  4.88431500E+00  1.50689080E+01
  1.45553220E+01  6.71864700E+00  6.45639300E+00  1.19177900E+00  1.29115700E+00
  1.94586090E+01  1.93492600E+01  4.82376700E+00  4.88431500E+00
MxBond                                     I                4
NBond                                      I   N=          11
           1           4           4           4           1           1
           1           1           1           1           1
IBond                                      I   N=          44
           3           0           0           0           3           4
           5           6           1           2           7           8
           2           9          10          11           2           0
           0           0           2           0           0           0
           3           0           0           0           3           0
           0           0           4           0           0           0
           4           0           0           0           4           0
           0           0
RBond                                      R   N=          44
  1.00000000E+00  0.00000000E+00  0.00000000E+00  0.00000000E+00  1.00000000E+00
  1.00000000E+00  1.00000000E+00  1.00000000E+00  1.00000000E+00  1.00000000E+00
  1.00000000E+00  1.00000000E+00  1.00000000E+00  1.00000000E+00  1.00000000E+00
  1.00000000E+00  1.00000000E+00  0.00000000E+00  0.00000000E+00  0.00000000E+00
  1.00000000E+00  0.00000000E+00  0.00000000E+00  0.00000000E+00  1.00000000E+00
  0.00000000E+00  0.00000000E+00  0.00000000E+00  1.00000000E+00  0.00000000E+00
  0.00000000E+00  0.00000000E+00  1.00000000E+00  0.00000000E+00  0.00000000E+00
  0.00000000E+00  1.00000000E+00  0.00000000E+00  0.00000000E+00  0.00000000E+00
  1.00000000E+00  0.00000000E+00  0.00000000E+00  0.00000000E+00
Virial Ratio                               R      2.791444290007244E+00
SCF Energy                                 R     -4.143525681212843E+02
MP2 Energy                                 R     -4.149090726248670E+02
Total Energy                               R     -4.149090726248670E+02
Post-SCF wavefunction norm                 R      1.551318585720060E+00
RMS Force                                  R      2.684905451715883E-07
RMS Density                                R      8.107850704914591E-10
External E-field                           R   N=          35
  0.00000000E+00  0.00000000E+00  0.00000000E+00  0.00000000E+00  0.00000000E+00
  0.00000000E+00  0.00000000E+00  0.00000000E+00  0.00000000E+00  0.00000000E+00
  0.00000000E+00  0.00000000E+00  0.00000000E+00  0.00000000E+00  0.00000000E+00
  0.00000000E+00  0.00000000E+00  0.00000000E+00  0.00000000E+00  0.00000000E+00
  0.00000000E+00  0.00000000E+00  0.00000000E+00  0.00000000E+00  0.00000000E+00
  0.00000000E+00  0.00000000E+00  0.00000000E+00  0.00000000E+00  0.00000000E+00
  0.00000000E+00  0.00000000E+00  0.00000000E+00  0.00000000E+00  0.00000000E+00
IOpCl                                      I                0
IROHF                                      I                0
Alpha Orbital Energies                     R   N=         101
 -1.12856671E+01 -1.12419480E+01 -1.12291646E+01 -7.71877642E+00 -5.57473136E+00
 -5.56334556E+00 -5.56325581E+00 -2.27007111E+00 -2.26508963E+00 -2.26499637E+00
 -2.25323873E+00 -2.25323465E+00 -1.08527789E+00 -9.63984228E-01 -8.55770721E-01
 -8.07978213E-01 -6.60355811E-01 -5.98381683E-01 -5.69781176E-01 -5.57372706E-01
 -5.08531209E-01 -4.95873155E-01 -4.33067171E-01 -3.54549138E-01 -3.54330447E-01
  1.07686722E-01  1.63618173E-01  1.83741994E-01  1.85303383E-01  2.00086181E-01
  2.37721667E-01  2.40644746E-01  2.55999097E-01  3.30761527E-01  3.69428148E-01
  4.20458140E-01  4.30880890E-01  4.44910368E-01  4.60502304E-01  4.78194625E-01
  5.09377595E-01  5.35182287E-01  5.80452152E-01  6.01926685E-01  6.08526194E-01
  6.54452097E-01  6.57052182E-01  6.81726554E-01  7.33907266E-01  7.77417113E-01
  7.86492194E-01  7.96921360E-01  8.00081569E-01  8.03303002E-01  8.10592375E-01
  8.31318963E-01  8.67049721E-01  8.88268014E-01  8.98126881E-01  9.40178994E-01
  1.08523928E+00  1.16190792E+00  1.20452554E+00  1.38120320E+00  1.40937493E+00
  1.66022867E+00  1.66175053E+00  1.72825106E+00  1.76494208E+00  1.78535403E+00
  1.81761087E+00  1.89930758E+00  1.91778935E+00  1.98741698E+00  2.06158416E+00
  2.11679790E+00  2.27483050E+00  2.39357016E+00  2.70407016E+00  2.72445783E+00
  2.73005233E+00  2.79251031E+00  2.81811231E+00  2.82919975E+00  2.83851803E+00
  3.22784823E+00  3.28849182E+00  3.37901251E+00  3.46696860E+00  3.56915344E+00
  3.58618874E+00  3.59053429E+00  4.08845827E+00  4.34507859E+00  1.91995136E+01
  1.92180869E+01  1.95732701E+01  2.44994827E+01  2.47244123E+01  2.48458904E+01
  5.65127562E+01
Alpha MO coefficients                      R   N=       10201
 -5.25572858E-05 -4.37408649E-05  6.73148263E-05  1.44095830E-04 -8.40571843E-05
 -2.91722175E-05  3.84963707E-10 -5.92027333E-05 -2.04073765E-05  2.43854907E-10
  2.59442141E-04  9.50965610E-05 -1.28776743E-09  1.25555173E-04  9.10279920E-06
 -2.59178118E-10  1.89124065E-05  2.23721407E-10  5.91207133E-11 -2.86134067E-05
 -1.57695034E-05 -1.17250814E-04 -1.47012921E-09 -4.17306192E-10  1.72167712E-04
  1.04152463E-04  4.00818617E-03  3.26082015E-03 -6.95604644E-05  1.09932603E-04
  3.40471358E-11  3.18222682E-04 -2.17363351E-04  1.68282060E-04  8.53192784E-10
 -9.92012957E-06 -8.65298533E-05  4.88950512E-05 -9.03011329E-09 -4.68106811E-05
 -1.02129498E-09  1.72731060E-10  6.87117960E-06 -1.03630485E-04  5.63472967E-01
  4.66566319E-01 -8.50127412E-04 -2.53116922E-04  5.47848510E-09  3.91584620E-03
  5.47584657E-04  2.31323889E-04 -4.15619957E-09 -1.02427209E-03 -2.83872948E-04
 -5.00760731E-05  5.49865647E-09  1.57841183E-04  1.67318072E-09  6.11720811E-10
 -1.52048639E-04 -1.05532290E-04 -1.69832490E-05 -1.10440578E-05  5.80259149E-06
  1.12143554E-06  3.19674756E-10 -5.96123884E-05 -9.56331069E-06 -1.40088513E-05
 -1.01712704E-09  2.77370182E-04 -1.70929245E-04  9.85493197E-05  1.01351671E-08
 -8.29610828E-06  8.94270039E-10 -1.21477497E-09  2.97270557E-05 -3.51811174E-07
 -5.16125301E-06  3.80217345E-05 -1.72537831E-05 -5.16088830E-06  3.80181935E-05
 -1.72585191E-05  3.37643865E-04  1.25935297E-04  2.01254442E-04  3.37644149E-04
  1.25934303E-04  2.01248987E-04 -9.13843780E-07  2.06469197E-05  5.98855432E-05
  6.43692325E-06 -7.44200024E-05 -8.96835544E-06  6.43868657E-06 -7.44241239E-05
 -8.97307022E-06  4.67248453E-06  5.17893183E-06 -3.06463515E-06 -7.59442632E-05
  6.93370368E-06  5.06044233E-07  1.79397903E-11  5.57775551E-06 -4.42816285E-07
  3.95790005E-12 -3.83029545E-05 -2.16513006E-06 -3.26403010E-11 -4.88074676E-05
  1.78122095E-05  1.55967858E-10  2.91260183E-06  1.85145921E-11 -1.69939826E-11
  7.21154522E-07  2.05515502E-06 -1.43165152E-06 -7.11145497E-12  4.11464436E-11
 -2.48812936E-05 -2.12564745E-06  5.63221510E-01  4.66388968E-01 -5.74564369E-05
  2.58563363E-04  4.38691974E-10  4.44827261E-03  1.76003654E-05 -2.52931015E-04
 -4.44837024E-10 -2.52896548E-03 -8.70263253E-05 -2.77435179E-04 -2.52342961E-09
  1.34405269E-04 -1.12431094E-09 -1.21909217E-09 -4.75430530E-05  6.28269209E-05
 -4.10426773E-03 -3.46909308E-03  7.17047630E-05 -1.00588255E-04 -7.74570698E-11
  2.32672420E-04  2.65992087E-04 -2.80045351E-04 -3.78678949E-10  8.91903110E-04
  2.22197511E-04 -3.08596451E-04  1.08885702E-09 -8.57025051E-05 -1.25071000E-10
  9.56247836E-12 -1.57017646E-05 -1.43521556E-04  1.32149470E-02  1.08804483E-02
 -1.08669166E-04 -4.80882337E-05 -1.64491039E-09  3.35475431E-04 -3.32338644E-04
 -8.75893715E-05 -2.50943901E-09  8.54617241E-04 -3.13707818E-04 -1.59586534E-04
 -1.21920373E-08 -7.07612210E-05  2.47262789E-09  7.41270108E-10  1.04637781E-04
  6.45004124E-05  3.24118017E-04  2.45580574E-04  2.44884370E-04  3.24117965E-04
  2.45581013E-04  2.44883741E-04  1.54833044E-06 -5.04940095E-05  6.51636170E-06
  1.54841010E-06 -5.04941900E-05  6.51383198E-06  1.94347206E-05 -7.95304737E-05