
    -----------------------------------------------------------------------
          Psi4: An Open-Source Ab Initio Electronic Structure Package
                               Psi4 1.3.2 release

                         Git: Rev {HEAD} ecbda83 


    R. M. Parrish, L. A. Burns, D. G. A. Smith, A. C. Simmonett,
    A. E. DePrince III, E. G. Hohenstein, U. Bozkaya, A. Yu. Sokolov,
    R. Di Remigio, R. M. Richard, J. F. Gonthier, A. M. James,
    H. R. McAlexander, A. Kumar, M. Saitow, X. Wang, B. P. Pritchard,
    P. Verma, H. F. Schaefer III, K. Patkowski, R. A. King, E. F. Valeev,
    F. A. Evangelista, J. M. Turney, T. D. Crawford, and C. D. Sherrill,
    J. Chem. Theory Comput. 13(7) pp 3185--3197 (2017).
    (doi: 10.1021/acs.jctc.7b00174)


                         Additional Contributions by
    P. Kraus, H. Kruse, M. H. Lechner, M. C. Schieber, R. A. Shaw,
    A. Alenaizan, R. Galvelis, Z. L. Glick, S. Lehtola, and J. P. Misiewicz

    -----------------------------------------------------------------------


    Psi4 started on: Monday, 09 November 2020 07:18AM

    Process ID: 37629
    Host:       node37.bme.utexas.edu
    PSIDATADIR: /home/xy3866/psi4conda/share/psi4
    Memory:     500.0 MiB
    Threads:    8
    
  ==> Input File <==

--------------------------------------------------------------------------
#psi4
#
memory 32 gb

molecule  {
0 1
  N        0.3833600    -0.5125370    -0.0001240
  N       -0.3832800     0.5120360    -0.0003650
  C        1.7672300    -0.1861950    -0.0000230
  C       -1.7671580     0.1858050    -0.0001250
  C        2.6296550    -1.2889660    -0.0004100
  C       -2.2820560    -1.1203900     0.0004250
  C        2.2816634     1.1203217    -0.1995569
  C       -2.6293090     1.2888360    -0.0004050
  C        4.0102370    -1.0927240    -0.0003780
  C       -3.6612700    -1.3047800     0.0004470
  C        3.6608930     1.3050510     0.0005180
  C       -4.0099580     1.0931000    -0.0003430
  C        4.5276310     0.2044750     0.0001450
  C       -4.5277070    -0.2039390     0.0001440
  H        2.1941740    -2.2850020    -0.0008280
  H       -1.5949460    -1.9607630     0.0007310
  H        1.5942790     1.9602490     0.0007180
  H       -2.1933450     2.2846620    -0.0007500
  H        4.6808280    -1.9484460    -0.0006320
  H       -4.0692680    -2.3129040     0.0009720
  H        4.0684950     2.3133330     0.0008240
  H       -4.6802440     1.9490580    -0.0004760
  H        5.6036530     0.3614050     0.0000240
  H       -5.6037540    -0.3606960     0.0002220
units angstrom
no_reorient  #important for SAPT in psi4, default
symmetry c1  #important for SAPT in psi4, default
}

set PROPERTIES_ORIGIN ["COM"]
properties('MP2/aug-cc-pvtz', properties = ['dipole'])
--------------------------------------------------------------------------

  Memory set to  29.802 GiB by Python driver.
    SCF Algorithm Type (re)set to DF.

*** tstart() called on node37.bme.utexas.edu
*** at Mon Nov  9 07:18:16 2020

   => Loading Basis Set <=

    Name: AUG-CC-PVTZ
    Role: ORBITAL
    Keyword: BASIS
    atoms 1-2   entry N          line   281 file /home/xy3866/psi4conda/share/psi4/basis/aug-cc-pvtz.gbs 
    atoms 3-14  entry C          line   235 file /home/xy3866/psi4conda/share/psi4/basis/aug-cc-pvtz.gbs 
    atoms 15-24 entry H          line    36 file /home/xy3866/psi4conda/share/psi4/basis/aug-cc-pvtz.gbs 


         ---------------------------------------------------------
                                   SCF
               by Justin Turney, Rob Parrish, Andy Simmonett
                          and Daniel G. A. Smith
                              RHF Reference
                        8 Threads,  30517 MiB Core
         ---------------------------------------------------------

  ==> Geometry <==

    Molecular point group: c1
    Full point group: C1

    Geometry (in Angstrom), charge = 0, multiplicity = 1:

       Center              X                  Y                   Z               Mass       
    ------------   -----------------  -----------------  -----------------  -----------------
         N            0.383364349388    -0.512542623058     0.013060979197    14.003074004430
         N           -0.383275650612     0.512030376942     0.012819979197    14.003074004430
         C            1.767234349388    -0.186200623058     0.013161979197    12.000000000000
         C           -1.767153650612     0.185799376942     0.013059979197    12.000000000000
         C            2.629659349388    -1.288971623058     0.012774979197    12.000000000000
         C           -2.282051650612    -1.120395623058     0.013609979197    12.000000000000
         C            2.281667749388     1.120316076942    -0.186371920803    12.000000000000
         C           -2.629304650612     1.288830376942     0.012779979197    12.000000000000
         C            4.010241349388    -1.092729623058     0.012806979197    12.000000000000
         C           -3.661265650612    -1.304785623058     0.013631979197    12.000000000000
         C            3.660897349388     1.305045376942     0.013702979197    12.000000000000
         C           -4.009953650612     1.093094376942     0.012841979197    12.000000000000
         C            4.527635349388     0.204469376942     0.013329979197    12.000000000000
         C           -4.527702650612    -0.203944623058     0.013328979197    12.000000000000
         H            2.194178349388    -2.285007623058     0.012356979197     1.007825032230
         H           -1.594941650612    -1.960768623058     0.013915979197     1.007825032230
         H            1.594283349388     1.960243376942     0.013902979197     1.007825032230
         H           -2.193340650612     2.284656376942     0.012434979197     1.007825032230
         H            4.680832349388    -1.948451623058     0.012552979197     1.007825032230
         H           -4.069263650612    -2.312909623058     0.014156979197     1.007825032230
         H            4.068499349388     2.313327376942     0.014008979197     1.007825032230
         H           -4.680239650612     1.949052376942     0.012708979197     1.007825032230
         H            5.603657349388     0.361399376942     0.013208979197     1.007825032230
         H           -5.603749650612    -0.360701623058     0.013406979197     1.007825032230

  Running in c1 symmetry.

  Rotational constants: A =      0.09058  B =      0.00977  C =      0.00882 [cm^-1]
  Rotational constants: A =   2715.47173  B =    292.86322  C =    264.46065 [MHz]
  Nuclear repulsion =  748.823011393489310

  Charge       = 0
  Multiplicity = 1
  Electrons    = 96
  Nalpha       = 48
  Nbeta        = 48

  ==> Algorithm <==

  SCF Algorithm Type is DF.
  DIIS enabled.
  MOM disabled.
  Fractional occupation disabled.
  Guess Type is SAD.
  Energy threshold   = 1.00e-10
  Density threshold  = 1.00e-10
  Integral threshold = 0.00e+00

  ==> Primary Basis <==

  Basis Set: AUG-CC-PVTZ
    Blend: AUG-CC-PVTZ
    Number of shells: 286
    Number of basis function: 874
    Number of Cartesian functions: 1020
    Spherical Harmonics?: true
    Max angular momentum: 3

   => Loading Basis Set <=

    Name: (AUG-CC-PVTZ AUX)
    Role: JKFIT
    Keyword: DF_BASIS_SCF
    atoms 1-2   entry N          line   224 file /home/xy3866/psi4conda/share/psi4/basis/aug-cc-pvtz-jkfit.gbs 
    atoms 3-14  entry C          line   162 file /home/xy3866/psi4conda/share/psi4/basis/aug-cc-pvtz-jkfit.gbs 
    atoms 15-24 entry H          line    70 file /home/xy3866/psi4conda/share/psi4/basis/aug-cc-pvtz-jkfit.gbs 

  ==> Pre-Iterations <==

   -------------------------------------------------------
    Irrep   Nso     Nmo     Nalpha   Nbeta   Ndocc  Nsocc
   -------------------------------------------------------
     A        874     874       0       0       0       0
   -------------------------------------------------------
    Total     874     874      48      48      48       0
   -------------------------------------------------------

  ==> Integral Setup <==

  DFHelper Memory: AOs need 9.372 GiB; user supplied 22.352 GiB. Using in-core AOs.

  ==> MemDFJK: Density-Fitted J/K Matrices <==

    J tasked:                   Yes
    K tasked:                   Yes
    wK tasked:                   No
    OpenMP threads:               8
    Memory [MiB]:             22888
    Algorithm:                 Disk
    Schwarz Cutoff:           1E-12
    Mask sparsity (%):      16.1309
    Fitting Condition:        1E-10

   => Auxiliary Basis Set <=

  Basis Set: (AUG-CC-PVTZ AUX)
    Blend: AUG-CC-PVTZ-JKFIT
    Number of shells: 560
    Number of basis function: 1916
    Number of Cartesian functions: 2384
    Spherical Harmonics?: true
    Max angular momentum: 4

  Minimum eigenvalue in the overlap matrix is 5.6197797654E-07.
  Using Symmetric Orthogonalization.

  SCF Guess: Superposition of Atomic Densities via on-the-fly atomic UHF.

  ==> Iterations <==

                           Total Energy        Delta E     RMS |[F,P]|

   @DF-RHF iter SAD:  -568.33012152062031   -5.68330e+02   0.00000e+00 
   @DF-RHF iter   1:  -568.92865991169788   -5.98538e-01   8.47270e-04 DIIS
   @DF-RHF iter   2:  -569.19552529429825   -2.66865e-01   4.13678e-04 DIIS
   @DF-RHF iter   3:  -569.26025571433752   -6.47304e-02   1.00660e-04 DIIS
   @DF-RHF iter   4:  -569.26520332338134   -4.94761e-03   3.47900e-05 DIIS
   @DF-RHF iter   5:  -569.26580671635304   -6.03393e-04   7.64907e-06 DIIS
   @DF-RHF iter   6:  -569.26585383090173   -4.71145e-05   3.24236e-06 DIIS
   @DF-RHF iter   7:  -569.26586320228466   -9.37138e-06   1.11037e-06 DIIS
   @DF-RHF iter   8:  -569.26586517636508   -1.97408e-06   3.37509e-07 DIIS
   @DF-RHF iter   9:  -569.26586538336267   -2.06998e-07   1.41534e-07 DIIS
   @DF-RHF iter  10:  -569.26586541447000   -3.11073e-08   8.11055e-08 DIIS
   @DF-RHF iter  11:  -569.26586543146811   -1.69981e-08   4.68929e-08 DIIS
   @DF-RHF iter  12:  -569.26586543629367   -4.82555e-09   2.24364e-08 DIIS
   @DF-RHF iter  13:  -569.26586543702717   -7.33507e-10   6.68345e-09 DIIS
   @DF-RHF iter  14:  -569.26586543710744   -8.02629e-11   3.01543e-09 DIIS
   @DF-RHF iter  15:  -569.26586543711949   -1.20508e-11   1.77265e-09 DIIS
   @DF-RHF iter  16:  -569.26586543713108   -1.15961e-11   8.46400e-10 DIIS
   @DF-RHF iter  17:  -569.26586543713495   -3.86535e-12   4.01726e-10 DIIS
   @DF-RHF iter  18:  -569.26586543713324    1.70530e-12   1.97534e-10 DIIS
   @DF-RHF iter  19:  -569.26586543712915    4.09273e-12   9.86687e-11 DIIS
  Energy and wave function converged.


  ==> Post-Iterations <==

    Orbital Energies [Eh]
    ---------------------

    Doubly Occupied:                                                      

       1A    -15.632685     2A    -15.631099     3A    -11.272876  
       4A    -11.270226     5A    -11.246847     6A    -11.246001  
       7A    -11.245245     8A    -11.244933     9A    -11.244378  
      10A    -11.244034    11A    -11.243777    12A    -11.242900  
      13A    -11.242639    14A    -11.242413    15A     -1.357694  
      16A     -1.171942    17A     -1.148857    18A     -1.075418  
      19A     -1.023384    20A     -1.021288    21A     -1.006145  
      22A     -0.925551    23A     -0.843478    24A     -0.838995  
      25A     -0.816558    26A     -0.774839    27A     -0.716149  
      28A     -0.698340    29A     -0.667075    30A     -0.659870  
      31A     -0.629881    32A     -0.617575    33A     -0.598860  
      34A     -0.596857    35A     -0.592195    36A     -0.578214  
      37A     -0.573324    38A     -0.521067    39A     -0.518548  
      40A     -0.514020    41A     -0.499339    42A     -0.496209  
      43A     -0.475529    44A     -0.403070    45A     -0.361910  
      46A     -0.344053    47A     -0.343094    48A     -0.302657  

    Virtual:                                                              

      49A      0.027822    50A      0.028886    51A      0.031961  
      52A      0.035021    53A      0.038326    54A      0.038680  
      55A      0.050173    56A      0.052739    57A      0.061774  
      58A      0.069073    59A      0.074328    60A      0.082448  
      61A      0.089469    62A      0.093502    63A      0.094814  
      64A      0.100850    65A      0.103404    66A      0.104027  
      67A      0.109152    68A      0.110896    69A      0.113190  
      70A      0.116675    71A      0.117842    72A      0.118094  
      73A      0.121401    74A      0.127391    75A      0.129292  
      76A      0.130950    77A      0.131324    78A      0.131945  
      79A      0.135410    80A      0.142145    81A      0.142534  
      82A      0.147310    83A      0.149833    84A      0.152710  
      85A      0.154053    86A      0.156414    87A      0.164087  
      88A      0.166184    89A      0.167639    90A      0.176580  
      91A      0.178459    92A      0.179781    93A      0.186878  
      94A      0.191855    95A      0.198584    96A      0.205570  
      97A      0.210551    98A      0.215890    99A      0.218571  
     100A      0.223526   101A      0.225270   102A      0.228318  
     103A      0.237020   104A      0.244488   105A      0.248194  
     106A      0.255798   107A      0.260348   108A      0.262428  
     109A      0.263253   110A      0.264872   111A      0.270505  
     112A      0.272939   113A      0.281148   114A      0.283918  
     115A      0.285290   116A      0.291252   117A      0.294990  
     118A      0.296829   119A      0.306566   120A      0.310631  
     121A      0.313613   122A      0.315395   123A      0.317128  
     124A      0.319941   125A      0.321836   126A      0.324117  
     127A      0.328631   128A      0.332201   129A      0.334867  
     130A      0.344628   131A      0.345852   132A      0.347211  
     133A      0.352025   134A      0.353590   135A      0.358117  
     136A      0.359651   137A      0.364014   138A      0.365147  
     139A      0.374387   140A      0.377509   141A      0.383774  
     142A      0.392830   143A      0.400516   144A      0.401940  
     145A      0.402900   146A      0.408663   147A      0.417014  
     148A      0.418353   149A      0.422004   150A      0.422138  
     151A      0.426414   152A      0.427641   153A      0.432606  
     154A      0.435750   155A      0.442882   156A      0.443663  
     157A      0.449712   158A      0.452909   159A      0.455026  
     160A      0.456677   161A      0.459597   162A      0.464612  
     163A      0.466877   164A      0.468312   165A      0.471921  
     166A      0.475720   167A      0.478003   168A      0.479925  
     169A      0.486224   170A      0.489970   171A      0.492192  
     172A      0.497632   173A      0.499199   174A      0.500517  
     175A      0.502704   176A      0.506662   177A      0.511380  
     178A      0.514996   179A      0.516530   180A      0.517674  
     181A      0.523003   182A      0.524817   183A      0.530605  
     184A      0.537107   185A      0.540690   186A      0.545812  
     187A      0.546754   188A      0.552099   189A      0.554538  
     190A      0.555976   191A      0.563945   192A      0.564840  
     193A      0.568089   194A      0.575553   195A      0.581804  
     196A      0.587539   197A      0.590215   198A      0.597039  
     199A      0.603654   200A      0.607545   201A      0.610113  
     202A      0.616219   203A      0.622034   204A      0.628515  
     205A      0.630345   206A      0.633413   207A      0.638690  
     208A      0.639493   209A      0.644848   210A      0.657714  
     211A      0.660610   212A      0.666517   213A      0.674700  
     214A      0.676374   215A      0.680559   216A      0.685071  
     217A      0.686401   218A      0.691317   219A      0.700142  
     220A      0.707073   221A      0.708592   222A      0.711456  
     223A      0.714824   224A      0.720583   225A      0.730292  
     226A      0.732486   227A      0.738421   228A      0.742638  
     229A      0.746226   230A      0.758184   231A      0.764530  
     232A      0.767593   233A      0.773581   234A      0.777046  
     235A      0.783157   236A      0.788822   237A      0.792991  
     238A      0.798582   239A      0.802829   240A      0.806003  
     241A      0.812385   242A      0.814782   243A      0.821773  
     244A      0.829568   245A      0.835770   246A      0.845482  
     247A      0.848309   248A      0.852779   249A      0.857336  
     250A      0.858553   251A      0.864884   252A      0.868542  
     253A      0.871079   254A      0.877702   255A      0.879154  
     256A      0.883010   257A      0.886556   258A      0.889016  
     259A      0.894336   260A      0.904314   261A      0.905744  
     262A      0.911172   263A      0.916406   264A      0.918219  
     265A      0.919378   266A      0.925670   267A      0.929698  
     268A      0.934948   269A      0.935980   270A      0.939937  
     271A      0.943263   272A      0.946465   273A      0.955570  
     274A      0.958985   275A      0.965753   276A      0.971141  
     277A      0.974135   278A      0.977458   279A      0.982139  
     280A      0.984131   281A      0.993057   282A      0.995904  
     283A      1.001873   284A      1.008878   285A      1.014903  
     286A      1.015785   287A      1.020167   288A      1.022493  
     289A      1.025974   290A      1.031089   291A      1.033294  
     292A      1.040687   293A      1.047572   294A      1.048682  
     295A      1.055422   296A      1.059706   297A      1.060312  
     298A      1.068515   299A      1.070738   300A      1.079215  
     301A      1.079671   302A      1.083035   303A      1.089500  
     304A      1.092311   305A      1.095704   306A      1.096522  
     307A      1.100102   308A      1.103622   309A      1.105367  
     310A      1.112544   311A      1.116460   312A      1.121747  
     313A      1.124167   314A      1.126322   315A      1.139237  
     316A      1.147332   317A      1.149423   318A      1.152726  
     319A      1.154790   320A      1.161903   321A      1.169136  
     322A      1.169533   323A      1.177435   324A      1.185398  
     325A      1.191160   326A      1.194874   327A      1.196833  
     328A      1.200001   329A      1.201624   330A      1.204798  
     331A      1.208998   332A      1.211314   333A      1.216562  
     334A      1.224538   335A      1.233532   336A      1.235878  
     337A      1.236806   338A      1.242231   339A      1.244869  
     340A      1.250654   341A      1.254313   342A      1.257987  
     343A      1.258651   344A      1.266276   345A      1.270378  
     346A      1.274749   347A      1.284259   348A      1.294084  
     349A      1.298242   350A      1.307191   351A      1.326653  
     352A      1.328902   353A      1.336280   354A      1.340847  
     355A      1.347381   356A      1.358165   357A      1.359473  
     358A      1.360755   359A      1.363939   360A      1.367606  
     361A      1.372178   362A      1.375383   363A      1.384143  
     364A      1.385506   365A      1.394470   366A      1.398477  
     367A      1.401823   368A      1.416194   369A      1.420541  
     370A      1.425241   371A      1.429497   372A      1.431475  
     373A      1.446735   374A      1.461734   375A      1.465224  
     376A      1.476604   377A      1.481141   378A      1.492364  
     379A      1.500125   380A      1.504075   381A      1.511528  
     382A      1.519206   383A      1.522709   384A      1.524996  
     385A      1.533454   386A      1.541137   387A      1.549790  
     388A      1.553204   389A      1.556927   390A      1.565583  
     391A      1.577524   392A      1.593981   393A      1.596447  
     394A      1.603265   395A      1.607064   396A      1.629211  
     397A      1.633881   398A      1.642814   399A      1.659220  
     400A      1.669961   401A      1.671037   402A      1.676365  
     403A      1.681844   404A      1.688455   405A      1.689690  
     406A      1.697703   407A      1.699068   408A      1.700711  
     409A      1.702237   410A      1.706854   411A      1.722867  
     412A      1.729381   413A      1.733104   414A      1.739514  
     415A      1.752135   416A      1.760767   417A      1.776415  
     418A      1.779240   419A      1.788915   420A      1.802327  
     421A      1.804766   422A      1.808754   423A      1.814596  
     424A      1.820402   425A      1.829547   426A      1.838565  
     427A      1.841852   428A      1.846619   429A      1.853374  
     430A      1.856699   431A      1.859543   432A      1.869800  
     433A      1.876969   434A      1.877525   435A      1.883374  
     436A      1.890617   437A      1.898678   438A      1.909629  
     439A      1.912185   440A      1.914474   441A      1.924954  
     442A      1.931902   443A      1.933713   444A      1.935519  
     445A      1.955960   446A      1.966305   447A      1.976177  
     448A      1.979115   449A      1.979531   450A      1.985963  
     451A      1.989264   452A      1.997058   453A      2.006583  
     454A      2.015706   455A      2.023404   456A      2.025978  
     457A      2.033737   458A      2.035205   459A      2.043751  
     460A      2.047740   461A      2.050505   462A      2.062286  
     463A      2.069575   464A      2.072198   465A      2.077539  
     466A      2.085585   467A      2.090073   468A      2.096500  
     469A      2.097565   470A      2.110274   471A      2.117598  
     472A      2.119130   473A      2.127863   474A      2.134871  
     475A      2.140827   476A      2.144073   477A      2.145729  
     478A      2.154816   479A      2.163880   480A      2.168907  
     481A      2.186059   482A      2.188050   483A      2.203148  
     484A      2.216350   485A      2.240315   486A      2.243833  
     487A      2.248823   488A      2.251040   489A      2.267108  
     490A      2.271352   491A      2.285093   492A      2.298491  
     493A      2.304101   494A      2.307678   495A      2.321279  
     496A      2.329771   497A      2.340311   498A      2.347986  
     499A      2.360167   500A      2.362288   501A      2.364704  
     502A      2.381975   503A      2.385303   504A      2.393333  
     505A      2.395016   506A      2.401333   507A      2.411026  
     508A      2.416127   509A      2.424663   510A      2.435820  
     511A      2.449124   512A      2.453366   513A      2.463023  
     514A      2.488303   515A      2.492576   516A      2.515989  
     517A      2.531179   518A      2.533532   519A      2.541901  
     520A      2.555444   521A      2.562858   522A      2.579668  
     523A      2.591909   524A      2.595858   525A      2.596277  
     526A      2.621328   527A      2.631826   528A      2.648509  
     529A      2.659269   530A      2.672965   531A      2.677443  
     532A      2.706765   533A      2.730088   534A      2.740119  
     535A      2.757855   536A      2.770074   537A      2.786196  
     538A      2.799873   539A      2.804280   540A      2.813211  
     541A      2.823527   542A      2.840528   543A      2.852094  
     544A      2.880922   545A      2.901851   546A      2.906001  
     547A      2.953403   548A      2.964292   549A      3.009896  
     550A      3.031872   551A      3.052382   552A      3.086658  
     553A      3.106074   554A      3.136019   555A      3.162548  
     556A      3.172959   557A      3.181914   558A      3.187983  
     559A      3.191665   560A      3.198016   561A      3.212326  
     562A      3.221523   563A      3.227737   564A      3.243405  
     565A      3.254587   566A      3.259028   567A      3.275113  
     568A      3.282646   569A      3.301136   570A      3.313310  
     571A      3.333651   572A      3.341186   573A      3.351862  
     574A      3.361206   575A      3.363444   576A      3.370292  
     577A      3.374776   578A      3.394026   579A      3.400866  
     580A      3.402186   581A      3.406409   582A      3.411660  
     583A      3.427174   584A      3.431476   585A      3.439453  
     586A      3.459911   587A      3.461083   588A      3.476244  
     589A      3.479185   590A      3.488403   591A      3.495207  
     592A      3.506264   593A      3.518906   594A      3.530069  
     595A      3.535875   596A      3.540429   597A      3.545418  
     598A      3.553552   599A      3.559699   600A      3.573421  
     601A      3.578573   602A      3.581495   603A      3.585927  
     604A      3.595789   605A      3.598804   606A      3.604270  
     607A      3.614186   608A      3.623416   609A      3.625448  
     610A      3.646708   611A      3.656442   612A      3.658950  
     613A      3.684640   614A      3.689144   615A      3.695564  
     616A      3.699990   617A      3.702381   618A      3.719480  
     619A      3.731125   620A      3.734545   621A      3.747077  
     622A      3.754280   623A      3.761260   624A      3.772119  
     625A      3.791060   626A      3.799440   627A      3.818538  
     628A      3.824493   629A      3.833735   630A      3.843650  
     631A      3.844453   632A      3.851166   633A      3.852890  
     634A      3.871629   635A      3.881784   636A      3.885723  
     637A      3.890365   638A      3.895780   639A      3.902227  
     640A      3.905205   641A      3.918727   642A      3.925225  
     643A      3.928055   644A      3.933497   645A      3.941665  
     646A      3.958132   647A      3.962980   648A      3.970142  
     649A      3.972330   650A      3.983316   651A      3.984801  
     652A      4.000190   653A      4.002684   654A      4.008359  
     655A      4.022560   656A      4.026881   657A      4.038301  
     658A      4.042472   659A      4.052107   660A      4.066124  
     661A      4.067749   662A      4.077954   663A      4.089551  
     664A      4.099225   665A      4.115045   666A      4.115783  
     667A      4.119520   668A      4.129654   669A      4.132407  
     670A      4.143207   671A      4.145528   672A      4.165972  
     673A      4.173898   674A      4.189198   675A      4.204257  
     676A      4.207576   677A      4.219570   678A      4.222861  
     679A      4.234824   680A      4.238161   681A      4.239435  
     682A      4.255802   683A      4.259911   684A      4.269786  
     685A      4.287843   686A      4.291521   687A      4.300345  
     688A      4.311145   689A      4.314602   690A      4.335610  
     691A      4.337509   692A      4.348891   693A      4.355392  
     694A      4.362901   695A      4.368783   696A      4.378915  
     697A      4.385523   698A      4.388774   699A      4.393684  
     700A      4.405287   701A      4.410609   702A      4.414367  
     703A      4.419742   704A      4.430157   705A      4.435571  
     706A      4.446281   707A      4.454839   708A      4.462972  
     709A      4.465339   710A      4.469442   711A      4.478526  
     712A      4.480973   713A      4.497349   714A      4.508560  
     715A      4.518664   716A      4.525962   717A      4.535241  
     718A      4.555116   719A      4.571131   720A      4.592177  
     721A      4.599035   722A      4.615601   723A      4.626465  
     724A      4.674400   725A      4.690452   726A      4.699037  
     727A      4.707736   728A      4.709213   729A      4.716026  
     730A      4.724793   731A      4.740479   732A      4.742039  
     733A      4.765085   734A      4.773351   735A      4.780990  
     736A      4.791231   737A      4.808523   738A      4.834299  
     739A      4.841059   740A      4.861982   741A      4.871656  
     742A      4.881381   743A      4.884000   744A      4.897648  
     745A      4.915949   746A      4.922559   747A      4.933771  
     748A      4.962382   749A      4.970661   750A      4.988622  
     751A      4.992537   752A      5.003022   753A      5.013629  
     754A      5.025749   755A      5.040854   756A      5.054657  
     757A      5.066831   758A      5.073711   759A      5.077330  
     760A      5.083406   761A      5.091718   762A      5.095576  
     763A      5.101618   764A      5.108718   765A      5.116411  
     766A      5.129570   767A      5.142268   768A      5.146176  
     769A      5.149994   770A      5.150855   771A      5.161886  
     772A      5.173213   773A      5.190200   774A      5.196424  
     775A      5.203014   776A      5.226873   777A      5.241856  
     778A      5.246547   779A      5.255726   780A      5.271475  
     781A      5.276689   782A      5.278250   783A      5.289427  
     784A      5.302707   785A      5.311622   786A      5.322854  
     787A      5.334159   788A      5.354876   789A      5.370771  
     790A      5.394533   791A      5.416182   792A      5.423460  
     793A      5.427446   794A      5.432024   795A      5.458457  
     796A      5.466945   797A      5.504788   798A      5.508715  
     799A      5.518138   800A      5.548713   801A      5.561448  
     802A      5.606095   803A      5.613340   804A      5.636660  
     805A      5.662656   806A      5.681510   807A      5.693699  
     808A      5.717577   809A      5.740518   810A      5.760252  
     811A      5.771527   812A      5.786445   813A      5.809506  
     814A      5.816839   815A      5.834588   816A      5.852479  
     817A      5.883173   818A      5.892941   819A      5.911550  
     820A      5.924597   821A      5.959056   822A      5.979988  
     823A      6.054542   824A      6.079871   825A      6.105311  
     826A      6.118542   827A      6.128467   828A      6.169596  
     829A      6.191421   830A      6.202987   831A      6.231071  
     832A      6.247116   833A      6.261188   834A      6.280283  
     835A      6.307950   836A      6.321395   837A      6.334121  
     838A      6.381521   839A      6.427882   840A      6.439920  
     841A      6.482525   842A      6.563237   843A      6.565027  
     844A      6.612847   845A      6.652676   846A      6.687765  
     847A      6.763323   848A      6.786572   849A      6.814656  
     850A      6.868476   851A      6.894328   852A      6.909006  
     853A      6.989947   854A      7.023947   855A      7.054305  
     856A      7.145176   857A      7.216624   858A      7.303575  
     859A      7.424928   860A      7.823859   861A     15.923757  
     862A     16.051089   863A     16.069876   864A     16.415868  
     865A     17.130766   866A     17.383375   867A     18.445887  
     868A     18.546886   869A     18.856018   870A     19.365092  
     871A     19.472034   872A     19.676118   873A     19.884403  
     874A     20.164770  

    Final Occupation by Irrep:
              A 
    DOCC [    48 ]

  @DF-RHF Final Energy:  -569.26586543712915

   => Energetics <=

    Nuclear Repulsion Energy =            748.8230113934893097
    One-Electron Energy =               -2256.2536742739553119
    Two-Electron Energy =                 938.1647974433369654
    Total Energy =                       -569.2658654371291505

Computation Completed

*** tstop() called on node37.bme.utexas.edu at Mon Nov  9 07:22:56 2020
Module time:
	user time   =     985.11 seconds =      16.42 minutes
	system time =     188.36 seconds =       3.14 minutes
	total time  =        280 seconds =       4.67 minutes
Total time:
	user time   =     985.11 seconds =      16.42 minutes
	system time =     188.36 seconds =       3.14 minutes
	total time  =        280 seconds =       4.67 minutes
   => Loading Basis Set <=

    Name: (AUG-CC-PVTZ AUX)
    Role: RIFIT
    Keyword: DF_BASIS_MP2
    atoms 1-2   entry N          line   206 file /home/xy3866/psi4conda/share/psi4/basis/aug-cc-pvtz-ri.gbs 
    atoms 3-14  entry C          line   148 file /home/xy3866/psi4conda/share/psi4/basis/aug-cc-pvtz-ri.gbs 
    atoms 15-24 entry H          line    30 file /home/xy3866/psi4conda/share/psi4/basis/aug-cc-pvtz-ri.gbs 


*** tstart() called on node37.bme.utexas.edu
*** at Mon Nov  9 07:22:56 2020


  //>>>>>>>>>>>>>>>>>>>>>>>>>>>>>>>>>>>//
  //               DFMP2               //
  //<<<<<<<<<<<<<<<<<<<<<<<<<<<<<<<<<<<//

	 --------------------------------------------------------
	                          DF-MP2                         
	      2nd-Order Density-Fitted Moller-Plesset Theory     
	              RMP2 Wavefunction,   8 Threads             
	                                                         
	        Rob Parrish, Justin Turney, Andy Simmonett,      
	           Ed Hohenstein, and C. David Sherrill          
	 --------------------------------------------------------

   => Auxiliary Basis Set <=

  Basis Set: (AUG-CC-PVTZ AUX)
    Blend: AUG-CC-PVTZ-RI
    Number of shells: 532
    Number of basis function: 1944
    Number of Cartesian functions: 2454
    Spherical Harmonics?: true
    Max angular momentum: 4

	 --------------------------------------------------------
	                 NBF =   874, NAUX =  1944
	 --------------------------------------------------------
	   CLASS    FOCC     OCC    AOCC    AVIR     VIR    FVIR
	   PAIRS       0      48      48     826     826       0
	 --------------------------------------------------------

  DFHelper Memory: AOs need 9.372 GiB; user supplied 22.352 GiB. Using in-core AOs.


         ------------------------------------------------------------
                                     CPHF                           
                                  Rob Parrish                       
         ------------------------------------------------------------

  ==> Geometry <==

    Molecular point group: c1
    Full point group: C1

    Geometry (in Angstrom), charge = 0, multiplicity = 1:

       Center              X                  Y                   Z               Mass       
    ------------   -----------------  -----------------  -----------------  -----------------
         N            0.383364349388    -0.512542623058     0.013060979197    14.003074004430
         N           -0.383275650612     0.512030376942     0.012819979197    14.003074004430
         C            1.767234349388    -0.186200623058     0.013161979197    12.000000000000
         C           -1.767153650612     0.185799376942     0.013059979197    12.000000000000
         C            2.629659349388    -1.288971623058     0.012774979197    12.000000000000
         C           -2.282051650612    -1.120395623058     0.013609979197    12.000000000000
         C            2.281667749388     1.120316076942    -0.186371920803    12.000000000000
         C           -2.629304650612     1.288830376942     0.012779979197    12.000000000000
         C            4.010241349388    -1.092729623058     0.012806979197    12.000000000000
         C           -3.661265650612    -1.304785623058     0.013631979197    12.000000000000
         C            3.660897349388     1.305045376942     0.013702979197    12.000000000000
         C           -4.009953650612     1.093094376942     0.012841979197    12.000000000000
         C            4.527635349388     0.204469376942     0.013329979197    12.000000000000
         C           -4.527702650612    -0.203944623058     0.013328979197    12.000000000000
         H            2.194178349388    -2.285007623058     0.012356979197     1.007825032230
         H           -1.594941650612    -1.960768623058     0.013915979197     1.007825032230
         H            1.594283349388     1.960243376942     0.013902979197     1.007825032230
         H           -2.193340650612     2.284656376942     0.012434979197     1.007825032230
         H            4.680832349388    -1.948451623058     0.012552979197     1.007825032230
         H           -4.069263650612    -2.312909623058     0.014156979197     1.007825032230
         H            4.068499349388     2.313327376942     0.014008979197     1.007825032230
         H           -4.680239650612     1.949052376942     0.012708979197     1.007825032230
         H            5.603657349388     0.361399376942     0.013208979197     1.007825032230
         H           -5.603749650612    -0.360701623058     0.013406979197     1.007825032230

  Nuclear repulsion =  748.823011393489310
  Reference energy  = -569.265865437129150

  ==> Basis Set <==

  Basis Set: AUG-CC-PVTZ
    Blend: AUG-CC-PVTZ
    Number of shells: 286
    Number of basis function: 874
    Number of Cartesian functions: 1020
    Spherical Harmonics?: true
    Max angular momentum: 3

  ==> CGRSolver (by Rob Parrish) <==

   Number of roots    =         1
   Preconditioning    =    JACOBI
   Convergence cutoff =     1E-06
   Maximum iterations =       100

  ==> CPHFRHamiltonian (by Rob Parrish) <== 

  ==> MemDFJK: Density-Fitted J/K Matrices <==

    J tasked:                   Yes
    K tasked:                   Yes
    wK tasked:                   No
    OpenMP threads:               8
    Memory [MiB]:             22888
    Algorithm:                 Disk
    Schwarz Cutoff:           1E-12
    Mask sparsity (%):      16.1309
    Fitting Condition:        1E-10

   => Auxiliary Basis Set <=

  Basis Set: (AUG-CC-PVTZ AUX)
    Blend: AUG-CC-PVTZ-JKFIT
    Number of shells: 560
    Number of basis function: 1916
    Number of Cartesian functions: 2384
    Spherical Harmonics?: true
    Max angular momentum: 4

  ==> CPHF Iterations <==

  => Iterations <=

             Iter  Converged  Remaining    Residual
  CGR           1          0          1   7.906E-02
  CGR           2          0          1   1.899E-02
  CGR           3          0          1   8.569E-03
  CGR           4          0          1   3.017E-03
  CGR           5          0          1   1.346E-03
  CGR           6          0          1   8.040E-04
  CGR           7          0          1   3.805E-04
  CGR           8          0          1   1.410E-04
  CGR           9          0          1   5.962E-05
  CGR          10          0          1   2.514E-05
  CGR          11          0          1   1.323E-05
  CGR          12          0          1   5.686E-06
  CGR          13          0          1   1.766E-06
  CGR          14          1          0   5.756E-07

    CGRSolver converged.

	-----------------------------------------------------------
	 ==================> DF-MP2 Energies <==================== 
	-----------------------------------------------------------
	 Reference Energy          =    -569.2658654371291505 [Eh]
	 Singles Energy            =      -0.0000000000000000 [Eh]
	 Same-Spin Energy          =      -0.6335463128489721 [Eh]
	 Opposite-Spin Energy      =      -1.9435614749481238 [Eh]
	 Correlation Energy        =      -2.5771077877970958 [Eh]
	 Total Energy              =    -571.8429732249262543 [Eh]
	-----------------------------------------------------------
	 ================> DF-SCS-MP2 Energies <================== 
	-----------------------------------------------------------
	 SCS Same-Spin Scale       =       0.3333333333333333 [-]
	 SCS Opposite-Spin Scale   =       1.2000000000000000 [-]
	 SCS Same-Spin Energy      =      -0.2111821042829907 [Eh]
	 SCS Opposite-Spin Energy  =      -2.3322737699377485 [Eh]
	 SCS Correlation Energy    =      -2.5434558742207392 [Eh]
	 SCS Total Energy          =    -571.8093213113498905 [Eh]
	-----------------------------------------------------------



Properties will be evaluated at   0.000000,  -0.000000,  -0.000000 [a0]

Properties computed using the MP2 density matrix

  Nuclear Dipole Moment: [e a0]
     X:    -0.0001      Y:     0.0008      Z:     0.1243

  Electronic Dipole Moment: [e a0]
     X:     0.0110      Y:    -0.0249      Z:    -0.0938

  Dipole Moment: [e a0]
     X:     0.0109      Y:    -0.0241      Z:     0.0305     Total:     0.0404

  Dipole Moment: [D]
     X:     0.0278      Y:    -0.0614      Z:     0.0776     Total:     0.1027


*** tstop() called on node37.bme.utexas.edu at Mon Nov  9 07:36:20 2020
Module time:
	user time   =    4037.36 seconds =      67.29 minutes
	system time =     498.73 seconds =       8.31 minutes
	total time  =        804 seconds =      13.40 minutes
Total time:
	user time   =    5022.84 seconds =      83.71 minutes
	system time =     687.10 seconds =      11.45 minutes
	total time  =       1084 seconds =      18.07 minutes

    Psi4 stopped on: Monday, 09 November 2020 07:36AM
    Psi4 wall time for execution: 0:18:05.03

*** Psi4 exiting successfully. Buy a developer a beer!
