70153885                                                                
Freq      RMP2-FC                                                     6-31G(d)            
Number of atoms                            I               15
Info1-9                                    I   N=           9
          27          25        1002           0           0         100
           6           2           1
Charge                                     I                0
Multiplicity                               I                1
Number of electrons                        I               62
Number of alpha electrons                  I               31
Number of beta electrons                   I               31
Number of basis functions                  I              134
Number of independent functions            I              134
Number of point charges in /Mol/           I                0
Number of translation vectors              I                0
Atomic numbers                             I   N=          15
           9           8           8           6           6           6
           6           6           1           1           1           1
           1           1           1
Nuclear charges                            R   N=          15
  9.00000000E+00  8.00000000E+00  8.00000000E+00  6.00000000E+00  6.00000000E+00
  6.00000000E+00  6.00000000E+00  6.00000000E+00  1.00000000E+00  1.00000000E+00
  1.00000000E+00  1.00000000E+00  1.00000000E+00  1.00000000E+00  1.00000000E+00
Current cartesian coordinates              R   N=          45
  1.78835907E+00  3.08559296E+00 -1.12460317E-05 -2.70941500E+00  1.21037497E+00
  1.32086470E-07 -1.32654895E+00 -2.86719977E+00 -1.59256193E-05  1.67702540E+00
  4.88984391E-01 -7.15828028E-06  3.69767215E+00 -8.91181093E-01 -1.42326016E+00
  3.69765706E+00 -8.91173588E-01  1.42328416E+00 -9.20582844E-01 -5.92826444E-01
 -9.22753257E-06 -5.25616364E+00  2.27331088E-01  1.11418892E-05  5.07194521E+00
  2.99380722E-01 -2.36884728E+00  3.14720099E+00 -2.60696241E+00 -2.39853638E+00
  3.14718361E+00 -2.60694509E+00  2.39857560E+00  5.07192121E+00  2.99391604E-01
  2.36888211E+00 -6.46258991E+00  1.89145907E+00  2.25920757E-05 -5.57840585E+00
 -9.19439591E-01  1.68204619E+00 -5.57842403E+00 -9.19428671E-01 -1.68202782E+00
Force Field                                I                0
Int Atom Types                             I   N=          15
           0           0           0           0           0           0
           0           0           0           0           0           0
           0           0           0
MM charges                                 R   N=          15
  0.00000000E+00  0.00000000E+00  0.00000000E+00  0.00000000E+00  0.00000000E+00
  0.00000000E+00  0.00000000E+00  0.00000000E+00  0.00000000E+00  0.00000000E+00
  0.00000000E+00  0.00000000E+00  0.00000000E+00  0.00000000E+00  0.00000000E+00
Integer atomic weights                     I   N=          15
          19          16          16          12          12          12
          12          12           1           1           1           1
           1           1           1
Real atomic weights                        R   N=          15
  1.89984032E+01  1.59949146E+01  1.59949146E+01  1.20000000E+01  1.20000000E+01
  1.20000000E+01  1.20000000E+01  1.20000000E+01  1.00782504E+00  1.00782504E+00
  1.00782504E+00  1.00782504E+00  1.00782504E+00  1.00782504E+00  1.00782504E+00
Atom fragment info                         I   N=          15
           0           0           0           0           0           0
           0           0           0           0           0           0
           0           0           0
Atom residue num                           I   N=          15
           0           0           0           0           0           0
           0           0           0           0           0           0
           0           0           0
Nuclear spins                              I   N=          15
           1           0           0           0           0           0
           0           0           1           1           1           1
           1           1           1
Nuclear ZEff                               R   N=          15
 -6.75000000E+00 -5.60000000E+00 -5.60000000E+00 -3.60000000E+00 -3.60000000E+00
 -3.60000000E+00 -3.60000000E+00 -3.60000000E+00 -1.00000000E+00 -1.00000000E+00
 -1.00000000E+00 -1.00000000E+00 -1.00000000E+00 -1.00000000E+00 -1.00000000E+00
Nuclear QMom                               R   N=          15
  0.00000000E+00  0.00000000E+00  0.00000000E+00  0.00000000E+00  0.00000000E+00
  0.00000000E+00  0.00000000E+00  0.00000000E+00  0.00000000E+00  0.00000000E+00
  0.00000000E+00  0.00000000E+00  0.00000000E+00  0.00000000E+00  0.00000000E+00
Nuclear GFac                               R   N=          15
  2.62886700E+00  0.00000000E+00  0.00000000E+00  0.00000000E+00  0.00000000E+00
  0.00000000E+00  0.00000000E+00  0.00000000E+00  2.79284600E+00  2.79284600E+00
  2.79284600E+00  2.79284600E+00  2.79284600E+00  2.79284600E+00  2.79284600E+00
MicOpt                                     I   N=          15
          -1          -1          -1          -1          -1          -1
          -1          -1          -1          -1          -1          -1
          -1          -1          -1
Number of contracted shells                I               46
Number of primitive shells                 I              116
Pure/Cartesian d shells                    I                1
Pure/Cartesian f shells                    I                0
Highest angular momentum                   I                2
Largest degree of contraction              I                6
Shell types                                I   N=          46
           0          -1          -1           2           0          -1
          -1           2           0          -1          -1           2
           0          -1          -1           2           0          -1
          -1           2           0          -1          -1           2
           0          -1          -1           2           0          -1
          -1           2           0           0           0           0
           0           0           0           0           0           0
           0           0           0           0
Number of primitives per shell             I   N=          46
           6           3           1           1           6           3
           1           1           6           3           1           1
           6           3           1           1           6           3
           1           1           6           3           1           1
           6           3           1           1           6           3
           1           1           3           1           3           1
           3           1           3           1           3           1
           3           1           3           1
Shell to atom map                          I   N=          46
           1           1           1           1           2           2
           2           2           3           3           3           3
           4           4           4           4           5           5
           5           5           6           6           6           6
           7           7           7           7           8           8
           8           8           9           9          10          10
          11          11          12          12          13          13
          14          14          15          15
Primitive exponents                        R   N=         116
  7.00171309E+03  1.05136609E+03  2.39285690E+02  6.73974453E+01  2.15199573E+01
  7.40310130E+00  2.08479528E+01  4.80830834E+00  1.34406986E+00  3.58151393E-01
  8.00000000E-01  5.48467166E+03  8.25234946E+02  1.88046958E+02  5.29645000E+01
  1.68975704E+01  5.79963534E+00  1.55396162E+01  3.59993359E+00  1.01376175E+00
  2.70005823E-01  8.00000000E-01  5.48467166E+03  8.25234946E+02  1.88046958E+02
  5.29645000E+01  1.68975704E+01  5.79963534E+00  1.55396162E+01  3.59993359E+00
  1.01376175E+00  2.70005823E-01  8.00000000E-01  3.04752488E+03  4.57369518E+02
  1.03948685E+02  2.92101553E+01  9.28666296E+00  3.16392696E+00  7.86827235E+00
  1.88128854E+00  5.44249258E-01  1.68714478E-01  8.00000000E-01  3.04752488E+03
  4.57369518E+02  1.03948685E+02  2.92101553E+01  9.28666296E+00  3.16392696E+00
  7.86827235E+00  1.88128854E+00  5.44249258E-01  1.68714478E-01  8.00000000E-01
  3.04752488E+03  4.57369518E+02  1.03948685E+02  2.92101553E+01  9.28666296E+00
  3.16392696E+00  7.86827235E+00  1.88128854E+00  5.44249258E-01  1.68714478E-01
  8.00000000E-01  3.04752488E+03  4.57369518E+02  1.03948685E+02  2.92101553E+01
  9.28666296E+00  3.16392696E+00  7.86827235E+00  1.88128854E+00  5.44249258E-01
  1.68714478E-01  8.00000000E-01  3.04752488E+03  4.57369518E+02  1.03948685E+02
  2.92101553E+01  9.28666296E+00  3.16392696E+00  7.86827235E+00  1.88128854E+00
  5.44249258E-01  1.68714478E-01  8.00000000E-01  1.87311370E+01  2.82539436E+00
  6.40121692E-01  1.61277759E-01  1.87311370E+01  2.82539436E+00  6.40121692E-01
  1.61277759E-01  1.87311370E+01  2.82539436E+00  6.40121692E-01  1.61277759E-01
  1.87311370E+01  2.82539436E+00  6.40121692E-01  1.61277759E-01  1.87311370E+01
  2.82539436E+00  6.40121692E-01  1.61277759E-01  1.87311370E+01  2.82539436E+00
  6.40121692E-01  1.61277759E-01  1.87311370E+01  2.82539436E+00  6.40121692E-01
  1.61277759E-01
Contraction coefficients                   R   N=         116
  1.81961690E-03  1.39160796E-02  6.84053245E-02  2.33185760E-01  4.71267439E-01
  3.56618546E-01 -1.08506975E-01 -1.46451658E-01  1.12868858E+00  1.00000000E+00
  1.00000000E+00  1.83107443E-03  1.39501722E-02  6.84450781E-02  2.32714336E-01
  4.70192898E-01  3.58520853E-01 -1.10777550E-01 -1.48026263E-01  1.13076702E+00
  1.00000000E+00  1.00000000E+00  1.83107443E-03  1.39501722E-02  6.84450781E-02
  2.32714336E-01  4.70192898E-01  3.58520853E-01 -1.10777550E-01 -1.48026263E-01
  1.13076702E+00  1.00000000E+00  1.00000000E+00  1.83473713E-03  1.40373228E-02
  6.88426223E-02  2.32184443E-01  4.67941348E-01  3.62311985E-01 -1.19332420E-01
 -1.60854152E-01  1.14345644E+00  1.00000000E+00  1.00000000E+00  1.83473713E-03
  1.40373228E-02  6.88426223E-02  2.32184443E-01  4.67941348E-01  3.62311985E-01
 -1.19332420E-01 -1.60854152E-01  1.14345644E+00  1.00000000E+00  1.00000000E+00
  1.83473713E-03  1.40373228E-02  6.88426223E-02  2.32184443E-01  4.67941348E-01
  3.62311985E-01 -1.19332420E-01 -1.60854152E-01  1.14345644E+00  1.00000000E+00
  1.00000000E+00  1.83473713E-03  1.40373228E-02  6.88426223E-02  2.32184443E-01
  4.67941348E-01  3.62311985E-01 -1.19332420E-01 -1.60854152E-01  1.14345644E+00
  1.00000000E+00  1.00000000E+00  1.83473713E-03  1.40373228E-02  6.88426223E-02
  2.32184443E-01  4.67941348E-01  3.62311985E-01 -1.19332420E-01 -1.60854152E-01
  1.14345644E+00  1.00000000E+00  1.00000000E+00  3.34946043E-02  2.34726953E-01
  8.13757326E-01  1.00000000E+00  3.34946043E-02  2.34726953E-01  8.13757326E-01
  1.00000000E+00  3.34946043E-02  2.34726953E-01  8.13757326E-01  1.00000000E+00
  3.34946043E-02  2.34726953E-01  8.13757326E-01  1.00000000E+00  3.34946043E-02
  2.34726953E-01  8.13757326E-01  1.00000000E+00  3.34946043E-02  2.34726953E-01
  8.13757326E-01  1.00000000E+00  3.34946043E-02  2.34726953E-01  8.13757326E-01
  1.00000000E+00
P(S=P) Contraction coefficients            R   N=         116
  0.00000000E+00  0.00000000E+00  0.00000000E+00  0.00000000E+00  0.00000000E+00
  0.00000000E+00  7.16287242E-02  3.45912103E-01  7.22469956E-01  1.00000000E+00
  0.00000000E+00  0.00000000E+00  0.00000000E+00  0.00000000E+00  0.00000000E+00
  0.00000000E+00  0.00000000E+00  7.08742682E-02  3.39752839E-01  7.27158577E-01
  1.00000000E+00  0.00000000E+00  0.00000000E+00  0.00000000E+00  0.00000000E+00
  0.00000000E+00  0.00000000E+00  0.00000000E+00  7.08742682E-02  3.39752839E-01
  7.27158577E-01  1.00000000E+00  0.00000000E+00  0.00000000E+00  0.00000000E+00
  0.00000000E+00  0.00000000E+00  0.00000000E+00  0.00000000E+00  6.89990666E-02
  3.16423961E-01  7.44308291E-01  1.00000000E+00  0.00000000E+00  0.00000000E+00
  0.00000000E+00  0.00000000E+00  0.00000000E+00  0.00000000E+00  0.00000000E+00
  6.89990666E-02  3.16423961E-01  7.44308291E-01  1.00000000E+00  0.00000000E+00
  0.00000000E+00  0.00000000E+00  0.00000000E+00  0.00000000E+00  0.00000000E+00
  0.00000000E+00  6.89990666E-02  3.16423961E-01  7.44308291E-01  1.00000000E+00
  0.00000000E+00  0.00000000E+00  0.00000000E+00  0.00000000E+00  0.00000000E+00
  0.00000000E+00  0.00000000E+00  6.89990666E-02  3.16423961E-01  7.44308291E-01
  1.00000000E+00  0.00000000E+00  0.00000000E+00  0.00000000E+00  0.00000000E+00
  0.00000000E+00  0.00000000E+00  0.00000000E+00  6.89990666E-02  3.16423961E-01
  7.44308291E-01  1.00000000E+00  0.00000000E+00  0.00000000E+00  0.00000000E+00
  0.00000000E+00  0.00000000E+00  0.00000000E+00  0.00000000E+00  0.00000000E+00
  0.00000000E+00  0.00000000E+00  0.00000000E+00  0.00000000E+00  0.00000000E+00
  0.00000000E+00  0.00000000E+00  0.00000000E+00  0.00000000E+00  0.00000000E+00
  0.00000000E+00  0.00000000E+00  0.00000000E+00  0.00000000E+00  0.00000000E+00
  0.00000000E+00  0.00000000E+00  0.00000000E+00  0.00000000E+00  0.00000000E+00
  0.00000000E+00
Coordinates of each shell                  R   N=         138
  1.78835907E+00  3.08559296E+00 -1.12460317E-05  1.78835907E+00  3.08559296E+00
 -1.12460317E-05  1.78835907E+00  3.08559296E+00 -1.12460317E-05  1.78835907E+00
  3.08559296E+00 -1.12460317E-05 -2.70941500E+00  1.21037497E+00  1.32086470E-07
 -2.70941500E+00  1.21037497E+00  1.32086470E-07 -2.70941500E+00  1.21037497E+00
  1.32086470E-07 -2.70941500E+00  1.21037497E+00  1.32086470E-07 -1.32654895E+00
 -2.86719977E+00 -1.59256193E-05 -1.32654895E+00 -2.86719977E+00 -1.59256193E-05
 -1.32654895E+00 -2.86719977E+00 -1.59256193E-05 -1.32654895E+00 -2.86719977E+00
 -1.59256193E-05  1.67702540E+00  4.88984391E-01 -7.15828028E-06  1.67702540E+00
  4.88984391E-01 -7.15828028E-06  1.67702540E+00  4.88984391E-01 -7.15828028E-06
  1.67702540E+00  4.88984391E-01 -7.15828028E-06  3.69767215E+00 -8.91181093E-01
 -1.42326016E+00  3.69767215E+00 -8.91181093E-01 -1.42326016E+00  3.69767215E+00
 -8.91181093E-01 -1.42326016E+00  3.69767215E+00 -8.91181093E-01 -1.42326016E+00
  3.69765706E+00 -8.91173588E-01  1.42328416E+00  3.69765706E+00 -8.91173588E-01
  1.42328416E+00  3.69765706E+00 -8.91173588E-01  1.42328416E+00  3.69765706E+00
 -8.91173588E-01  1.42328416E+00 -9.20582844E-01 -5.92826444E-01 -9.22753257E-06
 -9.20582844E-01 -5.92826444E-01 -9.22753257E-06 -9.20582844E-01 -5.92826444E-01
 -9.22753257E-06 -9.20582844E-01 -5.92826444E-01 -9.22753257E-06 -5.25616364E+00
  2.27331088E-01  1.11418892E-05 -5.25616364E+00  2.27331088E-01  1.11418892E-05
 -5.25616364E+00  2.27331088E-01  1.11418892E-05 -5.25616364E+00  2.27331088E-01
  1.11418892E-05  5.07194521E+00  2.99380722E-01 -2.36884728E+00  5.07194521E+00
  2.99380722E-01 -2.36884728E+00  3.14720099E+00 -2.60696241E+00 -2.39853638E+00
  3.14720099E+00 -2.60696241E+00 -2.39853638E+00  3.14718361E+00 -2.60694509E+00
  2.39857560E+00  3.14718361E+00 -2.60694509E+00  2.39857560E+00  5.07192121E+00
  2.99391604E-01  2.36888211E+00  5.07192121E+00  2.99391604E-01  2.36888211E+00
 -6.46258991E+00  1.89145907E+00  2.25920757E-05 -6.46258991E+00  1.89145907E+00
  2.25920757E-05 -5.57840585E+00 -9.19439591E-01  1.68204619E+00 -5.57840585E+00
 -9.19439591E-01  1.68204619E+00 -5.57842403E+00 -9.19428671E-01 -1.68202782E+00
 -5.57842403E+00 -9.19428671E-01 -1.68202782E+00
Constraint Structure                       R   N=          45
  1.78835907E+00  3.08559296E+00 -1.12460317E-05 -2.70941500E+00  1.21037497E+00
  1.32086470E-07 -1.32654895E+00 -2.86719977E+00 -1.59256193E-05  1.67702540E+00
  4.88984391E-01 -7.15828028E-06  3.69767215E+00 -8.91181093E-01 -1.42326016E+00
  3.69765706E+00 -8.91173588E-01  1.42328416E+00 -9.20582844E-01 -5.92826444E-01
 -9.22753257E-06 -5.25616364E+00  2.27331088E-01  1.11418892E-05  5.07194521E+00
  2.99380722E-01 -2.36884728E+00  3.14720099E+00 -2.60696241E+00 -2.39853638E+00
  3.14718361E+00 -2.60694509E+00  2.39857560E+00  5.07192121E+00  2.99391604E-01
  2.36888211E+00 -6.46258991E+00  1.89145907E+00  2.25920757E-05 -5.57840585E+00
 -9.19439591E-01  1.68204619E+00 -5.57842403E+00 -9.19428671E-01 -1.68202782E+00
Num ILSW                                   I              100
ILSW                                       I   N=         100
           0           1           0           0           2           0
           0           0           0           0           0          -1
           0           0           0           0           0           0
           0           0           0           0           1           0
           1           0           0           0           0           0
           0           0      100000           0          -1           0
           0           0           0           0           0           0
           0           0           0           1           1           0
           0           0           1           0           0           0
           0           0           4          40           0           0
           0           0           0           0           0           0
           0           0           0           0           0           0
           0           0           0           0           0           0
           0           0           0           0           0           0
           0           0           0           0           0           0
           0           0           0           0           0           0
           0           0           0           0
Num RLSW                                   I               40
RLSW                                       R   N=          40
  1.00000000E+00  1.00000000E+00  1.00000000E+00  1.00000000E+00  1.00000000E+00
  0.00000000E+00  0.00000000E+00  1.00000000E+00  0.00000000E+00  0.00000000E+00
  0.00000000E+00  0.00000000E+00  1.00000000E+00  0.00000000E+00  0.00000000E+00
  0.00000000E+00  0.00000000E+00  1.00000000E+00  0.00000000E+00  0.00000000E+00
  0.00000000E+00  0.00000000E+00  1.00000000E+00  0.00000000E+00  0.00000000E+00
  0.00000000E+00  0.00000000E+00  1.00000000E+00  0.00000000E+00  0.00000000E+00
  0.00000000E+00  0.00000000E+00  0.00000000E+00  0.00000000E+00  0.00000000E+00
  0.00000000E+00  0.00000000E+00  0.00000000E+00  1.00000000E+00  1.00000000E+00
MxBond                                     I                4
NBond                                      I   N=          15
           1           2           1           4           4           4
           3           4           1           1           1           1
           1           1           1
IBond                                      I   N=          60
           4           0           0           0           7           8
           0           0           7           0           0           0
           1           5           6           7           4           6
           9          10           4           5          11          12
           2           3           4           0           2          13
          14          15           5           0           0           0
           5           0           0           0           6           0
           0           0           6           0           0           0
           8           0           0           0           8           0
           0           0           8           0           0           0
RBond                                      R   N=          60
  1.00000000E+00  0.00000000E+00  0.00000000E+00  0.00000000E+00  1.50000000E+00
  1.00000000E+00  0.00000000E+00  0.00000000E+00  2.00000000E+00  0.00000000E+00
  0.00000000E+00  0.00000000E+00  1.00000000E+00  1.00000000E+00  1.00000000E+00
  1.00000000E+00  1.00000000E+00  1.00000000E+00  1.00000000E+00  1.00000000E+00
  1.00000000E+00  1.00000000E+00  1.00000000E+00  1.00000000E+00  1.50000000E+00
  2.00000000E+00  1.00000000E+00  0.00000000E+00  1.00000000E+00  1.00000000E+00
  1.00000000E+00  1.00000000E+00  1.00000000E+00  0.00000000E+00  0.00000000E+00
  0.00000000E+00  1.00000000E+00  0.00000000E+00  0.00000000E+00  0.00000000E+00
  1.00000000E+00  0.00000000E+00  0.00000000E+00  0.00000000E+00  1.00000000E+00
  0.00000000E+00  0.00000000E+00  0.00000000E+00  1.00000000E+00  0.00000000E+00
  0.00000000E+00  0.00000000E+00  1.00000000E+00  0.00000000E+00  0.00000000E+00
  0.00000000E+00  1.00000000E+00  0.00000000E+00  0.00000000E+00  0.00000000E+00
Virial Ratio                               R      2.002530409669062E+00
SCF Energy                                 R     -4.425467505127959E+02
MP2 Energy                                 R     -4.437118996377108E+02
Total Energy                               R     -4.437118996377108E+02
Post-SCF wavefunction norm                 R      1.642610710921959E+00
RMS Force                                  R      7.507277804805611E-07
RMS Density                                R      1.122957813981915E-09
External E-field                           R   N=          35
  0.00000000E+00  0.00000000E+00  0.00000000E+00  0.00000000E+00  0.00000000E+00
  0.00000000E+00  0.00000000E+00  0.00000000E+00  0.00000000E+00  0.00000000E+00
  0.00000000E+00  0.00000000E+00  0.00000000E+00  0.00000000E+00  0.00000000E+00
  0.00000000E+00  0.00000000E+00  0.00000000E+00  0.00000000E+00  0.00000000E+00
  0.00000000E+00  0.00000000E+00  0.00000000E+00  0.00000000E+00  0.00000000E+00
  0.00000000E+00  0.00000000E+00  0.00000000E+00  0.00000000E+00  0.00000000E+00
  0.00000000E+00  0.00000000E+00  0.00000000E+00  0.00000000E+00  0.00000000E+00
IOpCl                                      I                0
IROHF                                      I                0
Alpha Orbital Energies                     R   N=         134
 -2.62959619E+01 -2.06208709E+01 -2.05603805E+01 -1.13982341E+01 -1.13371308E+01
 -1.12925592E+01 -1.12519272E+01 -1.12512674E+01 -1.60151136E+00 -1.46356924E+00
 -1.36184577E+00 -1.17038647E+00 -9.98127507E-01 -8.90550033E-01 -8.53825237E-01
 -7.76774423E-01 -7.53622774E-01 -7.04000488E-01 -6.82636435E-01 -6.64585148E-01
 -6.62497580E-01 -6.41683039E-01 -6.21460267E-01 -5.85683490E-01 -5.62955524E-01
 -5.37083413E-01 -5.33037058E-01 -4.78582984E-01 -4.67678381E-01 -4.39364816E-01
 -4.29457115E-01  1.66009611E-01  2.37864407E-01  2.51022471E-01  2.63715539E-01
  2.88873567E-01  3.03799054E-01  3.08419483E-01  3.19467277E-01  3.49524469E-01
  3.66615065E-01  3.71932347E-01  3.83065389E-01  4.36064578E-01  4.84188298E-01
  5.36369868E-01  5.82561121E-01  6.77497976E-01  7.23944518E-01  7.34185805E-01
  7.56235791E-01  7.75895960E-01  8.04889376E-01  8.24904546E-01  8.35990856E-01
  8.51255399E-01  8.75958384E-01  9.02461924E-01  9.34334642E-01  9.38668196E-01
  9.72957604E-01  1.02190089E+00  1.06532095E+00  1.10572186E+00  1.11883339E+00
  1.12350789E+00  1.14078016E+00  1.16214160E+00  1.17493437E+00  1.19024651E+00
  1.19326877E+00  1.22019763E+00  1.26574663E+00  1.29615477E+00  1.35504820E+00
  1.39250039E+00  1.40478687E+00  1.47782200E+00  1.49224609E+00  1.51210696E+00
  1.63283599E+00  1.65158754E+00  1.71347075E+00  1.74028316E+00  1.75263389E+00
  1.79328915E+00  1.86515351E+00  1.89059821E+00  1.94159557E+00  1.95440012E+00
  1.99539275E+00  2.04662935E+00  2.10007023E+00  2.10179228E+00  2.14091808E+00
  2.16310927E+00  2.16899739E+00  2.21045898E+00  2.26814464E+00  2.31000802E+00
  2.32956691E+00  2.33644899E+00  2.37914472E+00  2.41460515E+00  2.42329496E+00
  2.43401178E+00  2.49085766E+00  2.57406589E+00  2.57769977E+00  2.60769740E+00
  2.61912391E+00  2.65147640E+00  2.71734988E+00  2.76822308E+00  2.80452830E+00
  2.85153505E+00  2.92733437E+00  2.97123995E+00  2.98858758E+00  3.09642279E+00
  3.15400715E+00  3.18350532E+00  3.29341786E+00  3.36300339E+00  3.52678929E+00
  3.54200230E+00  4.36700038E+00  4.54243390E+00  4.64410797E+00  4.68492450E+00
  4.72944413E+00  4.81358733E+00  5.01545935E+00  5.67021795E+00
Alpha MO coefficients                      R   N=       17956
  9.94447711E-01  1.78647244E-02 -2.46955191E-05 -9.16188185E-04  1.23744584E-09
  7.72562837E-03  3.42351772E-06  7.20980051E-04 -1.53140787E-09 -4.45538528E-03
 -5.00281885E-03 -4.46750307E-03 -2.40189488E-05  1.27928695E-10  1.06201881E-09
  2.92621708E-06  9.74247665E-06  2.24815863E-05  1.57625286E-05  1.47444190E-11
  4.92717234E-05 -4.81202812E-05 -6.91898178E-05 -6.23849964E-11  5.42413651E-06
  1.28093152E-05  2.58579527E-05 -1.39398916E-05 -2.09621949E-11 -2.15637600E-11
  3.01042647E-06  1.69983701E-05 -1.88637430E-06  1.09330998E-05  2.18078777E-11
 -1.14738515E-04  6.28140341E-06 -8.52543110E-06  1.12835540E-10  5.51204973E-06
  2.57403136E-05  3.30753500E-07 -1.84366671E-06 -2.73859629E-11  1.51391499E-10
 -2.91896815E-05  1.23597411E-04  3.16347861E-05  5.49897566E-04 -1.08589548E-09
  6.26477191E-04  1.07624842E-04  2.20923160E-05  3.70579389E-09 -2.98313814E-06
  3.72796706E-04 -7.58478811E-05  1.24321212E-05  3.29499719E-10 -8.96373113E-10
  9.55374312E-06  9.76783309E-05  4.62751623E-06 -1.45676821E-05  1.34294613E-06
 -2.28873799E-04  1.06107793E-04 -1.32429547E-04 -5.97555555E-05 -4.19026748E-06
 -4.46994594E-05  3.02528117E-06  3.13490009E-05  2.19103863E-05 -1.36742772E-05
  9.55394668E-06  9.76787833E-05  4.62747013E-06 -1.45673480E-05 -1.34286242E-06
 -2.28880124E-04  1.06107620E-04 -1.32431508E-04  5.97590291E-05 -4.18937662E-06
 -4.46986988E-05  3.02519845E-06  3.13488230E-05 -2.19105522E-05  1.36749045E-05
  1.75262663E-06  7.58366494E-05 -8.77362611E-06  6.95265895E-06 -3.85519281E-11
 -1.10957398E-04 -6.14186639E-05 -1.97351583E-04 -9.20397226E-10 -5.45476515E-05
 -5.41365064E-05 -1.61530693E-06 -3.27255905E-05 -1.35388143E-11 -7.07640559E-11
  4.06897108E-07  9.69117986E-06 -1.03292356E-05 -7.87718385E-06 -6.31673613E-12
 -6.52568756E-05 -3.38454151E-05  2.94977498E-05  4.90485708E-10 -9.68915010E-06
  1.30411292E-06 -2.90698312E-06 -4.53865242E-07  5.21697114E-11 -9.58298344E-12
  3.67307289E-05 -3.59265384E-05  6.87079388E-06 -2.05262211E-05  6.87069441E-06
 -2.05265953E-05  3.67310242E-05 -3.59252840E-05 -1.97866641E-06 -1.03952298E-05
  5.86092862E-06  1.33523395E-05  5.86100768E-06  1.33524636E-05  1.75470378E-05
  8.38812095E-05 -3.02292137E-05 -6.42146969E-06  1.27159305E-11 -2.00799498E-04
  6.88582682E-05  2.51608342E-05  1.60796485E-10  4.23471449E-05  7.49584928E-05
  1.01094375E-04 -4.79531144E-06  1.08313104E-10  8.37230126E-12  9.94655650E-01
  2.12410420E-02 -1.51736423E-04 -1.27912669E-03 -7.47352345E-10  3.74977127E-03
  2.72144411E-04  7.27647214E-04 -9.40249030E-12 -4.16801349E-03 -4.02938797E-03
 -3.89845249E-03 -3.84850897E-05  1.57734843E-09  1.83270379E-10 -2.64857017E-04
  2.77576217E-05  1.77664426E-05 -2.81035009E-05 -4.55042493E-11 -2.18230811E-04
  1.26670523E-04 -7.30515186E-05 -8.88075923E-10  3.12939045E-05 -3.28400962E-05
  2.35339605E-06  7.95703610E-05  1.35916902E-10 -3.67013096E-10 -1.48128427E-05
 -3.59043228E-05 -8.68115892E-06  4.07515005E-05  1.41180890E-10  8.38576157E-04
  1.43849774E-04 -4.16427324E-04 -2.61610885E-09 -8.33934729E-05 -1.26172005E-05
 -2.35573492E-05 -6.08501823E-06  1.91864663E-10  1.13660484E-10 -1.75459388E-06
  1.89410706E-06  2.37384183E-05 -1.29464820E-05 -4.14155082E-06 -2.34646638E-04
  1.14118512E-04 -2.84463712E-05 -6.56379343E-05 -2.04585266E-05 -1.00181608E-06
 -1.67877952E-06 -2.40009233E-06  8.82929037E-06 -1.34107397E-06 -1.75495820E-06
  1.89260504E-06  2.37383415E-05 -1.29467482E-05  4.14189600E-06 -2.34631458E-04
  1.14114276E-04 -2.84430606E-05  6.56361561E-05 -2.04586574E-05 -1.00249847E-06
 -1.67965341E-06 -2.40006500E-06 -8.82959936E-06  1.34121321E-06  3.19966332E-06
  4.22331222E-04 -2.31274274E-04  2.19368970E-04  1.10012538E-09 -2.59135155E-04
 -4.58607594E-04 -2.31434774E-04  1.03042411E-09 -5.43243556E-05 -6.79991556E-05
 -4.84353552E-05  8.33394590E-05  2.24286412E-10 -2.01421449E-10 -1.03912810E-05
  2.08197330E-04  3.84870688E-04  1.49571392E-04 -1.66721655E-09  6.53498876E-05
 -1.10206403E-04 -1.82351974E-04  2.65542483E-10  1.42165986E-04 -3.52559136E-05
 -1.76698209E-05  6.53296503E-05 -8.22837885E-10 -4.16174982E-10  4.80587771E-06
 -1.84498511E-05  1.11652047E-05  2.24768837E-06  1.11647343E-05  2.24755737E-06
  4.80523477E-06 -1.84505983E-05  9.40725712E-06 -6.18148903E-05 -3.20081122E-05
 -1.12762256E-04 -3.20080747E-05 -1.12761927E-04  9.49886225E-06  5.76957633E-05
 -9.79650170E-06 -9.61962506E-06  5.34782564E-11 -1.86164133E-04  3.02850765E-05
  2.73003704E-05 -1.89665593E-10  3.06117538E-05  4.93008362E-05  4.36223927E-05
 -2.17525438E-05  7.77557395E-11 -3.63406961E-12  2.60714570E-04 -6.32728989E-05
 -7.34445814E-06  3.39379568E-05  2.32666159E-10  2.86913666E-04  1.46155758E-04
 -1.03138871E-04 -9.75621259E-10  8.06062298E-05 -1.08452347E-04 -8.09994359E-05
 -3.41384218E-05 -5.31668887E-10 -4.48915881E-11  9.94697315E-01  2.10198130E-02
  2.70917182E-04  1.55934512E-03  4.79181628E-09  4.25997653E-03 -4.50605573E-05
 -8.94469890E-05 -4.21835011E-10 -3.88678838E-03 -3.60010193E-03 -4.10398153E-03
  6.49069306E-05 -4.04900120E-10  1.63105391E-09 -2.50114227E-06 -2.49961290E-05
  7.29799290E-06  2.61877857E-05  1.35209833E-10  1.72417625E-04  1.05489917E-04
  2.81652369E-06  4.98914561E-10  5.08446490E-05 -4.41588589E-05 -1.79779903E-05
 -6.88282647E-05 -1.96737415E-10 -1.51732865E-10  4.33384769E-06  2.12426180E-05
 -5.74018502E-06 -6.95534509E-06  7.49634512E-06 -4.23514703E-05  7.59891589E-05
 -4.44626142E-05 -6.87453124E-05  9.51264461E-07  2.91266604E-06  9.22483290E-07
  1.13416937E-05  8.66340571E-06 -1.41293445E-05  4.33397129E-06  2.12426543E-05
 -5.74050537E-06 -6.95543292E-06 -7.49649772E-06 -4.23536865E-05  7.59893397E-05