12552279                                                                
Freq      RMP2-FC                                                     6-31G(d)            
Number of atoms                            I               21
Info1-9                                    I   N=           9
          33          31        1002           0           0         100
           6           2           1
Charge                                     I                0
Multiplicity                               I                1
Number of electrons                        I               74
Number of alpha electrons                  I               37
Number of beta electrons                   I               37
Number of basis functions                  I              172
Number of independent functions            I              172
Number of point charges in /Mol/           I                0
Number of translation vectors              I                0
Atomic numbers                             I   N=          21
           8           7           6           6           6           6
           6           6           6           6           1           1
           1           1           1           1           1           1
           1           1           1
Nuclear charges                            R   N=          21
  8.00000000E+00  7.00000000E+00  6.00000000E+00  6.00000000E+00  6.00000000E+00
  6.00000000E+00  6.00000000E+00  6.00000000E+00  6.00000000E+00  6.00000000E+00
  1.00000000E+00  1.00000000E+00  1.00000000E+00  1.00000000E+00  1.00000000E+00
  1.00000000E+00  1.00000000E+00  1.00000000E+00  1.00000000E+00  1.00000000E+00
  1.00000000E+00
Current cartesian coordinates              R   N=          63
  5.17458860E+00 -1.40318779E+00 -2.38143137E-02  1.28371319E+00 -3.26290692E+00
  1.17135026E-02 -1.13910845E+00  1.30260238E+00 -2.00158508E-02  1.47069244E+00
  1.24935141E+00  6.71480210E-03 -2.58358369E+00 -9.97485678E-01  3.56397713E-03
  2.84393031E+00 -1.14002494E+00 -8.34628800E-03 -1.29704704E+00 -3.23683273E+00
  1.27471846E-02 -2.55925059E+00  3.77121036E+00 -9.07583445E-03  3.09218999E+00
  3.58535807E+00  2.22062075E-02 -5.42569403E+00 -9.86433551E-01 -4.45867305E-03
 -2.22352316E+00 -5.06881331E+00  3.01249291E-02 -4.03149691E+00  3.78256399E+00
 -1.46121781E+00 -1.31328349E+00  5.37429130E+00 -3.56762279E-01 -3.49706123E+00
  4.07582202E+00  1.81310673E+00  2.24039459E+00 -4.92864583E+00  1.05194026E-02
  2.87057519E+00  4.67680392E+00 -1.72214950E+00  5.06666179E+00  3.01709615E+00
  1.82963138E-01  2.62498202E+00  4.82605594E+00  1.60871038E+00 -6.15423771E+00
 -2.91702210E+00  1.18037207E-01 -6.18776788E+00 -1.36772178E-01 -1.73100416E+00
 -6.19071806E+00  7.79988774E-02  1.59617881E+00
Force Field                                I                0
Int Atom Types                             I   N=          21
           0           0           0           0           0           0
           0           0           0           0           0           0
           0           0           0           0           0           0
           0           0           0
MM charges                                 R   N=          21
  0.00000000E+00  0.00000000E+00  0.00000000E+00  0.00000000E+00  0.00000000E+00
  0.00000000E+00  0.00000000E+00  0.00000000E+00  0.00000000E+00  0.00000000E+00
  0.00000000E+00  0.00000000E+00  0.00000000E+00  0.00000000E+00  0.00000000E+00
  0.00000000E+00  0.00000000E+00  0.00000000E+00  0.00000000E+00  0.00000000E+00
  0.00000000E+00
Integer atomic weights                     I   N=          21
          16          14          12          12          12          12
          12          12          12          12           1           1
           1           1           1           1           1           1
           1           1           1
Real atomic weights                        R   N=          21
  1.59949146E+01  1.40030740E+01  1.20000000E+01  1.20000000E+01  1.20000000E+01
  1.20000000E+01  1.20000000E+01  1.20000000E+01  1.20000000E+01  1.20000000E+01
  1.00782504E+00  1.00782504E+00  1.00782504E+00  1.00782504E+00  1.00782504E+00
  1.00782504E+00  1.00782504E+00  1.00782504E+00  1.00782504E+00  1.00782504E+00
  1.00782504E+00
Atom fragment info                         I   N=          21
           0           0           0           0           0           0
           0           0           0           0           0           0
           0           0           0           0           0           0
           0           0           0
Atom residue num                           I   N=          21
           0           0           0           0           0           0
           0           0           0           0           0           0
           0           0           0           0           0           0
           0           0           0
Nuclear spins                              I   N=          21
           0           2           0           0           0           0
           0           0           0           0           1           1
           1           1           1           1           1           1
           1           1           1
Nuclear ZEff                               R   N=          21
 -5.60000000E+00 -4.55000000E+00 -3.60000000E+00 -3.60000000E+00 -3.60000000E+00
 -3.60000000E+00 -3.60000000E+00 -3.60000000E+00 -3.60000000E+00 -3.60000000E+00
 -1.00000000E+00 -1.00000000E+00 -1.00000000E+00 -1.00000000E+00 -1.00000000E+00
 -1.00000000E+00 -1.00000000E+00 -1.00000000E+00 -1.00000000E+00 -1.00000000E+00
 -1.00000000E+00
Nuclear QMom                               R   N=          21
  0.00000000E+00  2.04400000E+00  0.00000000E+00  0.00000000E+00  0.00000000E+00
  0.00000000E+00  0.00000000E+00  0.00000000E+00  0.00000000E+00  0.00000000E+00
  0.00000000E+00  0.00000000E+00  0.00000000E+00  0.00000000E+00  0.00000000E+00
  0.00000000E+00  0.00000000E+00  0.00000000E+00  0.00000000E+00  0.00000000E+00
  0.00000000E+00
Nuclear GFac                               R   N=          21
  0.00000000E+00  4.03761000E-01  0.00000000E+00  0.00000000E+00  0.00000000E+00
  0.00000000E+00  0.00000000E+00  0.00000000E+00  0.00000000E+00  0.00000000E+00
  2.79284600E+00  2.79284600E+00  2.79284600E+00  2.79284600E+00  2.79284600E+00
  2.79284600E+00  2.79284600E+00  2.79284600E+00  2.79284600E+00  2.79284600E+00
  2.79284600E+00
MicOpt                                     I   N=          21
          -1          -1          -1          -1          -1          -1
          -1          -1          -1          -1          -1          -1
          -1          -1          -1          -1          -1          -1
          -1          -1          -1
Number of contracted shells                I               62
Number of primitive shells                 I              154
Pure/Cartesian d shells                    I                1
Pure/Cartesian f shells                    I                0
Highest angular momentum                   I                2
Largest degree of contraction              I                6
Shell types                                I   N=          62
           0          -1          -1           2           0          -1
          -1           2           0          -1          -1           2
           0          -1          -1           2           0          -1
          -1           2           0          -1          -1           2
           0          -1          -1           2           0          -1
          -1           2           0          -1          -1           2
           0          -1          -1           2           0           0
           0           0           0           0           0           0
           0           0           0           0           0           0
           0           0           0           0           0           0
           0           0
Number of primitives per shell             I   N=          62
           6           3           1           1           6           3
           1           1           6           3           1           1
           6           3           1           1           6           3
           1           1           6           3           1           1
           6           3           1           1           6           3
           1           1           6           3           1           1
           6           3           1           1           3           1
           3           1           3           1           3           1
           3           1           3           1           3           1
           3           1           3           1           3           1
           3           1
Shell to atom map                          I   N=          62
           1           1           1           1           2           2
           2           2           3           3           3           3
           4           4           4           4           5           5
           5           5           6           6           6           6
           7           7           7           7           8           8
           8           8           9           9           9           9
          10          10          10          10          11          11
          12          12          13          13          14          14
          15          15          16          16          17          17
          18          18          19          19          20          20
          21          21
Primitive exponents                        R   N=         154
  5.48467166E+03  8.25234946E+02  1.88046958E+02  5.29645000E+01  1.68975704E+01
  5.79963534E+00  1.55396162E+01  3.59993359E+00  1.01376175E+00  2.70005823E-01
  8.00000000E-01  4.17351146E+03  6.27457911E+02  1.42902093E+02  4.02343293E+01
  1.28202129E+01  4.39043701E+00  1.16263619E+01  2.71627981E+00  7.72218397E-01
  2.12031498E-01  8.00000000E-01  3.04752488E+03  4.57369518E+02  1.03948685E+02
  2.92101553E+01  9.28666296E+00  3.16392696E+00  7.86827235E+00  1.88128854E+00
  5.44249258E-01  1.68714478E-01  8.00000000E-01  3.04752488E+03  4.57369518E+02
  1.03948685E+02  2.92101553E+01  9.28666296E+00  3.16392696E+00  7.86827235E+00
  1.88128854E+00  5.44249258E-01  1.68714478E-01  8.00000000E-01  3.04752488E+03
  4.57369518E+02  1.03948685E+02  2.92101553E+01  9.28666296E+00  3.16392696E+00
  7.86827235E+00  1.88128854E+00  5.44249258E-01  1.68714478E-01  8.00000000E-01
  3.04752488E+03  4.57369518E+02  1.03948685E+02  2.92101553E+01  9.28666296E+00
  3.16392696E+00  7.86827235E+00  1.88128854E+00  5.44249258E-01  1.68714478E-01
  8.00000000E-01  3.04752488E+03  4.57369518E+02  1.03948685E+02  2.92101553E+01
  9.28666296E+00  3.16392696E+00  7.86827235E+00  1.88128854E+00  5.44249258E-01
  1.68714478E-01  8.00000000E-01  3.04752488E+03  4.57369518E+02  1.03948685E+02
  2.92101553E+01  9.28666296E+00  3.16392696E+00  7.86827235E+00  1.88128854E+00
  5.44249258E-01  1.68714478E-01  8.00000000E-01  3.04752488E+03  4.57369518E+02
  1.03948685E+02  2.92101553E+01  9.28666296E+00  3.16392696E+00  7.86827235E+00
  1.88128854E+00  5.44249258E-01  1.68714478E-01  8.00000000E-01  3.04752488E+03
  4.57369518E+02  1.03948685E+02  2.92101553E+01  9.28666296E+00  3.16392696E+00
  7.86827235E+00  1.88128854E+00  5.44249258E-01  1.68714478E-01  8.00000000E-01
  1.87311370E+01  2.82539436E+00  6.40121692E-01  1.61277759E-01  1.87311370E+01
  2.82539436E+00  6.40121692E-01  1.61277759E-01  1.87311370E+01  2.82539436E+00
  6.40121692E-01  1.61277759E-01  1.87311370E+01  2.82539436E+00  6.40121692E-01
  1.61277759E-01  1.87311370E+01  2.82539436E+00  6.40121692E-01  1.61277759E-01
  1.87311370E+01  2.82539436E+00  6.40121692E-01  1.61277759E-01  1.87311370E+01
  2.82539436E+00  6.40121692E-01  1.61277759E-01  1.87311370E+01  2.82539436E+00
  6.40121692E-01  1.61277759E-01  1.87311370E+01  2.82539436E+00  6.40121692E-01
  1.61277759E-01  1.87311370E+01  2.82539436E+00  6.40121692E-01  1.61277759E-01
  1.87311370E+01  2.82539436E+00  6.40121692E-01  1.61277759E-01
Contraction coefficients                   R   N=         154
  1.83107443E-03  1.39501722E-02  6.84450781E-02  2.32714336E-01  4.70192898E-01
  3.58520853E-01 -1.10777550E-01 -1.48026263E-01  1.13076702E+00  1.00000000E+00
  1.00000000E+00  1.83477216E-03  1.39946270E-02  6.85865518E-02  2.32240873E-01
  4.69069948E-01  3.60455199E-01 -1.14961182E-01 -1.69117479E-01  1.14585195E+00
  1.00000000E+00  1.00000000E+00  1.83473713E-03  1.40373228E-02  6.88426223E-02
  2.32184443E-01  4.67941348E-01  3.62311985E-01 -1.19332420E-01 -1.60854152E-01
  1.14345644E+00  1.00000000E+00  1.00000000E+00  1.83473713E-03  1.40373228E-02
  6.88426223E-02  2.32184443E-01  4.67941348E-01  3.62311985E-01 -1.19332420E-01
 -1.60854152E-01  1.14345644E+00  1.00000000E+00  1.00000000E+00  1.83473713E-03
  1.40373228E-02  6.88426223E-02  2.32184443E-01  4.67941348E-01  3.62311985E-01
 -1.19332420E-01 -1.60854152E-01  1.14345644E+00  1.00000000E+00  1.00000000E+00
  1.83473713E-03  1.40373228E-02  6.88426223E-02  2.32184443E-01  4.67941348E-01
  3.62311985E-01 -1.19332420E-01 -1.60854152E-01  1.14345644E+00  1.00000000E+00
  1.00000000E+00  1.83473713E-03  1.40373228E-02  6.88426223E-02  2.32184443E-01
  4.67941348E-01  3.62311985E-01 -1.19332420E-01 -1.60854152E-01  1.14345644E+00
  1.00000000E+00  1.00000000E+00  1.83473713E-03  1.40373228E-02  6.88426223E-02
  2.32184443E-01  4.67941348E-01  3.62311985E-01 -1.19332420E-01 -1.60854152E-01
  1.14345644E+00  1.00000000E+00  1.00000000E+00  1.83473713E-03  1.40373228E-02
  6.88426223E-02  2.32184443E-01  4.67941348E-01  3.62311985E-01 -1.19332420E-01
 -1.60854152E-01  1.14345644E+00  1.00000000E+00  1.00000000E+00  1.83473713E-03
  1.40373228E-02  6.88426223E-02  2.32184443E-01  4.67941348E-01  3.62311985E-01
 -1.19332420E-01 -1.60854152E-01  1.14345644E+00  1.00000000E+00  1.00000000E+00
  3.34946043E-02  2.34726953E-01  8.13757326E-01  1.00000000E+00  3.34946043E-02
  2.34726953E-01  8.13757326E-01  1.00000000E+00  3.34946043E-02  2.34726953E-01
  8.13757326E-01  1.00000000E+00  3.34946043E-02  2.34726953E-01  8.13757326E-01
  1.00000000E+00  3.34946043E-02  2.34726953E-01  8.13757326E-01  1.00000000E+00
  3.34946043E-02  2.34726953E-01  8.13757326E-01  1.00000000E+00  3.34946043E-02
  2.34726953E-01  8.13757326E-01  1.00000000E+00  3.34946043E-02  2.34726953E-01
  8.13757326E-01  1.00000000E+00  3.34946043E-02  2.34726953E-01  8.13757326E-01
  1.00000000E+00  3.34946043E-02  2.34726953E-01  8.13757326E-01  1.00000000E+00
  3.34946043E-02  2.34726953E-01  8.13757326E-01  1.00000000E+00
P(S=P) Contraction coefficients            R   N=         154
  0.00000000E+00  0.00000000E+00  0.00000000E+00  0.00000000E+00  0.00000000E+00
  0.00000000E+00  7.08742682E-02  3.39752839E-01  7.27158577E-01  1.00000000E+00
  0.00000000E+00  0.00000000E+00  0.00000000E+00  0.00000000E+00  0.00000000E+00
  0.00000000E+00  0.00000000E+00  6.75797439E-02  3.23907296E-01  7.40895140E-01
  1.00000000E+00  0.00000000E+00  0.00000000E+00  0.00000000E+00  0.00000000E+00
  0.00000000E+00  0.00000000E+00  0.00000000E+00  6.89990666E-02  3.16423961E-01
  7.44308291E-01  1.00000000E+00  0.00000000E+00  0.00000000E+00  0.00000000E+00
  0.00000000E+00  0.00000000E+00  0.00000000E+00  0.00000000E+00  6.89990666E-02
  3.16423961E-01  7.44308291E-01  1.00000000E+00  0.00000000E+00  0.00000000E+00
  0.00000000E+00  0.00000000E+00  0.00000000E+00  0.00000000E+00  0.00000000E+00
  6.89990666E-02  3.16423961E-01  7.44308291E-01  1.00000000E+00  0.00000000E+00
  0.00000000E+00  0.00000000E+00  0.00000000E+00  0.00000000E+00  0.00000000E+00
  0.00000000E+00  6.89990666E-02  3.16423961E-01  7.44308291E-01  1.00000000E+00
  0.00000000E+00  0.00000000E+00  0.00000000E+00  0.00000000E+00  0.00000000E+00
  0.00000000E+00  0.00000000E+00  6.89990666E-02  3.16423961E-01  7.44308291E-01
  1.00000000E+00  0.00000000E+00  0.00000000E+00  0.00000000E+00  0.00000000E+00
  0.00000000E+00  0.00000000E+00  0.00000000E+00  6.89990666E-02  3.16423961E-01
  7.44308291E-01  1.00000000E+00  0.00000000E+00  0.00000000E+00  0.00000000E+00
  0.00000000E+00  0.00000000E+00  0.00000000E+00  0.00000000E+00  6.89990666E-02
  3.16423961E-01  7.44308291E-01  1.00000000E+00  0.00000000E+00  0.00000000E+00
  0.00000000E+00  0.00000000E+00  0.00000000E+00  0.00000000E+00  0.00000000E+00
  6.89990666E-02  3.16423961E-01  7.44308291E-01  1.00000000E+00  0.00000000E+00
  0.00000000E+00  0.00000000E+00  0.00000000E+00  0.00000000E+00  0.00000000E+00
  0.00000000E+00  0.00000000E+00  0.00000000E+00  0.00000000E+00  0.00000000E+00
  0.00000000E+00  0.00000000E+00  0.00000000E+00  0.00000000E+00  0.00000000E+00
  0.00000000E+00  0.00000000E+00  0.00000000E+00  0.00000000E+00  0.00000000E+00
  0.00000000E+00  0.00000000E+00  0.00000000E+00  0.00000000E+00  0.00000000E+00
  0.00000000E+00  0.00000000E+00  0.00000000E+00  0.00000000E+00  0.00000000E+00
  0.00000000E+00  0.00000000E+00  0.00000000E+00  0.00000000E+00  0.00000000E+00
  0.00000000E+00  0.00000000E+00  0.00000000E+00  0.00000000E+00  0.00000000E+00
  0.00000000E+00  0.00000000E+00  0.00000000E+00  0.00000000E+00
Coordinates of each shell                  R   N=         186
  5.17458860E+00 -1.40318779E+00 -2.38143137E-02  5.17458860E+00 -1.40318779E+00
 -2.38143137E-02  5.17458860E+00 -1.40318779E+00 -2.38143137E-02  5.17458860E+00
 -1.40318779E+00 -2.38143137E-02  1.28371319E+00 -3.26290692E+00  1.17135026E-02
  1.28371319E+00 -3.26290692E+00  1.17135026E-02  1.28371319E+00 -3.26290692E+00
  1.17135026E-02  1.28371319E+00 -3.26290692E+00  1.17135026E-02 -1.13910845E+00
  1.30260238E+00 -2.00158508E-02 -1.13910845E+00  1.30260238E+00 -2.00158508E-02
 -1.13910845E+00  1.30260238E+00 -2.00158508E-02 -1.13910845E+00  1.30260238E+00
 -2.00158508E-02  1.47069244E+00  1.24935141E+00  6.71480210E-03  1.47069244E+00
  1.24935141E+00  6.71480210E-03  1.47069244E+00  1.24935141E+00  6.71480210E-03
  1.47069244E+00  1.24935141E+00  6.71480210E-03 -2.58358369E+00 -9.97485678E-01
  3.56397713E-03 -2.58358369E+00 -9.97485678E-01  3.56397713E-03 -2.58358369E+00
 -9.97485678E-01  3.56397713E-03 -2.58358369E+00 -9.97485678E-01  3.56397713E-03
  2.84393031E+00 -1.14002494E+00 -8.34628800E-03  2.84393031E+00 -1.14002494E+00
 -8.34628800E-03  2.84393031E+00 -1.14002494E+00 -8.34628800E-03  2.84393031E+00
 -1.14002494E+00 -8.34628800E-03 -1.29704704E+00 -3.23683273E+00  1.27471846E-02
 -1.29704704E+00 -3.23683273E+00  1.27471846E-02 -1.29704704E+00 -3.23683273E+00
  1.27471846E-02 -1.29704704E+00 -3.23683273E+00  1.27471846E-02 -2.55925059E+00
  3.77121036E+00 -9.07583445E-03 -2.55925059E+00  3.77121036E+00 -9.07583445E-03
 -2.55925059E+00  3.77121036E+00 -9.07583445E-03 -2.55925059E+00  3.77121036E+00
 -9.07583445E-03  3.09218999E+00  3.58535807E+00  2.22062075E-02  3.09218999E+00
  3.58535807E+00  2.22062075E-02  3.09218999E+00  3.58535807E+00  2.22062075E-02
  3.09218999E+00  3.58535807E+00  2.22062075E-02 -5.42569403E+00 -9.86433551E-01
 -4.45867305E-03 -5.42569403E+00 -9.86433551E-01 -4.45867305E-03 -5.42569403E+00
 -9.86433551E-01 -4.45867305E-03 -5.42569403E+00 -9.86433551E-01 -4.45867305E-03
 -2.22352316E+00 -5.06881331E+00  3.01249291E-02 -2.22352316E+00 -5.06881331E+00
  3.01249291E-02 -4.03149691E+00  3.78256399E+00 -1.46121781E+00 -4.03149691E+00
  3.78256399E+00 -1.46121781E+00 -1.31328349E+00  5.37429130E+00 -3.56762279E-01
 -1.31328349E+00  5.37429130E+00 -3.56762279E-01 -3.49706123E+00  4.07582202E+00
  1.81310673E+00 -3.49706123E+00  4.07582202E+00  1.81310673E+00  2.24039459E+00
 -4.92864583E+00  1.05194026E-02  2.24039459E+00 -4.92864583E+00  1.05194026E-02
  2.87057519E+00  4.67680392E+00 -1.72214950E+00  2.87057519E+00  4.67680392E+00
 -1.72214950E+00  5.06666179E+00  3.01709615E+00  1.82963138E-01  5.06666179E+00
  3.01709615E+00  1.82963138E-01  2.62498202E+00  4.82605594E+00  1.60871038E+00
  2.62498202E+00  4.82605594E+00  1.60871038E+00 -6.15423771E+00 -2.91702210E+00
  1.18037207E-01 -6.15423771E+00 -2.91702210E+00  1.18037207E-01 -6.18776788E+00
 -1.36772178E-01 -1.73100416E+00 -6.18776788E+00 -1.36772178E-01 -1.73100416E+00
 -6.19071806E+00  7.79988774E-02  1.59617881E+00 -6.19071806E+00  7.79988774E-02
  1.59617881E+00
Constraint Structure                       R   N=          63
  5.17458860E+00 -1.40318779E+00 -2.38143137E-02  1.28371319E+00 -3.26290692E+00
  1.17135026E-02 -1.13910845E+00  1.30260238E+00 -2.00158508E-02  1.47069244E+00
  1.24935141E+00  6.71480210E-03 -2.58358369E+00 -9.97485678E-01  3.56397713E-03
  2.84393031E+00 -1.14002494E+00 -8.34628800E-03 -1.29704704E+00 -3.23683273E+00
  1.27471846E-02 -2.55925059E+00  3.77121036E+00 -9.07583445E-03  3.09218999E+00
  3.58535807E+00  2.22062075E-02 -5.42569403E+00 -9.86433551E-01 -4.45867305E-03
 -2.22352316E+00 -5.06881331E+00  3.01249291E-02 -4.03149691E+00  3.78256399E+00
 -1.46121781E+00 -1.31328349E+00  5.37429130E+00 -3.56762279E-01 -3.49706123E+00
  4.07582202E+00  1.81310673E+00  2.24039459E+00 -4.92864583E+00  1.05194026E-02
  2.87057519E+00  4.67680392E+00 -1.72214950E+00  5.06666179E+00  3.01709615E+00
  1.82963138E-01  2.62498202E+00  4.82605594E+00  1.60871038E+00 -6.15423771E+00
 -2.91702210E+00  1.18037207E-01 -6.18776788E+00 -1.36772178E-01 -1.73100416E+00
 -6.19071806E+00  7.79988774E-02  1.59617881E+00
Num ILSW                                   I              100
ILSW                                       I   N=         100
           0           1           0           0           2           0
           0           0           0           0           0          -1
           0           0           0           0           0           0
           0           0           0           0           1           0
           1           0           0           0           0           0
           0           0      100000           0          -1           0
           0           0           0           0           0           0
           0           0           0           1           1           0
           0           0           1           0           0           0
           0           0           4          40           0           0
           0           0           0           0           0           0
           0           0           0           0           0           0
           0           0           0           0           0           0
           0           0           0           0           0           0
           0           0           0           0           0           0
           0           0           0           0           0           0
           0           0           0           0
Num RLSW                                   I               40
RLSW                                       R   N=          40
  1.00000000E+00  1.00000000E+00  1.00000000E+00  1.00000000E+00  1.00000000E+00
  0.00000000E+00  0.00000000E+00  1.00000000E+00  0.00000000E+00  0.00000000E+00
  0.00000000E+00  0.00000000E+00  1.00000000E+00  0.00000000E+00  0.00000000E+00
  0.00000000E+00  0.00000000E+00  1.00000000E+00  0.00000000E+00  0.00000000E+00
  0.00000000E+00  0.00000000E+00  1.00000000E+00  0.00000000E+00  0.00000000E+00
  0.00000000E+00  0.00000000E+00  1.00000000E+00  0.00000000E+00  0.00000000E+00
  0.00000000E+00  0.00000000E+00  0.00000000E+00  0.00000000E+00  0.00000000E+00
  0.00000000E+00  0.00000000E+00  0.00000000E+00  1.00000000E+00  1.00000000E+00
MxBond                                     I                4
NBond                                      I   N=          21
           1           3           3           3           3           3
           3           4           4           4           1           1
           1           1           1           1           1           1
           1           1           1
IBond                                      I   N=          84
           6           0           0           0           6           7
          15           0           4           5           8           0
           3           6           9           0           3           7
          10           0           1           2           4           0
           2           5          11           0           3          12
          13          14           4          16          17          18
           5          19          20          21           7           0
           0           0           8           0           0           0
           8           0           0           0           8           0
           0           0           2           0           0           0
           9           0           0           0           9           0
           0           0           9           0           0           0
          10           0           0           0          10           0
           0           0          10           0           0           0
RBond                                      R   N=          84
  2.00000000E+00  0.00000000E+00  0.00000000E+00  0.00000000E+00  1.41000000E+00
  1.50000000E+00  1.00000000E+00  0.00000000E+00  2.00000000E+00  1.00000000E+00
  1.00000000E+00  0.00000000E+00  2.00000000E+00  1.00000000E+00  1.00000000E+00
  0.00000000E+00  1.00000000E+00  2.00000000E+00  1.00000000E+00  0.00000000E+00
  2.00000000E+00  1.41000000E+00  1.00000000E+00  0.00000000E+00  1.50000000E+00
  2.00000000E+00  1.00000000E+00  0.00000000E+00  1.00000000E+00  1.00000000E+00
  1.00000000E+00  1.00000000E+00  1.00000000E+00  1.00000000E+00  1.00000000E+00
  1.00000000E+00  1.00000000E+00  1.00000000E+00  1.00000000E+00  1.00000000E+00
  1.00000000E+00  0.00000000E+00  0.00000000E+00  0.00000000E+00  1.00000000E+00
  0.00000000E+00  0.00000000E+00  0.00000000E+00  1.00000000E+00  0.00000000E+00
  0.00000000E+00  0.00000000E+00  1.00000000E+00  0.00000000E+00  0.00000000E+00
  0.00000000E+00  1.00000000E+00  0.00000000E+00  0.00000000E+00  0.00000000E+00
  1.00000000E+00  0.00000000E+00  0.00000000E+00  0.00000000E+00  1.00000000E+00
  0.00000000E+00  0.00000000E+00  0.00000000E+00  1.00000000E+00  0.00000000E+00
  0.00000000E+00  0.00000000E+00  1.00000000E+00  0.00000000E+00  0.00000000E+00
  0.00000000E+00  1.00000000E+00  0.00000000E+00  0.00000000E+00  0.00000000E+00
  1.00000000E+00  0.00000000E+00  0.00000000E+00  0.00000000E+00
Virial Ratio                               R      2.002234295707719E+00
SCF Energy                                 R     -4.386715408478403E+02
MP2 Energy                                 R     -4.400426272437567E+02
Total Energy                               R     -4.400426272437567E+02
Post-SCF wavefunction norm                 R      1.711524212428571E+00
RMS Force                                  R      3.209551028487461E-08
RMS Density                                R      3.376184979739039E-10
External E-field                           R   N=          35
  0.00000000E+00  0.00000000E+00  0.00000000E+00  0.00000000E+00  0.00000000E+00
  0.00000000E+00  0.00000000E+00  0.00000000E+00  0.00000000E+00  0.00000000E+00
  0.00000000E+00  0.00000000E+00  0.00000000E+00  0.00000000E+00  0.00000000E+00
  0.00000000E+00  0.00000000E+00  0.00000000E+00  0.00000000E+00  0.00000000E+00
  0.00000000E+00  0.00000000E+00  0.00000000E+00  0.00000000E+00  0.00000000E+00
  0.00000000E+00  0.00000000E+00  0.00000000E+00  0.00000000E+00  0.00000000E+00
  0.00000000E+00  0.00000000E+00  0.00000000E+00  0.00000000E+00  0.00000000E+00
IOpCl                                      I                0
IROHF                                      I                0
Alpha Orbital Energies                     R   N=         172
 -2.05024738E+01 -1.56193073E+01 -1.13439633E+01 -1.12988448E+01 -1.12678707E+01
 -1.12427230E+01 -1.12375209E+01 -1.12364191E+01 -1.12357433E+01 -1.12111309E+01
 -1.35706060E+00 -1.26027441E+00 -1.12878140E+00 -1.05964133E+00 -9.88544229E-01
 -9.47559948E-01 -9.31559375E-01 -8.27692319E-01 -8.07397020E-01 -7.24288603E-01
 -7.01970467E-01 -6.43240780E-01 -6.17142237E-01 -5.92147491E-01 -5.83356367E-01
 -5.78784497E-01 -5.69711264E-01 -5.67663758E-01 -5.59183054E-01 -5.47465489E-01
 -5.31999101E-01 -5.02650702E-01 -4.96188702E-01 -4.61972484E-01 -4.07535599E-01
 -3.83803935E-01 -2.89370765E-01  1.07443555E-01  1.76055342E-01  2.19078953E-01
  2.21381948E-01  2.64160237E-01  2.70262988E-01  2.75014680E-01  3.03606379E-01
  3.05503144E-01  3.21623251E-01  3.40468250E-01  3.46420268E-01  3.66172769E-01
  3.71695856E-01  4.14198085E-01  4.22261101E-01  4.34433931E-01  4.51105168E-01
  4.98315638E-01  5.26274009E-01  5.35935121E-01  5.57966121E-01  6.37812683E-01
  6.69906062E-01  7.11308147E-01  7.23640204E-01  7.34782944E-01  7.43816771E-01
  7.60864644E-01  7.70673833E-01  7.85139561E-01  8.28199070E-01  8.37429979E-01
  8.47556992E-01  8.70454048E-01  8.87244242E-01  9.11582292E-01  9.41748765E-01
  9.70088608E-01  9.79733172E-01  9.97349263E-01  1.00102310E+00  1.01259570E+00
  1.02235605E+00  1.04032587E+00  1.06351930E+00  1.08890601E+00  1.09807902E+00
  1.12435560E+00  1.14466887E+00  1.15607815E+00  1.16813035E+00  1.17280239E+00
  1.18203739E+00  1.19120343E+00  1.20232820E+00  1.21552523E+00  1.24730525E+00
  1.25778696E+00  1.30348762E+00  1.33457340E+00  1.36403704E+00  1.37570878E+00
  1.40621019E+00  1.41818043E+00  1.46805976E+00  1.48000892E+00  1.49707341E+00
  1.50283416E+00  1.59983301E+00  1.61673134E+00  1.66247131E+00  1.66908383E+00
  1.68272580E+00  1.70925390E+00  1.72801177E+00  1.73681046E+00  1.82137141E+00
  1.91978827E+00  1.94838659E+00  1.96846353E+00  2.05305382E+00  2.06143428E+00
  2.10258159E+00  2.10853964E+00  2.13664926E+00  2.15041386E+00  2.16468403E+00
  2.17284772E+00  2.22140689E+00  2.25595237E+00  2.27445544E+00  2.29652283E+00
  2.36371986E+00  2.37282958E+00  2.39372781E+00  2.40887452E+00  2.47331083E+00
  2.49801611E+00  2.51040316E+00  2.52919285E+00  2.55373964E+00  2.56530848E+00