15820947                                                                
Freq      RMP2-FC                                                     6-31G(d)            
Number of atoms                            I               11
Info1-9                                    I   N=           9
          23          21        1002           0           0         100
           6           2           1
Charge                                     I               -1
Multiplicity                               I                1
Number of electrons                        I               48
Number of alpha electrons                  I               24
Number of beta electrons                   I               24
Number of basis functions                  I              100
Number of independent functions            I              100
Number of point charges in /Mol/           I                0
Number of translation vectors              I                0
Atomic numbers                             I   N=          11
           8           8           8           6           6           6
           1           1           1           1           1
Nuclear charges                            R   N=          11
  8.00000000E+00  8.00000000E+00  8.00000000E+00  6.00000000E+00  6.00000000E+00
  6.00000000E+00  1.00000000E+00  1.00000000E+00  1.00000000E+00  1.00000000E+00
  1.00000000E+00
Current cartesian coordinates              R   N=          33
  2.14509350E+00 -1.30746213E+00  6.25244207E-02  2.89355199E-01  2.62929772E+00
 -3.26659712E-01  4.62296776E+00 -1.96762118E-01  4.50803038E-01 -2.16671506E+00
 -1.17709405E+00 -7.59429877E-01 -4.34264580E+00 -4.23053437E-02  7.53029151E-01
  2.83692225E-01  2.95265351E-01 -3.00112574E-01 -2.60482282E+00 -1.06089863E+00
 -2.78447055E+00 -1.87754356E+00 -3.17189996E+00 -3.01377769E-01 -6.15328251E+00
 -9.44614703E-01  3.05362089E-01 -4.46814213E+00  1.97593515E+00  3.44115780E-01
 -4.00152887E+00 -2.54305390E-01  2.78210827E+00
Force Field                                I                0
Int Atom Types                             I   N=          11
           0           0           0           0           0           0
           0           0           0           0           0
MM charges                                 R   N=          11
  0.00000000E+00  0.00000000E+00  0.00000000E+00  0.00000000E+00  0.00000000E+00
  0.00000000E+00  0.00000000E+00  0.00000000E+00  0.00000000E+00  0.00000000E+00
  0.00000000E+00
Integer atomic weights                     I   N=          11
          16          16          16          12          12          12
           1           1           1           1           1
Real atomic weights                        R   N=          11
  1.59949146E+01  1.59949146E+01  1.59949146E+01  1.20000000E+01  1.20000000E+01
  1.20000000E+01  1.00782504E+00  1.00782504E+00  1.00782504E+00  1.00782504E+00
  1.00782504E+00
Atom fragment info                         I   N=          11
           0           0           0           0           0           0
           0           0           0           0           0
Atom residue num                           I   N=          11
           0           0           0           0           0           0
           0           0           0           0           0
Nuclear spins                              I   N=          11
           0           0           0           0           0           0
           1           1           1           1           1
Nuclear ZEff                               R   N=          11
 -5.60000000E+00 -5.60000000E+00 -5.60000000E+00 -3.60000000E+00 -3.60000000E+00
 -3.60000000E+00 -1.00000000E+00 -1.00000000E+00 -1.00000000E+00 -1.00000000E+00
 -1.00000000E+00
Nuclear QMom                               R   N=          11
  0.00000000E+00  0.00000000E+00  0.00000000E+00  0.00000000E+00  0.00000000E+00
  0.00000000E+00  0.00000000E+00  0.00000000E+00  0.00000000E+00  0.00000000E+00
  0.00000000E+00
Nuclear GFac                               R   N=          11
  0.00000000E+00  0.00000000E+00  0.00000000E+00  0.00000000E+00  0.00000000E+00
  0.00000000E+00  2.79284600E+00  2.79284600E+00  2.79284600E+00  2.79284600E+00
  2.79284600E+00
MicOpt                                     I   N=          11
          -1          -1          -1          -1          -1          -1
          -1          -1          -1          -1          -1
Number of contracted shells                I               34
Number of primitive shells                 I               86
Pure/Cartesian d shells                    I                1
Pure/Cartesian f shells                    I                0
Highest angular momentum                   I                2
Largest degree of contraction              I                6
Shell types                                I   N=          34
           0          -1          -1           2           0          -1
          -1           2           0          -1          -1           2
           0          -1          -1           2           0          -1
          -1           2           0          -1          -1           2
           0           0           0           0           0           0
           0           0           0           0
Number of primitives per shell             I   N=          34
           6           3           1           1           6           3
           1           1           6           3           1           1
           6           3           1           1           6           3
           1           1           6           3           1           1
           3           1           3           1           3           1
           3           1           3           1
Shell to atom map                          I   N=          34
           1           1           1           1           2           2
           2           2           3           3           3           3
           4           4           4           4           5           5
           5           5           6           6           6           6
           7           7           8           8           9           9
          10          10          11          11
Primitive exponents                        R   N=          86
  5.48467166E+03  8.25234946E+02  1.88046958E+02  5.29645000E+01  1.68975704E+01
  5.79963534E+00  1.55396162E+01  3.59993359E+00  1.01376175E+00  2.70005823E-01
  8.00000000E-01  5.48467166E+03  8.25234946E+02  1.88046958E+02  5.29645000E+01
  1.68975704E+01  5.79963534E+00  1.55396162E+01  3.59993359E+00  1.01376175E+00
  2.70005823E-01  8.00000000E-01  5.48467166E+03  8.25234946E+02  1.88046958E+02
  5.29645000E+01  1.68975704E+01  5.79963534E+00  1.55396162E+01  3.59993359E+00
  1.01376175E+00  2.70005823E-01  8.00000000E-01  3.04752488E+03  4.57369518E+02
  1.03948685E+02  2.92101553E+01  9.28666296E+00  3.16392696E+00  7.86827235E+00
  1.88128854E+00  5.44249258E-01  1.68714478E-01  8.00000000E-01  3.04752488E+03
  4.57369518E+02  1.03948685E+02  2.92101553E+01  9.28666296E+00  3.16392696E+00
  7.86827235E+00  1.88128854E+00  5.44249258E-01  1.68714478E-01  8.00000000E-01
  3.04752488E+03  4.57369518E+02  1.03948685E+02  2.92101553E+01  9.28666296E+00
  3.16392696E+00  7.86827235E+00  1.88128854E+00  5.44249258E-01  1.68714478E-01
  8.00000000E-01  1.87311370E+01  2.82539436E+00  6.40121692E-01  1.61277759E-01
  1.87311370E+01  2.82539436E+00  6.40121692E-01  1.61277759E-01  1.87311370E+01
  2.82539436E+00  6.40121692E-01  1.61277759E-01  1.87311370E+01  2.82539436E+00
  6.40121692E-01  1.61277759E-01  1.87311370E+01  2.82539436E+00  6.40121692E-01
  1.61277759E-01
Contraction coefficients                   R   N=          86
  1.83107443E-03  1.39501722E-02  6.84450781E-02  2.32714336E-01  4.70192898E-01
  3.58520853E-01 -1.10777550E-01 -1.48026263E-01  1.13076702E+00  1.00000000E+00
  1.00000000E+00  1.83107443E-03  1.39501722E-02  6.84450781E-02  2.32714336E-01
  4.70192898E-01  3.58520853E-01 -1.10777550E-01 -1.48026263E-01  1.13076702E+00
  1.00000000E+00  1.00000000E+00  1.83107443E-03  1.39501722E-02  6.84450781E-02
  2.32714336E-01  4.70192898E-01  3.58520853E-01 -1.10777550E-01 -1.48026263E-01
  1.13076702E+00  1.00000000E+00  1.00000000E+00  1.83473713E-03  1.40373228E-02
  6.88426223E-02  2.32184443E-01  4.67941348E-01  3.62311985E-01 -1.19332420E-01
 -1.60854152E-01  1.14345644E+00  1.00000000E+00  1.00000000E+00  1.83473713E-03
  1.40373228E-02  6.88426223E-02  2.32184443E-01  4.67941348E-01  3.62311985E-01
 -1.19332420E-01 -1.60854152E-01  1.14345644E+00  1.00000000E+00  1.00000000E+00
  1.83473713E-03  1.40373228E-02  6.88426223E-02  2.32184443E-01  4.67941348E-01
  3.62311985E-01 -1.19332420E-01 -1.60854152E-01  1.14345644E+00  1.00000000E+00
  1.00000000E+00  3.34946043E-02  2.34726953E-01  8.13757326E-01  1.00000000E+00
  3.34946043E-02  2.34726953E-01  8.13757326E-01  1.00000000E+00  3.34946043E-02
  2.34726953E-01  8.13757326E-01  1.00000000E+00  3.34946043E-02  2.34726953E-01
  8.13757326E-01  1.00000000E+00  3.34946043E-02  2.34726953E-01  8.13757326E-01
  1.00000000E+00
P(S=P) Contraction coefficients            R   N=          86
  0.00000000E+00  0.00000000E+00  0.00000000E+00  0.00000000E+00  0.00000000E+00
  0.00000000E+00  7.08742682E-02  3.39752839E-01  7.27158577E-01  1.00000000E+00
  0.00000000E+00  0.00000000E+00  0.00000000E+00  0.00000000E+00  0.00000000E+00
  0.00000000E+00  0.00000000E+00  7.08742682E-02  3.39752839E-01  7.27158577E-01
  1.00000000E+00  0.00000000E+00  0.00000000E+00  0.00000000E+00  0.00000000E+00
  0.00000000E+00  0.00000000E+00  0.00000000E+00  7.08742682E-02  3.39752839E-01
  7.27158577E-01  1.00000000E+00  0.00000000E+00  0.00000000E+00  0.00000000E+00
  0.00000000E+00  0.00000000E+00  0.00000000E+00  0.00000000E+00  6.89990666E-02
  3.16423961E-01  7.44308291E-01  1.00000000E+00  0.00000000E+00  0.00000000E+00
  0.00000000E+00  0.00000000E+00  0.00000000E+00  0.00000000E+00  0.00000000E+00
  6.89990666E-02  3.16423961E-01  7.44308291E-01  1.00000000E+00  0.00000000E+00
  0.00000000E+00  0.00000000E+00  0.00000000E+00  0.00000000E+00  0.00000000E+00
  0.00000000E+00  6.89990666E-02  3.16423961E-01  7.44308291E-01  1.00000000E+00
  0.00000000E+00  0.00000000E+00  0.00000000E+00  0.00000000E+00  0.00000000E+00
  0.00000000E+00  0.00000000E+00  0.00000000E+00  0.00000000E+00  0.00000000E+00
  0.00000000E+00  0.00000000E+00  0.00000000E+00  0.00000000E+00  0.00000000E+00
  0.00000000E+00  0.00000000E+00  0.00000000E+00  0.00000000E+00  0.00000000E+00
  0.00000000E+00
Coordinates of each shell                  R   N=         102
  2.14509350E+00 -1.30746213E+00  6.25244207E-02  2.14509350E+00 -1.30746213E+00
  6.25244207E-02  2.14509350E+00 -1.30746213E+00  6.25244207E-02  2.14509350E+00
 -1.30746213E+00  6.25244207E-02  2.89355199E-01  2.62929772E+00 -3.26659712E-01
  2.89355199E-01  2.62929772E+00 -3.26659712E-01  2.89355199E-01  2.62929772E+00
 -3.26659712E-01  2.89355199E-01  2.62929772E+00 -3.26659712E-01  4.62296776E+00
 -1.96762118E-01  4.50803038E-01  4.62296776E+00 -1.96762118E-01  4.50803038E-01
  4.62296776E+00 -1.96762118E-01  4.50803038E-01  4.62296776E+00 -1.96762118E-01
  4.50803038E-01 -2.16671506E+00 -1.17709405E+00 -7.59429877E-01 -2.16671506E+00
 -1.17709405E+00 -7.59429877E-01 -2.16671506E+00 -1.17709405E+00 -7.59429877E-01
 -2.16671506E+00 -1.17709405E+00 -7.59429877E-01 -4.34264580E+00 -4.23053437E-02
  7.53029151E-01 -4.34264580E+00 -4.23053437E-02  7.53029151E-01 -4.34264580E+00
 -4.23053437E-02  7.53029151E-01 -4.34264580E+00 -4.23053437E-02  7.53029151E-01
  2.83692225E-01  2.95265351E-01 -3.00112574E-01  2.83692225E-01  2.95265351E-01
 -3.00112574E-01  2.83692225E-01  2.95265351E-01 -3.00112574E-01  2.83692225E-01
  2.95265351E-01 -3.00112574E-01 -2.60482282E+00 -1.06089863E+00 -2.78447055E+00
 -2.60482282E+00 -1.06089863E+00 -2.78447055E+00 -1.87754356E+00 -3.17189996E+00
 -3.01377769E-01 -1.87754356E+00 -3.17189996E+00 -3.01377769E-01 -6.15328251E+00
 -9.44614703E-01  3.05362089E-01 -6.15328251E+00 -9.44614703E-01  3.05362089E-01
 -4.46814213E+00  1.97593515E+00  3.44115780E-01 -4.46814213E+00  1.97593515E+00
  3.44115780E-01 -4.00152887E+00 -2.54305390E-01  2.78210827E+00 -4.00152887E+00
 -2.54305390E-01  2.78210827E+00
Constraint Structure                       R   N=          33
  2.14509350E+00 -1.30746213E+00  6.25244207E-02  2.89355199E-01  2.62929772E+00
 -3.26659712E-01  4.62296776E+00 -1.96762118E-01  4.50803038E-01 -2.16671506E+00
 -1.17709405E+00 -7.59429877E-01 -4.34264580E+00 -4.23053437E-02  7.53029151E-01
  2.83692225E-01  2.95265351E-01 -3.00112574E-01 -2.60482282E+00 -1.06089863E+00
 -2.78447055E+00 -1.87754356E+00 -3.17189996E+00 -3.01377769E-01 -6.15328251E+00
 -9.44614703E-01  3.05362089E-01 -4.46814213E+00  1.97593515E+00  3.44115780E-01
 -4.00152887E+00 -2.54305390E-01  2.78210827E+00
Num ILSW                                   I              100
ILSW                                       I   N=         100
           0           1           0           0           2           0
           0           0           0           0           0          -1
           0           0           0           0           0           0
           0           0           0           0           1           0
           1           0           0           0           0           0
           0           0      100000           0          -1           0
           0           0           0           0           0           0
           0           0           0           1           1           0
           0           0           1           0           0           0
           0           0           4          40           0           0
           0           0           0           0           0           0
           0           0           0           0           0           0
           0           0           0           0           0           0
           0           0           0           0           0           0
           0           0           0           0           0           0
           0           0           0           0           0           0
           0           0           0           0
Num RLSW                                   I               40
RLSW                                       R   N=          40
  1.00000000E+00  1.00000000E+00  1.00000000E+00  1.00000000E+00  1.00000000E+00
  0.00000000E+00  0.00000000E+00  1.00000000E+00  0.00000000E+00  0.00000000E+00
  0.00000000E+00  0.00000000E+00  1.00000000E+00  0.00000000E+00  0.00000000E+00
  0.00000000E+00  0.00000000E+00  1.00000000E+00  0.00000000E+00  0.00000000E+00
  0.00000000E+00  0.00000000E+00  1.00000000E+00  0.00000000E+00  0.00000000E+00
  0.00000000E+00  0.00000000E+00  1.00000000E+00  0.00000000E+00  0.00000000E+00
  0.00000000E+00  0.00000000E+00  0.00000000E+00  0.00000000E+00  0.00000000E+00
  0.00000000E+00  0.00000000E+00  0.00000000E+00  1.00000000E+00  1.00000000E+00
MxBond                                     I                4
NBond                                      I   N=          11
           2           1           1           4           4           3
           1           1           1           1           1
IBond                                      I   N=          44
           3           6           0           0           6           0
           0           0           1           0           0           0
           5           6           7           8           4           9
          10          11           1           2           4           0
           4           0           0           0           4           0
           0           0           5           0           0           0
           5           0           0           0           5           0
           0           0
RBond                                      R   N=          44
  1.00000000E+00  1.50000000E+00  0.00000000E+00  0.00000000E+00  2.00000000E+00
  0.00000000E+00  0.00000000E+00  0.00000000E+00  1.00000000E+00  0.00000000E+00
  0.00000000E+00  0.00000000E+00  1.00000000E+00  1.00000000E+00  1.00000000E+00
  1.00000000E+00  1.00000000E+00  1.00000000E+00  1.00000000E+00  1.00000000E+00
  1.50000000E+00  2.00000000E+00  1.00000000E+00  0.00000000E+00  1.00000000E+00
  0.00000000E+00  0.00000000E+00  0.00000000E+00  1.00000000E+00  0.00000000E+00
  0.00000000E+00  0.00000000E+00  1.00000000E+00  0.00000000E+00  0.00000000E+00
  0.00000000E+00  1.00000000E+00  0.00000000E+00  0.00000000E+00  0.00000000E+00
  1.00000000E+00  0.00000000E+00  0.00000000E+00  0.00000000E+00
Virial Ratio                               R      2.002375834261301E+00
SCF Energy                                 R     -3.409926660787154E+02
MP2 Energy                                 R     -3.419164013987933E+02
Total Energy                               R     -3.419164013987933E+02
Post-SCF wavefunction norm                 R      1.601890134233218E+00
RMS Force                                  R      1.001947167056195E-06
RMS Density                                R      1.402185390228939E-09
External E-field                           R   N=          35
  0.00000000E+00  0.00000000E+00  0.00000000E+00  0.00000000E+00  0.00000000E+00
  0.00000000E+00  0.00000000E+00  0.00000000E+00  0.00000000E+00  0.00000000E+00
  0.00000000E+00  0.00000000E+00  0.00000000E+00  0.00000000E+00  0.00000000E+00
  0.00000000E+00  0.00000000E+00  0.00000000E+00  0.00000000E+00  0.00000000E+00
  0.00000000E+00  0.00000000E+00  0.00000000E+00  0.00000000E+00  0.00000000E+00
  0.00000000E+00  0.00000000E+00  0.00000000E+00  0.00000000E+00  0.00000000E+00
  0.00000000E+00  0.00000000E+00  0.00000000E+00  0.00000000E+00  0.00000000E+00
IOpCl                                      I                0
IROHF                                      I                0
Alpha Orbital Energies                     R   N=         100
 -2.03958217E+01 -2.03376269E+01 -2.02715866E+01 -1.11758379E+01 -1.10917579E+01
 -1.10846996E+01 -1.23541822E+00 -1.14039176E+00 -9.19866399E-01 -8.77444285E-01
 -7.24873879E-01 -5.52362514E-01 -4.91228720E-01 -4.84002664E-01 -4.35905606E-01
 -4.22092490E-01 -4.00978969E-01 -3.67600316E-01 -3.54426780E-01 -2.88615815E-01
 -2.70310729E-01 -2.32665336E-01 -1.60896906E-01 -1.37883718E-01  3.58900567E-01
  4.01313222E-01  4.25975028E-01  4.39504983E-01  4.42325247E-01  4.83390826E-01
  5.35752079E-01  5.72459366E-01  5.91631650E-01  6.75761581E-01  7.65744795E-01
  8.72518273E-01  8.78333512E-01  9.31451265E-01  1.00114871E+00  1.03084704E+00
  1.04321168E+00  1.10225583E+00  1.11837674E+00  1.16174336E+00  1.21004956E+00
  1.26982772E+00  1.27376785E+00  1.28811402E+00  1.31675693E+00  1.34519074E+00
  1.35948564E+00  1.39071071E+00  1.41432218E+00  1.44306553E+00  1.49216090E+00
  1.50343580E+00  1.55543248E+00  1.58981965E+00  1.61983888E+00  1.69099085E+00
  1.77389684E+00  1.81753606E+00  1.89652360E+00  1.93185623E+00  2.01465516E+00
  2.04315432E+00  2.10100640E+00  2.15873868E+00  2.24429489E+00  2.27770718E+00
  2.32732002E+00  2.33797744E+00  2.39122412E+00  2.40947200E+00  2.42500771E+00
  2.44342825E+00  2.47158152E+00  2.54244144E+00  2.57458623E+00  2.61961876E+00
  2.73747752E+00  2.77886848E+00  2.82811445E+00  2.83853415E+00  2.88898764E+00
  2.93139511E+00  3.00885152E+00  3.07588295E+00  3.27595189E+00  3.32574217E+00
  3.38152065E+00  3.50021147E+00  3.71131408E+00  3.74648217E+00  4.12881785E+00
  4.57006087E+00  4.70954337E+00  4.85760204E+00  4.92983728E+00  5.11628784E+00
Alpha MO coefficients                      R   N=       10000
  9.94710645E-01  2.10752723E-02 -1.82754274E-04  1.20232876E-03 -6.84300612E-05
  3.68087163E-03 -3.48422003E-04 -6.35521214E-04 -3.90351947E-05 -4.06502718E-03
 -3.92159806E-03 -3.85898553E-03 -1.02362313E-04 -3.81544418E-05 -1.40973577E-05
 -2.48583091E-04  5.69608090E-05 -2.32578838E-05  2.99002691E-06 -6.65550913E-06
 -3.68634872E-04 -7.47901766E-05  6.91326779E-05 -5.63712732E-06  2.97149503E-05
  3.64515444E-05  1.30523831E-05  9.42110254E-05  1.75961519E-06  1.56919547E-05
  1.08390134E-03  8.30473440E-05 -2.36864041E-04 -1.19161578E-04 -3.70543892E-05
  4.94415658E-05 -2.51674056E-04 -2.27604395E-05 -4.12533183E-05  2.20521844E-04
 -4.28790795E-06 -2.12318735E-05  1.04374718E-04  4.53828446E-05  1.71057569E-05
 -3.15106162E-06  3.42777942E-05 -7.84578249E-06  3.62938386E-06 -7.03933914E-06
  2.79292623E-04 -1.72113380E-04 -2.90434514E-05  3.79609252E-05 -9.21792389E-05
 -1.16941438E-05 -1.06947936E-05 -6.77358485E-06 -2.66842602E-05  6.95461583E-06
  2.52585291E-06  1.61280397E-05 -2.77318150E-06  8.03260721E-06 -2.96436706E-06
 -1.60093919E-04 -5.73853302E-05  1.70909935E-05  7.88866518E-05  4.84780914E-07
 -2.45287777E-06  4.59364238E-06 -2.44504122E-06  6.74405995E-06 -2.20449198E-06
  6.95129358E-08  4.51327642E-04  2.19252270E-04 -1.76374804E-04  4.16881756E-05
 -2.00239386E-05 -1.84720952E-05  4.01236236E-04 -2.71927178E-05 -1.39824292E-04
 -1.38749711E-04 -5.34494879E-05  1.62417821E-04 -1.98509782E-05  3.25387753E-05
 -4.83186265E-06 -2.89849149E-05  3.62000228E-05 -1.89213181E-04  7.14753638E-06
 -7.31995473E-06  1.61865011E-05 -7.79092134E-06 -1.86356300E-07 -1.02701570E-05
  2.52856012E-04 -5.30300109E-05 -1.44703924E-05 -1.41342032E-05 -1.46272968E-06
  3.08434933E-04 -1.30834944E-04  9.51223419E-05 -2.94222860E-05  1.16006231E-04
 -1.03430274E-04 -6.58828565E-05 -3.06406134E-05  4.12621885E-05 -5.31895933E-06
  9.94697229E-01  2.10210989E-02 -5.33061206E-05 -1.48336183E-03  3.99703538E-06
  4.19183552E-03  4.10019453E-05  1.22368069E-04  1.56883380E-05 -3.89102812E-03
 -3.63902684E-03 -4.06603831E-03  1.69767941E-05  3.57511259E-05 -3.44850540E-06
 -1.15360795E-05  1.21418446E-05  9.65221058E-07  1.08155030E-05 -3.28689716E-07
 -1.64130401E-05  2.86156419E-05 -7.27901047E-06  5.97574806E-06 -1.57035621E-05
 -3.87550487E-06  1.63999603E-05 -1.82779177E-05 -6.06714592E-06 -2.51850971E-06
 -8.21058830E-07  8.83557599E-06 -8.48973491E-06 -2.56235663E-05 -2.58701787E-06
 -1.99865993E-05 -1.06585545E-04 -7.71832730E-05  4.90453330E-05  2.06327293E-05
 -5.64814711E-05 -1.30710720E-05 -3.94464858E-05  1.19091297E-06 -3.82468185E-06
  3.72055012E-06  1.55136592E-05  1.79822894E-05  2.00323456E-06  6.94631956E-06
 -3.07143039E-05 -1.18983346E-04  4.66001024E-05 -1.33573639E-05  2.92842150E-06
  1.79983839E-06  1.66240514E-06  4.45347601E-06  8.41664802E-06 -4.66855961E-06
 -7.70697095E-06  5.10976912E-04 -2.00614966E-05  3.32236853E-05 -7.50859019E-06
 -3.25896043E-04 -2.29352277E-04 -2.38576677E-04 -4.29407519E-05 -7.14354317E-05
 -7.79844908E-04 -4.99778186E-05  5.95830543E-05 -4.59009594E-06  2.14405224E-05
  1.51628868E-05 -8.83003695E-06  1.98859656E-06 -6.36095677E-05 -7.07928739E-06
 -4.91570798E-05  2.86146458E-05 -1.17786876E-04  1.02166299E-05  2.70329215E-05
 -1.14443198E-03  6.55237785E-05  2.63975089E-04  1.27675503E-04  4.14941957E-05
  3.75235612E-04  2.50437032E-04  2.29398093E-04  3.42376329E-05  1.27039810E-04
  4.34094167E-05 -3.77130986E-05  4.71435448E-05  3.20329886E-05  4.82077235E-06
  1.47838224E-05  2.83080884E-06  7.54581789E-06 -2.72313060E-07  1.42870858E-06
  1.76693772E-05 -3.22869109E-05 -1.70399835E-05 -6.14433020E-06 -3.95424411E-06
  1.07628428E-05  9.00035808E-06  1.39066804E-05 -3.20239899E-06  2.62411888E-06
  9.94854302E-01  2.07449983E-02 -1.00107675E-03 -4.21772139E-04 -1.57932731E-04
  3.00168221E-03  7.09219947E-04  2.96147643E-04  1.11827453E-04 -4.16883098E-03
 -3.60596064E-03 -3.51231799E-03 -3.21702416E-04 -1.22320639E-04 -5.11013632E-05
 -6.20145159E-06 -3.19362021E-05 -2.67771071E-06  5.22673273E-06 -3.83319828E-07
  1.27408768E-04  9.52818988E-05  1.15831049E-05  2.12873654E-05  6.33455425E-06
 -5.66947021E-07 -1.35157290E-05  8.78427374E-06  5.92578435E-06  5.19250916E-07
  3.98219111E-07  9.00722066E-07  7.76167014E-07 -1.55180063E-06  2.09215320E-06
  1.31944348E-06 -1.79376451E-05  3.32413915E-07 -2.35576682E-05 -1.39839649E-06
  2.23036639E-06  1.18418166E-06  1.12003719E-06 -9.89354558E-07  3.29965797E-06
 -4.28181834E-06  3.47026131E-05 -6.52904055E-05  2.03251514E-05 -1.28502662E-05
 -1.62280340E-04  2.82595158E-06  3.88758095E-06  6.00465626E-06 -9.00065345E-05
 -2.97855113E-05 -2.42809776E-05  2.79231937E-05 -1.43267459E-05  4.75390732E-06
 -7.12737960E-07 -4.13114535E-06 -1.75818660E-05  7.16027596E-06 -3.18523195E-06
 -1.65919494E-06  1.41382292E-06 -8.69501320E-06  3.58570981E-06  1.07340560E-05
 -1.25761075E-04  6.59687377E-04 -2.73275041E-05  2.07471779E-04 -2.50953552E-05
 -2.00034576E-03  4.02911577E-04 -1.73291287E-03  1.70930364E-04 -2.79596429E-04
 -1.25593935E-04  5.06946734E-04  3.04179989E-04 -1.81477387E-04  7.42793638E-05
 -2.68746424E-04  4.76589630E-04  8.14522111E-05 -2.33425817E-04  2.71756863E-05
 -2.04913592E-03 -6.56737253E-04  1.48887645E-03 -1.53059403E-04  1.37657913E-04
 -1.34863355E-04  3.38038202E-04  6.79021922E-05 -3.26109936E-05  1.75881396E-05
  2.81734382E-06 -1.13576727E-04 -1.42513141E-05 -3.63503384E-05  8.76797858E-07
  4.16634830E-04 -4.75844542E-04 -8.99552214E-06 -9.21726054E-05  2.73289046E-04
 -9.36450686E-05 -2.47164024E-05  4.48692758E-05  6.29191293E-05  1.18527624E-05
  3.06333547E-03  2.75640789E-04 -4.51970697E-05 -2.79854129E-05 -3.87629209E-05
  2.93953948E-03  1.90422708E-03  5.85909282E-04  1.22769496E-04 -4.60918527E-04
 -2.35556015E-04 -1.33927538E-04 -1.68392363E-04 -3.49692548E-05 -8.41193276E-05
 -1.01357135E-04 -2.95035752E-04 -1.46556891E-04 -3.39346331E-05 -5.53791811E-06
  9.06342843E-04  8.74254631E-04  1.27924859E-04 -1.18556331E-04 -2.96108995E-06
 -6.85426803E-05 -6.74412276E-05  4.63508353E-06 -4.83971078E-05  2.72461145E-05
  9.95905038E-01  2.59606552E-02  3.99834938E-04 -1.15367559E-04  9.97719211E-05
 -6.16951775E-03  3.06876792E-03  2.10222349E-03  4.63031714E-04 -1.25467205E-03
 -4.42574288E-04 -2.18992085E-03 -3.97795112E-04  2.12736314E-04 -1.01600902E-04
 -1.55757475E-04  3.13423591E-04 -1.10197932E-04  1.66668216E-05  1.34404086E-05
  4.38292703E-04 -1.04612487E-04 -9.10865902E-05 -1.34286210E-04 -5.57738888E-06
 -1.34633174E-05 -6.19677556E-05 -1.89617223E-05 -1.41772154E-06  3.21733406E-05
  3.91844141E-04 -1.87020472E-05  9.91646130E-05 -1.42511168E-04 -3.99215496E-05
 -1.39847389E-05 -3.38091434E-05 -1.62175790E-05  1.94608109E-05  4.98896022E-07
 -7.06304144E-06 -2.89682666E-05  1.23923989E-05  1.82482035E-05 -3.18745985E-05
 -4.48206718E-05  1.76629179E-04 -8.67636407E-05  7.93096377E-05 -3.51338264E-05
  3.12255680E-05 -7.03364203E-05 -2.41038542E-05 -2.15714638E-05 -7.95776327E-06
 -9.36461472E-06 -3.73361477E-05  1.52362168E-05 -5.77323464E-06 -8.69359092E-07
  1.42108994E-04 -5.85388787E-05  3.76953645E-05  1.65019273E-05 -1.89596259E-05
 -3.13572958E-05 -3.61870889E-05 -1.01795291E-05 -6.74079109E-06 -8.49263007E-06
  4.22640562E-02  1.38241995E-03 -6.02653950E-05  1.18285203E-05 -1.42707127E-06
  2.12426759E-03 -1.54757407E-03  2.43289926E-04  8.90329682E-04 -3.99609867E-04
 -2.38805244E-04 -2.63070162E-04  8.52463927E-05  1.61003029E-04 -1.12685194E-04
  9.94846673E-01  2.83437711E-02  2.08436630E-05 -8.34220944E-05  1.71561327E-05
 -1.47158475E-02 -6.24369499E-04  1.69720488E-04  1.33420767E-04 -1.83277719E-03
 -1.80998304E-03 -1.82215267E-03  2.73527824E-05  2.27091563E-05 -2.41537309E-05
 -1.44216569E-04 -2.75930452E-04  9.50795214E-05 -2.16882134E-05 -7.00009838E-06
  8.76177629E-04 -9.36063514E-04 -1.56449240E-05 -6.55615670E-05 -2.58797395E-05
 -1.08777091E-04 -1.05442888E-04  1.36507180E-06 -4.11811591E-05  2.74246957E-05
 -9.10767787E-05  2.02427743E-04 -1.38860961E-04  8.53116350E-05  7.11854389E-05
  2.39869546E-03  1.52297536E-04  2.55226756E-03  1.43821921E-04  2.64328275E-03
 -1.39063531E-05 -1.65136259E-04  6.79711061E-05 -2.04563008E-05  6.63793383E-06
  1.80401610E-04 -3.53455937E-04  1.89835586E-04 -6.65254393E-05  1.90450844E-05
 -1.66280248E-05 -1.33183031E-04 -5.47660988E-05  3.83630222E-05 -1.32615240E-05
 -5.23542624E-05 -3.02044006E-04  2.59671824E-05  3.94015941E-05  3.05428715E-05
  1.14798399E-03  2.63984516E-04 -4.32839188E-04 -3.39838831E-05 -1.23383249E-04
 -1.70325304E-05 -2.84989298E-04 -1.84179259E-05  5.39578968E-05  3.67829391E-06
 -3.89389404E-05 -1.56534244E-04  3.56097667E-05 -1.43780372E-05  7.17493628E-06
  7.16147883E-04 -3.03221340E-04  1.46463387E-05 -5.45143236E-05 -7.64159844E-05
 -1.15408140E-04 -1.43896599E-04 -5.62735428E-06  1.52920667E-05 -1.61169746E-06
  9.94952763E-01  2.87004619E-02 -1.45406727E-04  1.07722552E-04 -1.84484464E-05
 -1.81462081E-02 -2.83806248E-04 -1.12198889E-03 -5.81074024E-04 -1.64515832E-03
 -1.61085522E-03 -1.59714796E-03 -2.99089016E-05 -5.76002913E-06 -3.54189428E-05
 -4.25380700E-02 -1.13358726E-03  8.32664850E-05  1.32444896E-05 -1.73985679E-05
  4.86062988E-03  1.43903253E-03 -7.89735244E-04 -1.04899660E-03 -2.38916145E-04
 -1.11289557E-04 -1.40754475E-04  1.39632248E-04  1.85660954E-04 -1.32301758E-04
 -3.37111511E-03 -8.68127800E-05 -1.12238054E-04 -7.12171755E-05 -6.82680163E-06
  3.75270115E-03 -2.45390159E-03 -1.50648852E-03 -3.48385849E-04 -3.68375154E-04
 -3.74941693E-04 -1.60085960E-04 -1.16447483E-04 -4.97142401E-05 -3.65977229E-05
  2.40169267E-04  2.77448321E-03  2.50002457E-04  2.59148135E-03 -1.53234382E-04
 -2.64773188E-04 -1.52310053E-04 -7.18443836E-05 -1.68226336E-04 -5.20469372E-05
 -1.62894818E-01  3.65977603E-01 -2.59343250E-02  7.62249841E-02 -6.56858683E-03
  3.34987370E-01 -1.68025716E-02  4.36201034E-02 -4.10642929E-03  1.45542173E-02
  9.70805163E-03 -1.69052910E-03 -3.44418500E-03  3.37218176E-03 -9.99520266E-04
 -8.75598943E-02  1.92611831E-01  4.97073501E-03 -7.02662580E-02  1.74914201E-03
  1.75831492E-01  9.90879287E-03 -2.92815451E-02  2.23354723E-03 -1.74526105E-03
  1.07350504E-02 -1.23069605E-04 -2.98155166E-03 -3.54287578E-04 -6.87202227E-04
 -6.28595178E-02  1.38454035E-01 -4.97116111E-02 -1.70384738E-02 -7.94079135E-03