12488899                                                                
Freq      RMP2-FC                                                     6-31G(d)            
Number of atoms                            I               21
Info1-9                                    I   N=           9
          33          31        1002           0           0         100
           6           2           1
Charge                                     I                0
Multiplicity                               I                1
Number of electrons                        I               80
Number of alpha electrons                  I               40
Number of beta electrons                   I               40
Number of basis functions                  I              185
Number of independent functions            I              185
Number of point charges in /Mol/           I                0
Number of translation vectors              I                0
Atomic numbers                             I   N=          21
           8           8           6           6           6           6
           6           6           6           6           6           1
           1           1           1           1           1           1
           1           1           1
Nuclear charges                            R   N=          21
  8.00000000E+00  8.00000000E+00  6.00000000E+00  6.00000000E+00  6.00000000E+00
  6.00000000E+00  6.00000000E+00  6.00000000E+00  6.00000000E+00  6.00000000E+00
  6.00000000E+00  1.00000000E+00  1.00000000E+00  1.00000000E+00  1.00000000E+00
  1.00000000E+00  1.00000000E+00  1.00000000E+00  1.00000000E+00  1.00000000E+00
  1.00000000E+00
Current cartesian coordinates              R   N=          63
  4.22955466E+00 -2.18977913E+00 -2.22223073E-01  4.22955507E+00  2.18978298E+00
 -2.22190404E-01 -2.74125422E+00 -1.33379012E+00 -1.00401528E-03 -2.74125500E+00
  1.33378932E+00 -9.81560641E-04  1.77083140E+00 -1.31244556E+00 -7.66887112E-02
  1.77083003E+00  1.31244824E+00 -7.66447920E-02 -4.50510880E-01 -2.68524726E+00
 -4.94532605E-02 -4.50514113E-01  2.68524812E+00 -4.94895540E-02  5.70444368E+00
 -2.21207617E-06  3.89034419E-01 -5.20289189E+00 -2.76578071E+00  6.10189143E-02
 -5.20289459E+00  2.76577832E+00  6.09993939E-02 -4.23878807E-01 -4.73926646E+00
 -6.43630246E-02 -4.23881539E-01  4.73926779E+00 -6.43410089E-02  6.11879555E+00
 -1.96771953E-05  2.42492759E+00  7.42367082E+00  7.11114649E-06 -7.44214106E-01
 -4.86131594E+00 -4.80293961E+00  3.67567213E-02 -6.29847187E+00 -2.32679318E+00
  1.76221208E+00 -6.39435275E+00 -2.30304842E+00 -1.56764934E+00 -6.29845037E+00
  2.32687702E+00  1.76223143E+00 -4.86132265E+00  4.80293664E+00  3.66299445E-02
 -6.39437669E+00  2.30295923E+00 -1.56762747E+00
Force Field                                I                0
Int Atom Types                             I   N=          21
           0           0           0           0           0           0
           0           0           0           0           0           0
           0           0           0           0           0           0
           0           0           0
MM charges                                 R   N=          21
  0.00000000E+00  0.00000000E+00  0.00000000E+00  0.00000000E+00  0.00000000E+00
  0.00000000E+00  0.00000000E+00  0.00000000E+00  0.00000000E+00  0.00000000E+00
  0.00000000E+00  0.00000000E+00  0.00000000E+00  0.00000000E+00  0.00000000E+00
  0.00000000E+00  0.00000000E+00  0.00000000E+00  0.00000000E+00  0.00000000E+00
  0.00000000E+00
Integer atomic weights                     I   N=          21
          16          16          12          12          12          12
          12          12          12          12          12           1
           1           1           1           1           1           1
           1           1           1
Real atomic weights                        R   N=          21
  1.59949146E+01  1.59949146E+01  1.20000000E+01  1.20000000E+01  1.20000000E+01
  1.20000000E+01  1.20000000E+01  1.20000000E+01  1.20000000E+01  1.20000000E+01
  1.20000000E+01  1.00782504E+00  1.00782504E+00  1.00782504E+00  1.00782504E+00
  1.00782504E+00  1.00782504E+00  1.00782504E+00  1.00782504E+00  1.00782504E+00
  1.00782504E+00
Atom fragment info                         I   N=          21
           0           0           0           0           0           0
           0           0           0           0           0           0
           0           0           0           0           0           0
           0           0           0
Atom residue num                           I   N=          21
           0           0           0           0           0           0
           0           0           0           0           0           0
           0           0           0           0           0           0
           0           0           0
Nuclear spins                              I   N=          21
           0           0           0           0           0           0
           0           0           0           0           0           1
           1           1           1           1           1           1
           1           1           1
Nuclear ZEff                               R   N=          21
 -5.60000000E+00 -5.60000000E+00 -3.60000000E+00 -3.60000000E+00 -3.60000000E+00
 -3.60000000E+00 -3.60000000E+00 -3.60000000E+00 -3.60000000E+00 -3.60000000E+00
 -3.60000000E+00 -1.00000000E+00 -1.00000000E+00 -1.00000000E+00 -1.00000000E+00
 -1.00000000E+00 -1.00000000E+00 -1.00000000E+00 -1.00000000E+00 -1.00000000E+00
 -1.00000000E+00
Nuclear QMom                               R   N=          21
  0.00000000E+00  0.00000000E+00  0.00000000E+00  0.00000000E+00  0.00000000E+00
  0.00000000E+00  0.00000000E+00  0.00000000E+00  0.00000000E+00  0.00000000E+00
  0.00000000E+00  0.00000000E+00  0.00000000E+00  0.00000000E+00  0.00000000E+00
  0.00000000E+00  0.00000000E+00  0.00000000E+00  0.00000000E+00  0.00000000E+00
  0.00000000E+00
Nuclear GFac                               R   N=          21
  0.00000000E+00  0.00000000E+00  0.00000000E+00  0.00000000E+00  0.00000000E+00
  0.00000000E+00  0.00000000E+00  0.00000000E+00  0.00000000E+00  0.00000000E+00
  0.00000000E+00  2.79284600E+00  2.79284600E+00  2.79284600E+00  2.79284600E+00
  2.79284600E+00  2.79284600E+00  2.79284600E+00  2.79284600E+00  2.79284600E+00
  2.79284600E+00
MicOpt                                     I   N=          21
          -1          -1          -1          -1          -1          -1
          -1          -1          -1          -1          -1          -1
          -1          -1          -1          -1          -1          -1
          -1          -1          -1
Number of contracted shells                I               64
Number of primitive shells                 I              161
Pure/Cartesian d shells                    I                1
Pure/Cartesian f shells                    I                0
Highest angular momentum                   I                2
Largest degree of contraction              I                6
Shell types                                I   N=          64
           0          -1          -1           2           0          -1
          -1           2           0          -1          -1           2
           0          -1          -1           2           0          -1
          -1           2           0          -1          -1           2
           0          -1          -1           2           0          -1
          -1           2           0          -1          -1           2
           0          -1          -1           2           0          -1
          -1           2           0           0           0           0
           0           0           0           0           0           0
           0           0           0           0           0           0
           0           0           0           0
Number of primitives per shell             I   N=          64
           6           3           1           1           6           3
           1           1           6           3           1           1
           6           3           1           1           6           3
           1           1           6           3           1           1
           6           3           1           1           6           3
           1           1           6           3           1           1
           6           3           1           1           6           3
           1           1           3           1           3           1
           3           1           3           1           3           1
           3           1           3           1           3           1
           3           1           3           1
Shell to atom map                          I   N=          64
           1           1           1           1           2           2
           2           2           3           3           3           3
           4           4           4           4           5           5
           5           5           6           6           6           6
           7           7           7           7           8           8
           8           8           9           9           9           9
          10          10          10          10          11          11
          11          11          12          12          13          13
          14          14          15          15          16          16
          17          17          18          18          19          19
          20          20          21          21
Primitive exponents                        R   N=         161
  5.48467166E+03  8.25234946E+02  1.88046958E+02  5.29645000E+01  1.68975704E+01
  5.79963534E+00  1.55396162E+01  3.59993359E+00  1.01376175E+00  2.70005823E-01
  8.00000000E-01  5.48467166E+03  8.25234946E+02  1.88046958E+02  5.29645000E+01
  1.68975704E+01  5.79963534E+00  1.55396162E+01  3.59993359E+00  1.01376175E+00
  2.70005823E-01  8.00000000E-01  3.04752488E+03  4.57369518E+02  1.03948685E+02
  2.92101553E+01  9.28666296E+00  3.16392696E+00  7.86827235E+00  1.88128854E+00
  5.44249258E-01  1.68714478E-01  8.00000000E-01  3.04752488E+03  4.57369518E+02
  1.03948685E+02  2.92101553E+01  9.28666296E+00  3.16392696E+00  7.86827235E+00
  1.88128854E+00  5.44249258E-01  1.68714478E-01  8.00000000E-01  3.04752488E+03
  4.57369518E+02  1.03948685E+02  2.92101553E+01  9.28666296E+00  3.16392696E+00
  7.86827235E+00  1.88128854E+00  5.44249258E-01  1.68714478E-01  8.00000000E-01
  3.04752488E+03  4.57369518E+02  1.03948685E+02  2.92101553E+01  9.28666296E+00
  3.16392696E+00  7.86827235E+00  1.88128854E+00  5.44249258E-01  1.68714478E-01
  8.00000000E-01  3.04752488E+03  4.57369518E+02  1.03948685E+02  2.92101553E+01
  9.28666296E+00  3.16392696E+00  7.86827235E+00  1.88128854E+00  5.44249258E-01
  1.68714478E-01  8.00000000E-01  3.04752488E+03  4.57369518E+02  1.03948685E+02
  2.92101553E+01  9.28666296E+00  3.16392696E+00  7.86827235E+00  1.88128854E+00
  5.44249258E-01  1.68714478E-01  8.00000000E-01  3.04752488E+03  4.57369518E+02
  1.03948685E+02  2.92101553E+01  9.28666296E+00  3.16392696E+00  7.86827235E+00
  1.88128854E+00  5.44249258E-01  1.68714478E-01  8.00000000E-01  3.04752488E+03
  4.57369518E+02  1.03948685E+02  2.92101553E+01  9.28666296E+00  3.16392696E+00
  7.86827235E+00  1.88128854E+00  5.44249258E-01  1.68714478E-01  8.00000000E-01
  3.04752488E+03  4.57369518E+02  1.03948685E+02  2.92101553E+01  9.28666296E+00
  3.16392696E+00  7.86827235E+00  1.88128854E+00  5.44249258E-01  1.68714478E-01
  8.00000000E-01  1.87311370E+01  2.82539436E+00  6.40121692E-01  1.61277759E-01
  1.87311370E+01  2.82539436E+00  6.40121692E-01  1.61277759E-01  1.87311370E+01
  2.82539436E+00  6.40121692E-01  1.61277759E-01  1.87311370E+01  2.82539436E+00
  6.40121692E-01  1.61277759E-01  1.87311370E+01  2.82539436E+00  6.40121692E-01
  1.61277759E-01  1.87311370E+01  2.82539436E+00  6.40121692E-01  1.61277759E-01
  1.87311370E+01  2.82539436E+00  6.40121692E-01  1.61277759E-01  1.87311370E+01
  2.82539436E+00  6.40121692E-01  1.61277759E-01  1.87311370E+01  2.82539436E+00
  6.40121692E-01  1.61277759E-01  1.87311370E+01  2.82539436E+00  6.40121692E-01
  1.61277759E-01
Contraction coefficients                   R   N=         161
  1.83107443E-03  1.39501722E-02  6.84450781E-02  2.32714336E-01  4.70192898E-01
  3.58520853E-01 -1.10777550E-01 -1.48026263E-01  1.13076702E+00  1.00000000E+00
  1.00000000E+00  1.83107443E-03  1.39501722E-02  6.84450781E-02  2.32714336E-01
  4.70192898E-01  3.58520853E-01 -1.10777550E-01 -1.48026263E-01  1.13076702E+00
  1.00000000E+00  1.00000000E+00  1.83473713E-03  1.40373228E-02  6.88426223E-02
  2.32184443E-01  4.67941348E-01  3.62311985E-01 -1.19332420E-01 -1.60854152E-01
  1.14345644E+00  1.00000000E+00  1.00000000E+00  1.83473713E-03  1.40373228E-02
  6.88426223E-02  2.32184443E-01  4.67941348E-01  3.62311985E-01 -1.19332420E-01
 -1.60854152E-01  1.14345644E+00  1.00000000E+00  1.00000000E+00  1.83473713E-03
  1.40373228E-02  6.88426223E-02  2.32184443E-01  4.67941348E-01  3.62311985E-01
 -1.19332420E-01 -1.60854152E-01  1.14345644E+00  1.00000000E+00  1.00000000E+00
  1.83473713E-03  1.40373228E-02  6.88426223E-02  2.32184443E-01  4.67941348E-01
  3.62311985E-01 -1.19332420E-01 -1.60854152E-01  1.14345644E+00  1.00000000E+00
  1.00000000E+00  1.83473713E-03  1.40373228E-02  6.88426223E-02  2.32184443E-01
  4.67941348E-01  3.62311985E-01 -1.19332420E-01 -1.60854152E-01  1.14345644E+00
  1.00000000E+00  1.00000000E+00  1.83473713E-03  1.40373228E-02  6.88426223E-02
  2.32184443E-01  4.67941348E-01  3.62311985E-01 -1.19332420E-01 -1.60854152E-01
  1.14345644E+00  1.00000000E+00  1.00000000E+00  1.83473713E-03  1.40373228E-02
  6.88426223E-02  2.32184443E-01  4.67941348E-01  3.62311985E-01 -1.19332420E-01
 -1.60854152E-01  1.14345644E+00  1.00000000E+00  1.00000000E+00  1.83473713E-03
  1.40373228E-02  6.88426223E-02  2.32184443E-01  4.67941348E-01  3.62311985E-01
 -1.19332420E-01 -1.60854152E-01  1.14345644E+00  1.00000000E+00  1.00000000E+00
  1.83473713E-03  1.40373228E-02  6.88426223E-02  2.32184443E-01  4.67941348E-01
  3.62311985E-01 -1.19332420E-01 -1.60854152E-01  1.14345644E+00  1.00000000E+00
  1.00000000E+00  3.34946043E-02  2.34726953E-01  8.13757326E-01  1.00000000E+00
  3.34946043E-02  2.34726953E-01  8.13757326E-01  1.00000000E+00  3.34946043E-02
  2.34726953E-01  8.13757326E-01  1.00000000E+00  3.34946043E-02  2.34726953E-01
  8.13757326E-01  1.00000000E+00  3.34946043E-02  2.34726953E-01  8.13757326E-01
  1.00000000E+00  3.34946043E-02  2.34726953E-01  8.13757326E-01  1.00000000E+00
  3.34946043E-02  2.34726953E-01  8.13757326E-01  1.00000000E+00  3.34946043E-02
  2.34726953E-01  8.13757326E-01  1.00000000E+00  3.34946043E-02  2.34726953E-01
  8.13757326E-01  1.00000000E+00  3.34946043E-02  2.34726953E-01  8.13757326E-01
  1.00000000E+00
P(S=P) Contraction coefficients            R   N=         161
  0.00000000E+00  0.00000000E+00  0.00000000E+00  0.00000000E+00  0.00000000E+00
  0.00000000E+00  7.08742682E-02  3.39752839E-01  7.27158577E-01  1.00000000E+00
  0.00000000E+00  0.00000000E+00  0.00000000E+00  0.00000000E+00  0.00000000E+00
  0.00000000E+00  0.00000000E+00  7.08742682E-02  3.39752839E-01  7.27158577E-01
  1.00000000E+00  0.00000000E+00  0.00000000E+00  0.00000000E+00  0.00000000E+00
  0.00000000E+00  0.00000000E+00  0.00000000E+00  6.89990666E-02  3.16423961E-01
  7.44308291E-01  1.00000000E+00  0.00000000E+00  0.00000000E+00  0.00000000E+00
  0.00000000E+00  0.00000000E+00  0.00000000E+00  0.00000000E+00  6.89990666E-02
  3.16423961E-01  7.44308291E-01  1.00000000E+00  0.00000000E+00  0.00000000E+00
  0.00000000E+00  0.00000000E+00  0.00000000E+00  0.00000000E+00  0.00000000E+00
  6.89990666E-02  3.16423961E-01  7.44308291E-01  1.00000000E+00  0.00000000E+00
  0.00000000E+00  0.00000000E+00  0.00000000E+00  0.00000000E+00  0.00000000E+00
  0.00000000E+00  6.89990666E-02  3.16423961E-01  7.44308291E-01  1.00000000E+00
  0.00000000E+00  0.00000000E+00  0.00000000E+00  0.00000000E+00  0.00000000E+00
  0.00000000E+00  0.00000000E+00  6.89990666E-02  3.16423961E-01  7.44308291E-01
  1.00000000E+00  0.00000000E+00  0.00000000E+00  0.00000000E+00  0.00000000E+00
  0.00000000E+00  0.00000000E+00  0.00000000E+00  6.89990666E-02  3.16423961E-01
  7.44308291E-01  1.00000000E+00  0.00000000E+00  0.00000000E+00  0.00000000E+00
  0.00000000E+00  0.00000000E+00  0.00000000E+00  0.00000000E+00  6.89990666E-02
  3.16423961E-01  7.44308291E-01  1.00000000E+00  0.00000000E+00  0.00000000E+00
  0.00000000E+00  0.00000000E+00  0.00000000E+00  0.00000000E+00  0.00000000E+00
  6.89990666E-02  3.16423961E-01  7.44308291E-01  1.00000000E+00  0.00000000E+00
  0.00000000E+00  0.00000000E+00  0.00000000E+00  0.00000000E+00  0.00000000E+00
  0.00000000E+00  6.89990666E-02  3.16423961E-01  7.44308291E-01  1.00000000E+00
  0.00000000E+00  0.00000000E+00  0.00000000E+00  0.00000000E+00  0.00000000E+00
  0.00000000E+00  0.00000000E+00  0.00000000E+00  0.00000000E+00  0.00000000E+00
  0.00000000E+00  0.00000000E+00  0.00000000E+00  0.00000000E+00  0.00000000E+00
  0.00000000E+00  0.00000000E+00  0.00000000E+00  0.00000000E+00  0.00000000E+00
  0.00000000E+00  0.00000000E+00  0.00000000E+00  0.00000000E+00  0.00000000E+00
  0.00000000E+00  0.00000000E+00  0.00000000E+00  0.00000000E+00  0.00000000E+00
  0.00000000E+00  0.00000000E+00  0.00000000E+00  0.00000000E+00  0.00000000E+00
  0.00000000E+00  0.00000000E+00  0.00000000E+00  0.00000000E+00  0.00000000E+00
  0.00000000E+00
Coordinates of each shell                  R   N=         192
  4.22955466E+00 -2.18977913E+00 -2.22223073E-01  4.22955466E+00 -2.18977913E+00
 -2.22223073E-01  4.22955466E+00 -2.18977913E+00 -2.22223073E-01  4.22955466E+00
 -2.18977913E+00 -2.22223073E-01  4.22955507E+00  2.18978298E+00 -2.22190404E-01
  4.22955507E+00  2.18978298E+00 -2.22190404E-01  4.22955507E+00  2.18978298E+00
 -2.22190404E-01  4.22955507E+00  2.18978298E+00 -2.22190404E-01 -2.74125422E+00
 -1.33379012E+00 -1.00401528E-03 -2.74125422E+00 -1.33379012E+00 -1.00401528E-03
 -2.74125422E+00 -1.33379012E+00 -1.00401528E-03 -2.74125422E+00 -1.33379012E+00
 -1.00401528E-03 -2.74125500E+00  1.33378932E+00 -9.81560641E-04 -2.74125500E+00
  1.33378932E+00 -9.81560641E-04 -2.74125500E+00  1.33378932E+00 -9.81560641E-04
 -2.74125500E+00  1.33378932E+00 -9.81560641E-04  1.77083140E+00 -1.31244556E+00
 -7.66887112E-02  1.77083140E+00 -1.31244556E+00 -7.66887112E-02  1.77083140E+00
 -1.31244556E+00 -7.66887112E-02  1.77083140E+00 -1.31244556E+00 -7.66887112E-02
  1.77083003E+00  1.31244824E+00 -7.66447920E-02  1.77083003E+00  1.31244824E+00
 -7.66447920E-02  1.77083003E+00  1.31244824E+00 -7.66447920E-02  1.77083003E+00
  1.31244824E+00 -7.66447920E-02 -4.50510880E-01 -2.68524726E+00 -4.94532605E-02
 -4.50510880E-01 -2.68524726E+00 -4.94532605E-02 -4.50510880E-01 -2.68524726E+00
 -4.94532605E-02 -4.50510880E-01 -2.68524726E+00 -4.94532605E-02 -4.50514113E-01
  2.68524812E+00 -4.94895540E-02 -4.50514113E-01  2.68524812E+00 -4.94895540E-02
 -4.50514113E-01  2.68524812E+00 -4.94895540E-02 -4.50514113E-01  2.68524812E+00
 -4.94895540E-02  5.70444368E+00 -2.21207617E-06  3.89034419E-01  5.70444368E+00
 -2.21207617E-06  3.89034419E-01  5.70444368E+00 -2.21207617E-06  3.89034419E-01
  5.70444368E+00 -2.21207617E-06  3.89034419E-01 -5.20289189E+00 -2.76578071E+00
  6.10189143E-02 -5.20289189E+00 -2.76578071E+00  6.10189143E-02 -5.20289189E+00
 -2.76578071E+00  6.10189143E-02 -5.20289189E+00 -2.76578071E+00  6.10189143E-02
 -5.20289459E+00  2.76577832E+00  6.09993939E-02 -5.20289459E+00  2.76577832E+00
  6.09993939E-02 -5.20289459E+00  2.76577832E+00  6.09993939E-02 -5.20289459E+00
  2.76577832E+00  6.09993939E-02 -4.23878807E-01 -4.73926646E+00 -6.43630246E-02
 -4.23878807E-01 -4.73926646E+00 -6.43630246E-02 -4.23881539E-01  4.73926779E+00
 -6.43410089E-02 -4.23881539E-01  4.73926779E+00 -6.43410089E-02  6.11879555E+00
 -1.96771953E-05  2.42492759E+00  6.11879555E+00 -1.96771953E-05  2.42492759E+00
  7.42367082E+00  7.11114649E-06 -7.44214106E-01  7.42367082E+00  7.11114649E-06
 -7.44214106E-01 -4.86131594E+00 -4.80293961E+00  3.67567213E-02 -4.86131594E+00
 -4.80293961E+00  3.67567213E-02 -6.29847187E+00 -2.32679318E+00  1.76221208E+00
 -6.29847187E+00 -2.32679318E+00  1.76221208E+00 -6.39435275E+00 -2.30304842E+00
 -1.56764934E+00 -6.39435275E+00 -2.30304842E+00 -1.56764934E+00 -6.29845037E+00
  2.32687702E+00  1.76223143E+00 -6.29845037E+00  2.32687702E+00  1.76223143E+00
 -4.86132265E+00  4.80293664E+00  3.66299445E-02 -4.86132265E+00  4.80293664E+00
  3.66299445E-02 -6.39437669E+00  2.30295923E+00 -1.56762747E+00 -6.39437669E+00
  2.30295923E+00 -1.56762747E+00
Constraint Structure                       R   N=          63
  4.22955466E+00 -2.18977913E+00 -2.22223073E-01  4.22955507E+00  2.18978298E+00
 -2.22190404E-01 -2.74125422E+00 -1.33379012E+00 -1.00401528E-03 -2.74125500E+00
  1.33378932E+00 -9.81560641E-04  1.77083140E+00 -1.31244556E+00 -7.66887112E-02
  1.77083003E+00  1.31244824E+00 -7.66447920E-02 -4.50510880E-01 -2.68524726E+00
 -4.94532605E-02 -4.50514113E-01  2.68524812E+00 -4.94895540E-02  5.70444368E+00
 -2.21207617E-06  3.89034419E-01 -5.20289189E+00 -2.76578071E+00  6.10189143E-02
 -5.20289459E+00  2.76577832E+00  6.09993939E-02 -4.23878807E-01 -4.73926646E+00
 -6.43630246E-02 -4.23881539E-01  4.73926779E+00 -6.43410089E-02  6.11879555E+00
 -1.96771953E-05  2.42492759E+00  7.42367082E+00  7.11114649E-06 -7.44214106E-01
 -4.86131594E+00 -4.80293961E+00  3.67567213E-02 -6.29847187E+00 -2.32679318E+00
  1.76221208E+00 -6.39435275E+00 -2.30304842E+00 -1.56764934E+00 -6.29845037E+00
  2.32687702E+00  1.76223143E+00 -4.86132265E+00  4.80293664E+00  3.66299445E-02
 -6.39437669E+00  2.30295923E+00 -1.56762747E+00
Num ILSW                                   I              100
ILSW                                       I   N=         100
           0           1           0           0           2           0
           0           0           0           0           0          -1
           0           0           0           0           0           0
           0           0           0           0           1           0
           1           0           0           0           0           0
           0           0      100000           0          -1           0
           0           0           0           0           0           0
           0           0           0           1           1           0
           0           0           1           0           0           0
           0           0           4          40           0           0
           0           0           0           0           0           0
           0           0           0           0           0           0
           0           0           0           0           0           0
           0           0           0           0           0           0
           0           0           0           0           0           0
           0           0           0           0           0           0
           0           0           0           0
Num RLSW                                   I               40
RLSW                                       R   N=          40
  1.00000000E+00  1.00000000E+00  1.00000000E+00  1.00000000E+00  1.00000000E+00
  0.00000000E+00  0.00000000E+00  1.00000000E+00  0.00000000E+00  0.00000000E+00
  0.00000000E+00  0.00000000E+00  1.00000000E+00  0.00000000E+00  0.00000000E+00
  0.00000000E+00  0.00000000E+00  1.00000000E+00  0.00000000E+00  0.00000000E+00
  0.00000000E+00  0.00000000E+00  1.00000000E+00  0.00000000E+00  0.00000000E+00
  0.00000000E+00  0.00000000E+00  1.00000000E+00  0.00000000E+00  0.00000000E+00
  0.00000000E+00  0.00000000E+00  0.00000000E+00  0.00000000E+00  0.00000000E+00
  0.00000000E+00  0.00000000E+00  0.00000000E+00  1.00000000E+00  1.00000000E+00
MxBond                                     I                4
NBond                                      I   N=          21
           2           2           3           3           3           3
           3           3           4           4           4           1
           1           1           1           1           1           1
           1           1           1
IBond                                      I   N=          84
           5           9           0           0           6           9
           0           0           4           7          10           0
           3           8          11           0           1           6
           7           0           2           5           8           0
           3           5          12           0           4           6
          13           0           1           2          14          15
           3          16          17          18           4          19
          20          21           7           0           0           0
           8           0           0           0           9           0
           0           0           9           0           0           0
          10           0           0           0          10           0
           0           0          10           0           0           0
          11           0           0           0          11           0
           0           0          11           0           0           0
RBond                                      R   N=          84
  1.50000000E+00  1.00000000E+00  0.00000000E+00  0.00000000E+00  1.50000000E+00
  1.00000000E+00  0.00000000E+00  0.00000000E+00  1.50000000E+00  1.50000000E+00
  1.00000000E+00  0.00000000E+00  1.50000000E+00  1.50000000E+00  1.00000000E+00
  0.00000000E+00  1.50000000E+00  1.50000000E+00  1.50000000E+00  0.00000000E+00
  1.50000000E+00  1.50000000E+00  1.50000000E+00  0.00000000E+00  1.50000000E+00
  1.50000000E+00  1.00000000E+00  0.00000000E+00  1.50000000E+00  1.50000000E+00
  1.00000000E+00  0.00000000E+00  1.00000000E+00  1.00000000E+00  1.00000000E+00
  1.00000000E+00  1.00000000E+00  1.00000000E+00  1.00000000E+00  1.00000000E+00
  1.00000000E+00  1.00000000E+00  1.00000000E+00  1.00000000E+00  1.00000000E+00
  0.00000000E+00  0.00000000E+00  0.00000000E+00  1.00000000E+00  0.00000000E+00
  0.00000000E+00  0.00000000E+00  1.00000000E+00  0.00000000E+00  0.00000000E+00
  0.00000000E+00  1.00000000E+00  0.00000000E+00  0.00000000E+00  0.00000000E+00
  1.00000000E+00  0.00000000E+00  0.00000000E+00  0.00000000E+00  1.00000000E+00
  0.00000000E+00  0.00000000E+00  0.00000000E+00  1.00000000E+00  0.00000000E+00
  0.00000000E+00  0.00000000E+00  1.00000000E+00  0.00000000E+00  0.00000000E+00
  0.00000000E+00  1.00000000E+00  0.00000000E+00  0.00000000E+00  0.00000000E+00
  1.00000000E+00  0.00000000E+00  0.00000000E+00  0.00000000E+00
Virial Ratio                               R      2.002208766504211E+00
SCF Energy                                 R     -4.963395164095111E+02
MP2 Energy                                 R     -4.978444317743071E+02
Total Energy                               R     -4.978444317743071E+02
Post-SCF wavefunction norm                 R      1.735319906931869E+00
RMS Force                                  R      5.884566475676145E-07
RMS Density                                R      8.232668007704044E-10
External E-field                           R   N=          35
  0.00000000E+00  0.00000000E+00  0.00000000E+00  0.00000000E+00  0.00000000E+00
  0.00000000E+00  0.00000000E+00  0.00000000E+00  0.00000000E+00  0.00000000E+00
  0.00000000E+00  0.00000000E+00  0.00000000E+00  0.00000000E+00  0.00000000E+00
  0.00000000E+00  0.00000000E+00  0.00000000E+00  0.00000000E+00  0.00000000E+00
  0.00000000E+00  0.00000000E+00  0.00000000E+00  0.00000000E+00  0.00000000E+00
  0.00000000E+00  0.00000000E+00  0.00000000E+00  0.00000000E+00  0.00000000E+00
  0.00000000E+00  0.00000000E+00  0.00000000E+00  0.00000000E+00  0.00000000E+00
IOpCl                                      I                0
IROHF                                      I                0
Alpha Orbital Energies                     R   N=         185
 -2.06000406E+01 -2.06000203E+01 -1.13520951E+01 -1.12925193E+01 -1.12912852E+01
 -1.12431181E+01 -1.12420582E+01 -1.12393304E+01 -1.12393110E+01 -1.12260960E+01
 -1.12260827E+01 -1.46574555E+00 -1.36201763E+00 -1.15731699E+00 -1.05250778E+00
 -1.03710478E+00 -9.51568400E-01 -9.42028693E-01 -8.80757534E-01 -8.35269010E-01
 -7.93334057E-01 -7.13642699E-01 -7.09863255E-01 -6.72660132E-01 -6.46018553E-01
 -6.13564588E-01 -6.09825960E-01 -5.94349343E-01 -5.69303102E-01 -5.63783862E-01
 -5.51338615E-01 -5.40777607E-01 -5.31773037E-01 -5.30175252E-01 -5.28145567E-01
 -4.99238664E-01 -4.89527652E-01 -4.37596381E-01 -3.31149539E-01 -2.90032715E-01
  1.44562875E-01  1.54933509E-01  2.31411198E-01  2.58490298E-01  2.66074730E-01
  2.66629916E-01  2.82792933E-01  2.97249597E-01  3.07292257E-01  3.14985115E-01
  3.25699969E-01  3.45504942E-01  3.57046951E-01  3.64024776E-01  4.02900513E-01
  4.14877872E-01  4.21937274E-01  4.32924658E-01  5.00056601E-01  5.20594141E-01
  5.30878795E-01  5.89058235E-01  6.00027034E-01  6.89663808E-01  7.00273673E-01
  7.09766068E-01  7.29712994E-01  7.31204896E-01  7.55746955E-01  7.55854061E-01
  7.61704035E-01  7.74664016E-01  7.90797573E-01  8.31216358E-01  8.40434251E-01
  8.60031074E-01  8.76126704E-01  8.76398210E-01  8.98336944E-01  9.12872604E-01
  9.14551985E-01  9.95971179E-01  9.96479866E-01  1.00328568E+00  1.02381946E+00
  1.02675474E+00  1.05084572E+00  1.06345204E+00  1.07319726E+00  1.10095875E+00
  1.11267628E+00  1.12858010E+00  1.14529058E+00  1.14728496E+00  1.17209878E+00
  1.17694650E+00  1.18686526E+00  1.20270880E+00  1.22726985E+00  1.27331697E+00
  1.27475882E+00  1.28406922E+00  1.29838028E+00  1.30587809E+00  1.33666684E+00