147_Azobenzene Gaussian SP Calculation on node142.bme.utexas.edu        
Freq      RMP2-FC                                                     6-31G(d)            
Number of atoms                            I               24
Info1-9                                    I   N=           9
          35          34        1002           0           0         100
           6           2           1
Charge                                     I                0
Multiplicity                               I                1
Number of electrons                        I               96
Number of alpha electrons                  I               48
Number of beta electrons                   I               48
Number of basis functions                  I              230
Number of independent functions            I              230
Number of point charges in /Mol/           I                0
Number of translation vectors              I                0
Atomic numbers                             I   N=          24
           7           7           6           6           6           6
           6           6           6           6           6           6
           6           6           1           1           1           1
           1           1           1           1           1           1
Nuclear charges                            R   N=          24
  7.00000000E+00  7.00000000E+00  6.00000000E+00  6.00000000E+00  6.00000000E+00
  6.00000000E+00  6.00000000E+00  6.00000000E+00  6.00000000E+00  6.00000000E+00
  6.00000000E+00  6.00000000E+00  6.00000000E+00  6.00000000E+00  1.00000000E+00
  1.00000000E+00  1.00000000E+00  1.00000000E+00  1.00000000E+00  1.00000000E+00
  1.00000000E+00  1.00000000E+00  1.00000000E+00  1.00000000E+00
Current cartesian coordinates              R   N=          72
 -7.24424923E-01 -9.68046929E-01  1.62253012E-05  7.24424119E-01  9.68042463E-01
 -2.04519009E-05 -3.33955582E+00 -3.51373708E-01  8.60483207E-06  3.33955546E+00
  3.51371152E-01 -7.75035847E-06 -4.96896644E+00 -2.43558739E+00 -1.71121630E-05
  4.31230677E+00 -2.11707775E+00  1.14241935E-05 -4.31230407E+00  2.11707617E+00
  2.84959495E-05  4.96896354E+00  2.43558700E+00 -2.74911946E-05 -7.57798263E+00
 -2.06536804E+00 -2.43222305E-05  6.91860096E+00 -2.46587776E+00  2.24252811E-05
 -6.91859799E+00  2.46587920E+00  2.45667379E-05  7.57798045E+00  2.06537044E+00
 -1.51788840E-05 -8.55613699E+00  3.85774289E-01 -7.47242524E-06  8.55613738E+00
 -3.85770483E-01  6.46319946E-06 -4.14555692E+00 -4.31761393E+00 -2.68503518E-05
  3.01371197E+00 -3.70502776E+00  2.43305750E-05 -3.01370995E+00  3.70502661E+00
  5.64624589E-05  4.14555405E+00  4.31761335E+00 -4.78749769E-05 -8.84484992E+00
 -3.68273083E+00 -4.65790273E-05  7.68934840E+00 -4.37105757E+00  3.46920659E-05
 -7.68934418E+00  4.37105973E+00  4.03411769E-05  8.84484723E+00  3.68273378E+00
 -2.75013022E-05 -1.05895498E+01  6.82133011E-01 -9.95802789E-06  1.05895511E+01
 -6.82123880E-01  1.66059804E-05
Force Field                                I                0
Int Atom Types                             I   N=          24
           0           0           0           0           0           0
           0           0           0           0           0           0
           0           0           0           0           0           0
           0           0           0           0           0           0
MM charges                                 R   N=          24
  0.00000000E+00  0.00000000E+00  0.00000000E+00  0.00000000E+00  0.00000000E+00
  0.00000000E+00  0.00000000E+00  0.00000000E+00  0.00000000E+00  0.00000000E+00
  0.00000000E+00  0.00000000E+00  0.00000000E+00  0.00000000E+00  0.00000000E+00
  0.00000000E+00  0.00000000E+00  0.00000000E+00  0.00000000E+00  0.00000000E+00
  0.00000000E+00  0.00000000E+00  0.00000000E+00  0.00000000E+00
Integer atomic weights                     I   N=          24
          14          14          12          12          12          12
          12          12          12          12          12          12
          12          12           1           1           1           1
           1           1           1           1           1           1
Real atomic weights                        R   N=          24
  1.40030740E+01  1.40030740E+01  1.20000000E+01  1.20000000E+01  1.20000000E+01
  1.20000000E+01  1.20000000E+01  1.20000000E+01  1.20000000E+01  1.20000000E+01
  1.20000000E+01  1.20000000E+01  1.20000000E+01  1.20000000E+01  1.00782504E+00
  1.00782504E+00  1.00782504E+00  1.00782504E+00  1.00782504E+00  1.00782504E+00
  1.00782504E+00  1.00782504E+00  1.00782504E+00  1.00782504E+00
Atom fragment info                         I   N=          24
           0           0           0           0           0           0
           0           0           0           0           0           0
           0           0           0           0           0           0
           0           0           0           0           0           0
Atom residue num                           I   N=          24
           0           0           0           0           0           0
           0           0           0           0           0           0
           0           0           0           0           0           0
           0           0           0           0           0           0
Nuclear spins                              I   N=          24
           2           2           0           0           0           0
           0           0           0           0           0           0
           0           0           1           1           1           1
           1           1           1           1           1           1
Nuclear ZEff                               R   N=          24
 -4.55000000E+00 -4.55000000E+00 -3.60000000E+00 -3.60000000E+00 -3.60000000E+00
 -3.60000000E+00 -3.60000000E+00 -3.60000000E+00 -3.60000000E+00 -3.60000000E+00
 -3.60000000E+00 -3.60000000E+00 -3.60000000E+00 -3.60000000E+00 -1.00000000E+00
 -1.00000000E+00 -1.00000000E+00 -1.00000000E+00 -1.00000000E+00 -1.00000000E+00
 -1.00000000E+00 -1.00000000E+00 -1.00000000E+00 -1.00000000E+00
Nuclear QMom                               R   N=          24
  2.04400000E+00  2.04400000E+00  0.00000000E+00  0.00000000E+00  0.00000000E+00
  0.00000000E+00  0.00000000E+00  0.00000000E+00  0.00000000E+00  0.00000000E+00
  0.00000000E+00  0.00000000E+00  0.00000000E+00  0.00000000E+00  0.00000000E+00
  0.00000000E+00  0.00000000E+00  0.00000000E+00  0.00000000E+00  0.00000000E+00
  0.00000000E+00  0.00000000E+00  0.00000000E+00  0.00000000E+00
Nuclear GFac                               R   N=          24
  4.03761000E-01  4.03761000E-01  0.00000000E+00  0.00000000E+00  0.00000000E+00
  0.00000000E+00  0.00000000E+00  0.00000000E+00  0.00000000E+00  0.00000000E+00
  0.00000000E+00  0.00000000E+00  0.00000000E+00  0.00000000E+00  2.79284600E+00
  2.79284600E+00  2.79284600E+00  2.79284600E+00  2.79284600E+00  2.79284600E+00
  2.79284600E+00  2.79284600E+00  2.79284600E+00  2.79284600E+00
MicOpt                                     I   N=          24
          -1          -1          -1          -1          -1          -1
          -1          -1          -1          -1          -1          -1
          -1          -1          -1          -1          -1          -1
          -1          -1          -1          -1          -1          -1
Number of contracted shells                I               76
Number of primitive shells                 I              194
Pure/Cartesian d shells                    I                1
Pure/Cartesian f shells                    I                0
Highest angular momentum                   I                2
Largest degree of contraction              I                6
Shell types                                I   N=          76
           0          -1          -1           2           0          -1
          -1           2           0          -1          -1           2
           0          -1          -1           2           0          -1
          -1           2           0          -1          -1           2
           0          -1          -1           2           0          -1
          -1           2           0          -1          -1           2
           0          -1          -1           2           0          -1
          -1           2           0          -1          -1           2
           0          -1          -1           2           0          -1
          -1           2           0           0           0           0
           0           0           0           0           0           0
           0           0           0           0           0           0
           0           0           0           0
Number of primitives per shell             I   N=          76
           6           3           1           1           6           3
           1           1           6           3           1           1
           6           3           1           1           6           3
           1           1           6           3           1           1
           6           3           1           1           6           3
           1           1           6           3           1           1
           6           3           1           1           6           3
           1           1           6           3           1           1
           6           3           1           1           6           3
           1           1           3           1           3           1
           3           1           3           1           3           1
           3           1           3           1           3           1
           3           1           3           1
Shell to atom map                          I   N=          76
           1           1           1           1           2           2
           2           2           3           3           3           3
           4           4           4           4           5           5
           5           5           6           6           6           6
           7           7           7           7           8           8
           8           8           9           9           9           9
          10          10          10          10          11          11
          11          11          12          12          12          12
          13          13          13          13          14          14
          14          14          15          15          16          16
          17          17          18          18          19          19
          20          20          21          21          22          22
          23          23          24          24
Primitive exponents                        R   N=         194
  4.17351146E+03  6.27457911E+02  1.42902093E+02  4.02343293E+01  1.28202129E+01
  4.39043701E+00  1.16263619E+01  2.71627981E+00  7.72218397E-01  2.12031498E-01
  8.00000000E-01  4.17351146E+03  6.27457911E+02  1.42902093E+02  4.02343293E+01
  1.28202129E+01  4.39043701E+00  1.16263619E+01  2.71627981E+00  7.72218397E-01
  2.12031498E-01  8.00000000E-01  3.04752488E+03  4.57369518E+02  1.03948685E+02
  2.92101553E+01  9.28666296E+00  3.16392696E+00  7.86827235E+00  1.88128854E+00
  5.44249258E-01  1.68714478E-01  8.00000000E-01  3.04752488E+03  4.57369518E+02
  1.03948685E+02  2.92101553E+01  9.28666296E+00  3.16392696E+00  7.86827235E+00
  1.88128854E+00  5.44249258E-01  1.68714478E-01  8.00000000E-01  3.04752488E+03
  4.57369518E+02  1.03948685E+02  2.92101553E+01  9.28666296E+00  3.16392696E+00
  7.86827235E+00  1.88128854E+00  5.44249258E-01  1.68714478E-01  8.00000000E-01
  3.04752488E+03  4.57369518E+02  1.03948685E+02  2.92101553E+01  9.28666296E+00
  3.16392696E+00  7.86827235E+00  1.88128854E+00  5.44249258E-01  1.68714478E-01
  8.00000000E-01  3.04752488E+03  4.57369518E+02  1.03948685E+02  2.92101553E+01
  9.28666296E+00  3.16392696E+00  7.86827235E+00  1.88128854E+00  5.44249258E-01
  1.68714478E-01  8.00000000E-01  3.04752488E+03  4.57369518E+02  1.03948685E+02
  2.92101553E+01  9.28666296E+00  3.16392696E+00  7.86827235E+00  1.88128854E+00
  5.44249258E-01  1.68714478E-01  8.00000000E-01  3.04752488E+03  4.57369518E+02
  1.03948685E+02  2.92101553E+01  9.28666296E+00  3.16392696E+00  7.86827235E+00
  1.88128854E+00  5.44249258E-01  1.68714478E-01  8.00000000E-01  3.04752488E+03
  4.57369518E+02  1.03948685E+02  2.92101553E+01  9.28666296E+00  3.16392696E+00
  7.86827235E+00  1.88128854E+00  5.44249258E-01  1.68714478E-01  8.00000000E-01
  3.04752488E+03  4.57369518E+02  1.03948685E+02  2.92101553E+01  9.28666296E+00
  3.16392696E+00  7.86827235E+00  1.88128854E+00  5.44249258E-01  1.68714478E-01
  8.00000000E-01  3.04752488E+03  4.57369518E+02  1.03948685E+02  2.92101553E+01
  9.28666296E+00  3.16392696E+00  7.86827235E+00  1.88128854E+00  5.44249258E-01
  1.68714478E-01  8.00000000E-01  3.04752488E+03  4.57369518E+02  1.03948685E+02
  2.92101553E+01  9.28666296E+00  3.16392696E+00  7.86827235E+00  1.88128854E+00
  5.44249258E-01  1.68714478E-01  8.00000000E-01  3.04752488E+03  4.57369518E+02
  1.03948685E+02  2.92101553E+01  9.28666296E+00  3.16392696E+00  7.86827235E+00
  1.88128854E+00  5.44249258E-01  1.68714478E-01  8.00000000E-01  1.87311370E+01
  2.82539436E+00  6.40121692E-01  1.61277759E-01  1.87311370E+01  2.82539436E+00
  6.40121692E-01  1.61277759E-01  1.87311370E+01  2.82539436E+00  6.40121692E-01
  1.61277759E-01  1.87311370E+01  2.82539436E+00  6.40121692E-01  1.61277759E-01
  1.87311370E+01  2.82539436E+00  6.40121692E-01  1.61277759E-01  1.87311370E+01
  2.82539436E+00  6.40121692E-01  1.61277759E-01  1.87311370E+01  2.82539436E+00
  6.40121692E-01  1.61277759E-01  1.87311370E+01  2.82539436E+00  6.40121692E-01
  1.61277759E-01  1.87311370E+01  2.82539436E+00  6.40121692E-01  1.61277759E-01
  1.87311370E+01  2.82539436E+00  6.40121692E-01  1.61277759E-01
Contraction coefficients                   R   N=         194
  1.83477216E-03  1.39946270E-02  6.85865518E-02  2.32240873E-01  4.69069948E-01
  3.60455199E-01 -1.14961182E-01 -1.69117479E-01  1.14585195E+00  1.00000000E+00
  1.00000000E+00  1.83477216E-03  1.39946270E-02  6.85865518E-02  2.32240873E-01
  4.69069948E-01  3.60455199E-01 -1.14961182E-01 -1.69117479E-01  1.14585195E+00
  1.00000000E+00  1.00000000E+00  1.83473713E-03  1.40373228E-02  6.88426223E-02
  2.32184443E-01  4.67941348E-01  3.62311985E-01 -1.19332420E-01 -1.60854152E-01
  1.14345644E+00  1.00000000E+00  1.00000000E+00  1.83473713E-03  1.40373228E-02
  6.88426223E-02  2.32184443E-01  4.67941348E-01  3.62311985E-01 -1.19332420E-01
 -1.60854152E-01  1.14345644E+00  1.00000000E+00  1.00000000E+00  1.83473713E-03
  1.40373228E-02  6.88426223E-02  2.32184443E-01  4.67941348E-01  3.62311985E-01
 -1.19332420E-01 -1.60854152E-01  1.14345644E+00  1.00000000E+00  1.00000000E+00
  1.83473713E-03  1.40373228E-02  6.88426223E-02  2.32184443E-01  4.67941348E-01
  3.62311985E-01 -1.19332420E-01 -1.60854152E-01  1.14345644E+00  1.00000000E+00
  1.00000000E+00  1.83473713E-03  1.40373228E-02  6.88426223E-02  2.32184443E-01
  4.67941348E-01  3.62311985E-01 -1.19332420E-01 -1.60854152E-01  1.14345644E+00
  1.00000000E+00  1.00000000E+00  1.83473713E-03  1.40373228E-02  6.88426223E-02
  2.32184443E-01  4.67941348E-01  3.62311985E-01 -1.19332420E-01 -1.60854152E-01
  1.14345644E+00  1.00000000E+00  1.00000000E+00  1.83473713E-03  1.40373228E-02
  6.88426223E-02  2.32184443E-01  4.67941348E-01  3.62311985E-01 -1.19332420E-01
 -1.60854152E-01  1.14345644E+00  1.00000000E+00  1.00000000E+00  1.83473713E-03
  1.40373228E-02  6.88426223E-02  2.32184443E-01  4.67941348E-01  3.62311985E-01
 -1.19332420E-01 -1.60854152E-01  1.14345644E+00  1.00000000E+00  1.00000000E+00
  1.83473713E-03  1.40373228E-02  6.88426223E-02  2.32184443E-01  4.67941348E-01
  3.62311985E-01 -1.19332420E-01 -1.60854152E-01  1.14345644E+00  1.00000000E+00
  1.00000000E+00  1.83473713E-03  1.40373228E-02  6.88426223E-02  2.32184443E-01
  4.67941348E-01  3.62311985E-01 -1.19332420E-01 -1.60854152E-01  1.14345644E+00
  1.00000000E+00  1.00000000E+00  1.83473713E-03  1.40373228E-02  6.88426223E-02
  2.32184443E-01  4.67941348E-01  3.62311985E-01 -1.19332420E-01 -1.60854152E-01
  1.14345644E+00  1.00000000E+00  1.00000000E+00  1.83473713E-03  1.40373228E-02
  6.88426223E-02  2.32184443E-01  4.67941348E-01  3.62311985E-01 -1.19332420E-01
 -1.60854152E-01  1.14345644E+00  1.00000000E+00  1.00000000E+00  3.34946043E-02
  2.34726953E-01  8.13757326E-01  1.00000000E+00  3.34946043E-02  2.34726953E-01
  8.13757326E-01  1.00000000E+00  3.34946043E-02  2.34726953E-01  8.13757326E-01
  1.00000000E+00  3.34946043E-02  2.34726953E-01  8.13757326E-01  1.00000000E+00
  3.34946043E-02  2.34726953E-01  8.13757326E-01  1.00000000E+00  3.34946043E-02
  2.34726953E-01  8.13757326E-01  1.00000000E+00  3.34946043E-02  2.34726953E-01
  8.13757326E-01  1.00000000E+00  3.34946043E-02  2.34726953E-01  8.13757326E-01
  1.00000000E+00  3.34946043E-02  2.34726953E-01  8.13757326E-01  1.00000000E+00
  3.34946043E-02  2.34726953E-01  8.13757326E-01  1.00000000E+00
P(S=P) Contraction coefficients            R   N=         194
  0.00000000E+00  0.00000000E+00  0.00000000E+00  0.00000000E+00  0.00000000E+00
  0.00000000E+00  6.75797439E-02  3.23907296E-01  7.40895140E-01  1.00000000E+00
  0.00000000E+00  0.00000000E+00  0.00000000E+00  0.00000000E+00  0.00000000E+00
  0.00000000E+00  0.00000000E+00  6.75797439E-02  3.23907296E-01  7.40895140E-01
  1.00000000E+00  0.00000000E+00  0.00000000E+00  0.00000000E+00  0.00000000E+00
  0.00000000E+00  0.00000000E+00  0.00000000E+00  6.89990666E-02  3.16423961E-01
  7.44308291E-01  1.00000000E+00  0.00000000E+00  0.00000000E+00  0.00000000E+00
  0.00000000E+00  0.00000000E+00  0.00000000E+00  0.00000000E+00  6.89990666E-02
  3.16423961E-01  7.44308291E-01  1.00000000E+00  0.00000000E+00  0.00000000E+00
  0.00000000E+00  0.00000000E+00  0.00000000E+00  0.00000000E+00  0.00000000E+00
  6.89990666E-02  3.16423961E-01  7.44308291E-01  1.00000000E+00  0.00000000E+00
  0.00000000E+00  0.00000000E+00  0.00000000E+00  0.00000000E+00  0.00000000E+00
  0.00000000E+00  6.89990666E-02  3.16423961E-01  7.44308291E-01  1.00000000E+00
  0.00000000E+00  0.00000000E+00  0.00000000E+00  0.00000000E+00  0.00000000E+00
  0.00000000E+00  0.00000000E+00  6.89990666E-02  3.16423961E-01  7.44308291E-01
  1.00000000E+00  0.00000000E+00  0.00000000E+00  0.00000000E+00  0.00000000E+00
  0.00000000E+00  0.00000000E+00  0.00000000E+00  6.89990666E-02  3.16423961E-01
  7.44308291E-01  1.00000000E+00  0.00000000E+00  0.00000000E+00  0.00000000E+00
  0.00000000E+00  0.00000000E+00  0.00000000E+00  0.00000000E+00  6.89990666E-02
  3.16423961E-01  7.44308291E-01  1.00000000E+00  0.00000000E+00  0.00000000E+00
  0.00000000E+00  0.00000000E+00  0.00000000E+00  0.00000000E+00  0.00000000E+00
  6.89990666E-02  3.16423961E-01  7.44308291E-01  1.00000000E+00  0.00000000E+00
  0.00000000E+00  0.00000000E+00  0.00000000E+00  0.00000000E+00  0.00000000E+00
  0.00000000E+00  6.89990666E-02  3.16423961E-01  7.44308291E-01  1.00000000E+00
  0.00000000E+00  0.00000000E+00  0.00000000E+00  0.00000000E+00  0.00000000E+00
  0.00000000E+00  0.00000000E+00  6.89990666E-02  3.16423961E-01  7.44308291E-01
  1.00000000E+00  0.00000000E+00  0.00000000E+00  0.00000000E+00  0.00000000E+00
  0.00000000E+00  0.00000000E+00  0.00000000E+00  6.89990666E-02  3.16423961E-01
  7.44308291E-01  1.00000000E+00  0.00000000E+00  0.00000000E+00  0.00000000E+00
  0.00000000E+00  0.00000000E+00  0.00000000E+00  0.00000000E+00  6.89990666E-02
  3.16423961E-01  7.44308291E-01  1.00000000E+00  0.00000000E+00  0.00000000E+00
  0.00000000E+00  0.00000000E+00  0.00000000E+00  0.00000000E+00  0.00000000E+00
  0.00000000E+00  0.00000000E+00  0.00000000E+00  0.00000000E+00  0.00000000E+00
  0.00000000E+00  0.00000000E+00  0.00000000E+00  0.00000000E+00  0.00000000E+00
  0.00000000E+00  0.00000000E+00  0.00000000E+00  0.00000000E+00  0.00000000E+00
  0.00000000E+00  0.00000000E+00  0.00000000E+00  0.00000000E+00  0.00000000E+00
  0.00000000E+00  0.00000000E+00  0.00000000E+00  0.00000000E+00  0.00000000E+00
  0.00000000E+00  0.00000000E+00  0.00000000E+00  0.00000000E+00  0.00000000E+00
  0.00000000E+00  0.00000000E+00  0.00000000E+00  0.00000000E+00
Coordinates of each shell                  R   N=         228
 -7.24424923E-01 -9.68046929E-01  1.62253012E-05 -7.24424923E-01 -9.68046929E-01
  1.62253012E-05 -7.24424923E-01 -9.68046929E-01  1.62253012E-05 -7.24424923E-01
 -9.68046929E-01  1.62253012E-05  7.24424119E-01  9.68042463E-01 -2.04519009E-05
  7.24424119E-01  9.68042463E-01 -2.04519009E-05  7.24424119E-01  9.68042463E-01
 -2.04519009E-05  7.24424119E-01  9.68042463E-01 -2.04519009E-05 -3.33955582E+00
 -3.51373708E-01  8.60483207E-06 -3.33955582E+00 -3.51373708E-01  8.60483207E-06
 -3.33955582E+00 -3.51373708E-01  8.60483207E-06 -3.33955582E+00 -3.51373708E-01
  8.60483207E-06  3.33955546E+00  3.51371152E-01 -7.75035847E-06  3.33955546E+00
  3.51371152E-01 -7.75035847E-06  3.33955546E+00  3.51371152E-01 -7.75035847E-06
  3.33955546E+00  3.51371152E-01 -7.75035847E-06 -4.96896644E+00 -2.43558739E+00
 -1.71121630E-05 -4.96896644E+00 -2.43558739E+00 -1.71121630E-05 -4.96896644E+00
 -2.43558739E+00 -1.71121630E-05 -4.96896644E+00 -2.43558739E+00 -1.71121630E-05
  4.31230677E+00 -2.11707775E+00  1.14241935E-05  4.31230677E+00 -2.11707775E+00
  1.14241935E-05  4.31230677E+00 -2.11707775E+00  1.14241935E-05  4.31230677E+00
 -2.11707775E+00  1.14241935E-05 -4.31230407E+00  2.11707617E+00  2.84959495E-05
 -4.31230407E+00  2.11707617E+00  2.84959495E-05 -4.31230407E+00  2.11707617E+00
  2.84959495E-05 -4.31230407E+00  2.11707617E+00  2.84959495E-05  4.96896354E+00
  2.43558700E+00 -2.74911946E-05  4.96896354E+00  2.43558700E+00 -2.74911946E-05
  4.96896354E+00  2.43558700E+00 -2.74911946E-05  4.96896354E+00  2.43558700E+00
 -2.74911946E-05 -7.57798263E+00 -2.06536804E+00 -2.43222305E-05 -7.57798263E+00
 -2.06536804E+00 -2.43222305E-05 -7.57798263E+00 -2.06536804E+00 -2.43222305E-05
 -7.57798263E+00 -2.06536804E+00 -2.43222305E-05  6.91860096E+00 -2.46587776E+00
  2.24252811E-05  6.91860096E+00 -2.46587776E+00  2.24252811E-05  6.91860096E+00
 -2.46587776E+00  2.24252811E-05  6.91860096E+00 -2.46587776E+00  2.24252811E-05
 -6.91859799E+00  2.46587920E+00  2.45667379E-05 -6.91859799E+00  2.46587920E+00
  2.45667379E-05 -6.91859799E+00  2.46587920E+00  2.45667379E-05 -6.91859799E+00
  2.46587920E+00  2.45667379E-05  7.57798045E+00  2.06537044E+00 -1.51788840E-05
  7.57798045E+00  2.06537044E+00 -1.51788840E-05  7.57798045E+00  2.06537044E+00
 -1.51788840E-05  7.57798045E+00  2.06537044E+00 -1.51788840E-05 -8.55613699E+00
  3.85774289E-01 -7.47242524E-06 -8.55613699E+00  3.85774289E-01 -7.47242524E-06
 -8.55613699E+00  3.85774289E-01 -7.47242524E-06 -8.55613699E+00  3.85774289E-01
 -7.47242524E-06  8.55613738E+00 -3.85770483E-01  6.46319946E-06  8.55613738E+00
 -3.85770483E-01  6.46319946E-06  8.55613738E+00 -3.85770483E-01  6.46319946E-06
  8.55613738E+00 -3.85770483E-01  6.46319946E-06 -4.14555692E+00 -4.31761393E+00
 -2.68503518E-05 -4.14555692E+00 -4.31761393E+00 -2.68503518E-05  3.01371197E+00
 -3.70502776E+00  2.43305750E-05  3.01371197E+00 -3.70502776E+00  2.43305750E-05
 -3.01370995E+00  3.70502661E+00  5.64624589E-05 -3.01370995E+00  3.70502661E+00
  5.64624589E-05  4.14555405E+00  4.31761335E+00 -4.78749769E-05  4.14555405E+00
  4.31761335E+00 -4.78749769E-05 -8.84484992E+00 -3.68273083E+00 -4.65790273E-05
 -8.84484992E+00 -3.68273083E+00 -4.65790273E-05  7.68934840E+00 -4.37105757E+00
  3.46920659E-05  7.68934840E+00 -4.37105757E+00  3.46920659E-05 -7.68934418E+00
  4.37105973E+00  4.03411769E-05 -7.68934418E+00  4.37105973E+00  4.03411769E-05
  8.84484723E+00  3.68273378E+00 -2.75013022E-05  8.84484723E+00  3.68273378E+00
 -2.75013022E-05 -1.05895498E+01  6.82133011E-01 -9.95802789E-06 -1.05895498E+01
  6.82133011E-01 -9.95802789E-06  1.05895511E+01 -6.82123880E-01  1.66059804E-05
  1.05895511E+01 -6.82123880E-01  1.66059804E-05
Constraint Structure                       R   N=          72
 -7.24424923E-01 -9.68046929E-01  1.62253012E-05  7.24424119E-01  9.68042463E-01
 -2.04519009E-05 -3.33955582E+00 -3.51373708E-01  8.60483207E-06  3.33955546E+00
  3.51371152E-01 -7.75035847E-06 -4.96896644E+00 -2.43558739E+00 -1.71121630E-05
  4.31230677E+00 -2.11707775E+00  1.14241935E-05 -4.31230407E+00  2.11707617E+00
  2.84959495E-05  4.96896354E+00  2.43558700E+00 -2.74911946E-05 -7.57798263E+00
 -2.06536804E+00 -2.43222305E-05  6.91860096E+00 -2.46587776E+00  2.24252811E-05
 -6.91859799E+00  2.46587920E+00  2.45667379E-05  7.57798045E+00  2.06537044E+00
 -1.51788840E-05 -8.55613699E+00  3.85774289E-01 -7.47242524E-06  8.55613738E+00
 -3.85770483E-01  6.46319946E-06 -4.14555692E+00 -4.31761393E+00 -2.68503518E-05
  3.01371197E+00 -3.70502776E+00  2.43305750E-05 -3.01370995E+00  3.70502661E+00
  5.64624589E-05  4.14555405E+00  4.31761335E+00 -4.78749769E-05 -8.84484992E+00
 -3.68273083E+00 -4.65790273E-05  7.68934840E+00 -4.37105757E+00  3.46920659E-05
 -7.68934418E+00  4.37105973E+00  4.03411769E-05  8.84484723E+00  3.68273378E+00
 -2.75013022E-05 -1.05895498E+01  6.82133011E-01 -9.95802789E-06  1.05895511E+01
 -6.82123880E-01  1.66059804E-05
Num ILSW                                   I              100
ILSW                                       I   N=         100
           0           1           0           0           2           0
           0           0           0           0           0          -1
           0           0           0           0           0           0
           0           0           0           0           1           0
           1           0           0           0           0           0
           0           0      100000           0          -1           0
           0           0           0           0           0           0
           0           0           0           1           1           0
           0           0           1           0           0           0
           0           0           4          40           0           0
           0           0           0           0           0           0
           0           0           0           0           0           0
           0           0           0           0           0           0
           0           0           0           0           0           0
           0           0           0           0           0           0
           0           0           0           0           0           0
           0           0           0           0
Num RLSW                                   I               40
RLSW                                       R   N=          40
  1.00000000E+00  1.00000000E+00  1.00000000E+00  1.00000000E+00  1.00000000E+00
  0.00000000E+00  0.00000000E+00  1.00000000E+00  0.00000000E+00  0.00000000E+00
  0.00000000E+00  0.00000000E+00  1.00000000E+00  0.00000000E+00  0.00000000E+00
  0.00000000E+00  0.00000000E+00  1.00000000E+00  0.00000000E+00  0.00000000E+00
  0.00000000E+00  0.00000000E+00  1.00000000E+00  0.00000000E+00  0.00000000E+00
  0.00000000E+00  0.00000000E+00  1.00000000E+00  0.00000000E+00  0.00000000E+00
  0.00000000E+00  0.00000000E+00  0.00000000E+00  0.00000000E+00  0.00000000E+00
  0.00000000E+00  0.00000000E+00  0.00000000E+00  1.00000000E+00  1.00000000E+00
MxBond                                     I                3
NBond                                      I   N=          24
           2           2           3           3           3           3
           3           3           3           3           3           3
           3           3           1           1           1           1
           1           1           1           1           1           1
IBond                                      I   N=          72
           2           3           0           1           4           0
           1           5           7           2           6           8
           3           9          15           4          10          16
           3          11          17           4          12          18
           5          13          19           6          14          20
           7          13          21           8          14          22
           9          11          23          10          12          24
           5           0           0           6           0           0
           7           0           0           8           0           0
           9           0           0          10           0           0
          11           0           0          12           0           0
          13           0           0          14           0           0
RBond                                      R   N=          72
  2.00000000E+00  1.00000000E+00  0.00000000E+00  2.00000000E+00  1.00000000E+00
  0.00000000E+00  1.00000000E+00  1.50000000E+00  1.50000000E+00  1.00000000E+00
  1.50000000E+00  1.50000000E+00  1.50000000E+00  1.50000000E+00  1.00000000E+00
  1.50000000E+00  1.50000000E+00  1.00000000E+00  1.50000000E+00  1.50000000E+00
  1.00000000E+00  1.50000000E+00  1.50000000E+00  1.00000000E+00  1.50000000E+00
  1.50000000E+00  1.00000000E+00  1.50000000E+00  1.50000000E+00  1.00000000E+00
  1.50000000E+00  1.50000000E+00  1.00000000E+00  1.50000000E+00  1.50000000E+00
  1.00000000E+00  1.50000000E+00  1.50000000E+00  1.00000000E+00  1.50000000E+00
  1.50000000E+00  1.00000000E+00  1.00000000E+00  0.00000000E+00  0.00000000E+00
  1.00000000E+00  0.00000000E+00  0.00000000E+00  1.00000000E+00  0.00000000E+00
  0.00000000E+00  1.00000000E+00  0.00000000E+00  0.00000000E+00  1.00000000E+00
  0.00000000E+00  0.00000000E+00  1.00000000E+00  0.00000000E+00  0.00000000E+00
  1.00000000E+00  0.00000000E+00  0.00000000E+00  1.00000000E+00  0.00000000E+00