17958888                                                                
Freq      RMP2-FC                                                     6-31G(d)            
Number of atoms                            I               10
Info1-9                                    I   N=           9
          22          20        1002           0           0         100
           6           2           1
Charge                                     I                0
Multiplicity                               I                1
Number of electrons                        I               44
Number of alpha electrons                  I               22
Number of beta electrons                   I               22
Number of basis functions                  I               98
Number of independent functions            I               98
Number of point charges in /Mol/           I                0
Number of translation vectors              I                0
Atomic numbers                             I   N=          10
           9           7           6           6           6           6
           1           1           1           1
Nuclear charges                            R   N=          10
  9.00000000E+00  7.00000000E+00  6.00000000E+00  6.00000000E+00  6.00000000E+00
  6.00000000E+00  1.00000000E+00  1.00000000E+00  1.00000000E+00  1.00000000E+00
Current cartesian coordinates              R   N=          30
 -3.92056045E+00 -2.35023384E-02 -1.61804487E-04  2.59528396E+00 -1.22889993E+00
  1.01155891E-04  1.50630168E-01 -2.11548978E+00  1.52707291E-05 -1.36409155E+00
  8.02459843E-03 -5.54610590E-05  1.49427919E-01  2.19977334E+00  6.08483253E-06
  2.62843301E+00  1.36108961E+00  1.05931628E-04 -3.08445100E-01 -4.10241284E+00
 -1.40327298E-06  4.14747926E+00 -2.34123603E+00  1.63238006E-04 -4.94194366E-01
  4.13763207E+00 -1.93109055E-05  4.38681924E+00  2.39945079E+00  1.74668533E-04
Force Field                                I                0
Int Atom Types                             I   N=          10
           0           0           0           0           0           0
           0           0           0           0
MM charges                                 R   N=          10
  0.00000000E+00  0.00000000E+00  0.00000000E+00  0.00000000E+00  0.00000000E+00
  0.00000000E+00  0.00000000E+00  0.00000000E+00  0.00000000E+00  0.00000000E+00
Integer atomic weights                     I   N=          10
          19          14          12          12          12          12
           1           1           1           1
Real atomic weights                        R   N=          10
  1.89984032E+01  1.40030740E+01  1.20000000E+01  1.20000000E+01  1.20000000E+01
  1.20000000E+01  1.00782504E+00  1.00782504E+00  1.00782504E+00  1.00782504E+00
Atom fragment info                         I   N=          10
           0           0           0           0           0           0
           0           0           0           0
Atom residue num                           I   N=          10
           0           0           0           0           0           0
           0           0           0           0
Nuclear spins                              I   N=          10
           1           2           0           0           0           0
           1           1           1           1
Nuclear ZEff                               R   N=          10
 -6.75000000E+00 -4.55000000E+00 -3.60000000E+00 -3.60000000E+00 -3.60000000E+00
 -3.60000000E+00 -1.00000000E+00 -1.00000000E+00 -1.00000000E+00 -1.00000000E+00
Nuclear QMom                               R   N=          10
  0.00000000E+00  2.04400000E+00  0.00000000E+00  0.00000000E+00  0.00000000E+00
  0.00000000E+00  0.00000000E+00  0.00000000E+00  0.00000000E+00  0.00000000E+00
Nuclear GFac                               R   N=          10
  2.62886700E+00  4.03761000E-01  0.00000000E+00  0.00000000E+00  0.00000000E+00
  0.00000000E+00  2.79284600E+00  2.79284600E+00  2.79284600E+00  2.79284600E+00
MicOpt                                     I   N=          10
          -1          -1          -1          -1          -1          -1
          -1          -1          -1          -1
Number of contracted shells                I               32
Number of primitive shells                 I               82
Pure/Cartesian d shells                    I                1
Pure/Cartesian f shells                    I                0
Highest angular momentum                   I                2
Largest degree of contraction              I                6
Shell types                                I   N=          32
           0          -1          -1           2           0          -1
          -1           2           0          -1          -1           2
           0          -1          -1           2           0          -1
          -1           2           0          -1          -1           2
           0           0           0           0           0           0
           0           0
Number of primitives per shell             I   N=          32
           6           3           1           1           6           3
           1           1           6           3           1           1
           6           3           1           1           6           3
           1           1           6           3           1           1
           3           1           3           1           3           1
           3           1
Shell to atom map                          I   N=          32
           1           1           1           1           2           2
           2           2           3           3           3           3
           4           4           4           4           5           5
           5           5           6           6           6           6
           7           7           8           8           9           9
          10          10
Primitive exponents                        R   N=          82
  7.00171309E+03  1.05136609E+03  2.39285690E+02  6.73974453E+01  2.15199573E+01
  7.40310130E+00  2.08479528E+01  4.80830834E+00  1.34406986E+00  3.58151393E-01
  8.00000000E-01  4.17351146E+03  6.27457911E+02  1.42902093E+02  4.02343293E+01
  1.28202129E+01  4.39043701E+00  1.16263619E+01  2.71627981E+00  7.72218397E-01
  2.12031498E-01  8.00000000E-01  3.04752488E+03  4.57369518E+02  1.03948685E+02
  2.92101553E+01  9.28666296E+00  3.16392696E+00  7.86827235E+00  1.88128854E+00
  5.44249258E-01  1.68714478E-01  8.00000000E-01  3.04752488E+03  4.57369518E+02
  1.03948685E+02  2.92101553E+01  9.28666296E+00  3.16392696E+00  7.86827235E+00
  1.88128854E+00  5.44249258E-01  1.68714478E-01  8.00000000E-01  3.04752488E+03
  4.57369518E+02  1.03948685E+02  2.92101553E+01  9.28666296E+00  3.16392696E+00
  7.86827235E+00  1.88128854E+00  5.44249258E-01  1.68714478E-01  8.00000000E-01
  3.04752488E+03  4.57369518E+02  1.03948685E+02  2.92101553E+01  9.28666296E+00
  3.16392696E+00  7.86827235E+00  1.88128854E+00  5.44249258E-01  1.68714478E-01
  8.00000000E-01  1.87311370E+01  2.82539436E+00  6.40121692E-01  1.61277759E-01
  1.87311370E+01  2.82539436E+00  6.40121692E-01  1.61277759E-01  1.87311370E+01
  2.82539436E+00  6.40121692E-01  1.61277759E-01  1.87311370E+01  2.82539436E+00
  6.40121692E-01  1.61277759E-01
Contraction coefficients                   R   N=          82
  1.81961690E-03  1.39160796E-02  6.84053245E-02  2.33185760E-01  4.71267439E-01
  3.56618546E-01 -1.08506975E-01 -1.46451658E-01  1.12868858E+00  1.00000000E+00
  1.00000000E+00  1.83477216E-03  1.39946270E-02  6.85865518E-02  2.32240873E-01
  4.69069948E-01  3.60455199E-01 -1.14961182E-01 -1.69117479E-01  1.14585195E+00
  1.00000000E+00  1.00000000E+00  1.83473713E-03  1.40373228E-02  6.88426223E-02
  2.32184443E-01  4.67941348E-01  3.62311985E-01 -1.19332420E-01 -1.60854152E-01
  1.14345644E+00  1.00000000E+00  1.00000000E+00  1.83473713E-03  1.40373228E-02
  6.88426223E-02  2.32184443E-01  4.67941348E-01  3.62311985E-01 -1.19332420E-01
 -1.60854152E-01  1.14345644E+00  1.00000000E+00  1.00000000E+00  1.83473713E-03
  1.40373228E-02  6.88426223E-02  2.32184443E-01  4.67941348E-01  3.62311985E-01
 -1.19332420E-01 -1.60854152E-01  1.14345644E+00  1.00000000E+00  1.00000000E+00
  1.83473713E-03  1.40373228E-02  6.88426223E-02  2.32184443E-01  4.67941348E-01
  3.62311985E-01 -1.19332420E-01 -1.60854152E-01  1.14345644E+00  1.00000000E+00
  1.00000000E+00  3.34946043E-02  2.34726953E-01  8.13757326E-01  1.00000000E+00
  3.34946043E-02  2.34726953E-01  8.13757326E-01  1.00000000E+00  3.34946043E-02
  2.34726953E-01  8.13757326E-01  1.00000000E+00  3.34946043E-02  2.34726953E-01
  8.13757326E-01  1.00000000E+00
P(S=P) Contraction coefficients            R   N=          82
  0.00000000E+00  0.00000000E+00  0.00000000E+00  0.00000000E+00  0.00000000E+00
  0.00000000E+00  7.16287242E-02  3.45912103E-01  7.22469956E-01  1.00000000E+00
  0.00000000E+00  0.00000000E+00  0.00000000E+00  0.00000000E+00  0.00000000E+00
  0.00000000E+00  0.00000000E+00  6.75797439E-02  3.23907296E-01  7.40895140E-01
  1.00000000E+00  0.00000000E+00  0.00000000E+00  0.00000000E+00  0.00000000E+00
  0.00000000E+00  0.00000000E+00  0.00000000E+00  6.89990666E-02  3.16423961E-01
  7.44308291E-01  1.00000000E+00  0.00000000E+00  0.00000000E+00  0.00000000E+00
  0.00000000E+00  0.00000000E+00  0.00000000E+00  0.00000000E+00  6.89990666E-02
  3.16423961E-01  7.44308291E-01  1.00000000E+00  0.00000000E+00  0.00000000E+00
  0.00000000E+00  0.00000000E+00  0.00000000E+00  0.00000000E+00  0.00000000E+00
  6.89990666E-02  3.16423961E-01  7.44308291E-01  1.00000000E+00  0.00000000E+00
  0.00000000E+00  0.00000000E+00  0.00000000E+00  0.00000000E+00  0.00000000E+00
  0.00000000E+00  6.89990666E-02  3.16423961E-01  7.44308291E-01  1.00000000E+00
  0.00000000E+00  0.00000000E+00  0.00000000E+00  0.00000000E+00  0.00000000E+00
  0.00000000E+00  0.00000000E+00  0.00000000E+00  0.00000000E+00  0.00000000E+00
  0.00000000E+00  0.00000000E+00  0.00000000E+00  0.00000000E+00  0.00000000E+00
  0.00000000E+00  0.00000000E+00
Coordinates of each shell                  R   N=          96
 -3.92056045E+00 -2.35023384E-02 -1.61804487E-04 -3.92056045E+00 -2.35023384E-02
 -1.61804487E-04 -3.92056045E+00 -2.35023384E-02 -1.61804487E-04 -3.92056045E+00
 -2.35023384E-02 -1.61804487E-04  2.59528396E+00 -1.22889993E+00  1.01155891E-04
  2.59528396E+00 -1.22889993E+00  1.01155891E-04  2.59528396E+00 -1.22889993E+00
  1.01155891E-04  2.59528396E+00 -1.22889993E+00  1.01155891E-04  1.50630168E-01
 -2.11548978E+00  1.52707291E-05  1.50630168E-01 -2.11548978E+00  1.52707291E-05
  1.50630168E-01 -2.11548978E+00  1.52707291E-05  1.50630168E-01 -2.11548978E+00
  1.52707291E-05 -1.36409155E+00  8.02459843E-03 -5.54610590E-05 -1.36409155E+00
  8.02459843E-03 -5.54610590E-05 -1.36409155E+00  8.02459843E-03 -5.54610590E-05
 -1.36409155E+00  8.02459843E-03 -5.54610590E-05  1.49427919E-01  2.19977334E+00
  6.08483253E-06  1.49427919E-01  2.19977334E+00  6.08483253E-06  1.49427919E-01
  2.19977334E+00  6.08483253E-06  1.49427919E-01  2.19977334E+00  6.08483253E-06
  2.62843301E+00  1.36108961E+00  1.05931628E-04  2.62843301E+00  1.36108961E+00
  1.05931628E-04  2.62843301E+00  1.36108961E+00  1.05931628E-04  2.62843301E+00
  1.36108961E+00  1.05931628E-04 -3.08445100E-01 -4.10241284E+00 -1.40327298E-06
 -3.08445100E-01 -4.10241284E+00 -1.40327298E-06  4.14747926E+00 -2.34123603E+00
  1.63238006E-04  4.14747926E+00 -2.34123603E+00  1.63238006E-04 -4.94194366E-01
  4.13763207E+00 -1.93109055E-05 -4.94194366E-01  4.13763207E+00 -1.93109055E-05
  4.38681924E+00  2.39945079E+00  1.74668533E-04  4.38681924E+00  2.39945079E+00
  1.74668533E-04
Constraint Structure                       R   N=          30
 -3.92056045E+00 -2.35023384E-02 -1.61804487E-04  2.59528396E+00 -1.22889993E+00
  1.01155891E-04  1.50630168E-01 -2.11548978E+00  1.52707291E-05 -1.36409155E+00
  8.02459843E-03 -5.54610590E-05  1.49427919E-01  2.19977334E+00  6.08483253E-06
  2.62843301E+00  1.36108961E+00  1.05931628E-04 -3.08445100E-01 -4.10241284E+00
 -1.40327298E-06  4.14747926E+00 -2.34123603E+00  1.63238006E-04 -4.94194366E-01
  4.13763207E+00 -1.93109055E-05  4.38681924E+00  2.39945079E+00  1.74668533E-04
Num ILSW                                   I              100
ILSW                                       I   N=         100
           0           1           0           0           2           0
           0           0           0           0           0          -1
           0           0           0           0           0           0
           0           0           0           0           1           0
           1           0           0           0           0           0
           0           0      100000           0          -1           0
           0           0           0           0           0           0
           0           0           0           1           1           0
           0           0           1           0           0           0
           0           0           4          40           0           0
           0           0           0           0           0           0
           0           0           0           0           0           0
           0           0           0           0           0           0
           0           0           0           0           0           0
           0           0           0           0           0           0
           0           0           0           0           0           0
           0           0           0           0
Num RLSW                                   I               40
RLSW                                       R   N=          40
  1.00000000E+00  1.00000000E+00  1.00000000E+00  1.00000000E+00  1.00000000E+00
  0.00000000E+00  0.00000000E+00  1.00000000E+00  0.00000000E+00  0.00000000E+00
  0.00000000E+00  0.00000000E+00  1.00000000E+00  0.00000000E+00  0.00000000E+00
  0.00000000E+00  0.00000000E+00  1.00000000E+00  0.00000000E+00  0.00000000E+00
  0.00000000E+00  0.00000000E+00  1.00000000E+00  0.00000000E+00  0.00000000E+00
  0.00000000E+00  0.00000000E+00  1.00000000E+00  0.00000000E+00  0.00000000E+00
  0.00000000E+00  0.00000000E+00  0.00000000E+00  0.00000000E+00  0.00000000E+00
  0.00000000E+00  0.00000000E+00  0.00000000E+00  1.00000000E+00  1.00000000E+00
MxBond                                     I                3
NBond                                      I   N=          10
           1           3           3           3           3           3
           1           1           1           1
IBond                                      I   N=          30
           4           0           0           3           6           8
           2           4           7           1           3           5
           4           6           9           2           5          10
           3           0           0           2           0           0
           5           0           0           6           0           0
RBond                                      R   N=          30
  1.00000000E+00  0.00000000E+00  0.00000000E+00  1.00000000E+00  1.00000000E+00
  1.00000000E+00  1.00000000E+00  1.50000000E+00  1.00000000E+00  1.00000000E+00
  1.50000000E+00  1.50000000E+00  1.50000000E+00  1.50000000E+00  1.00000000E+00
  1.00000000E+00  1.50000000E+00  1.00000000E+00  1.00000000E+00  0.00000000E+00
  0.00000000E+00  1.00000000E+00  0.00000000E+00  0.00000000E+00  1.00000000E+00
  0.00000000E+00  0.00000000E+00  1.00000000E+00  0.00000000E+00  0.00000000E+00
Virial Ratio                               R      2.002533786870883E+00
SCF Energy                                 R     -3.076490531736368E+02
MP2 Energy                                 R     -3.084915741450338E+02
Total Energy                               R     -3.084915741450338E+02
Post-SCF wavefunction norm                 R      1.594424464658954E+00
RMS Force                                  R      1.776439172794975E-06
RMS Density                                R      1.301839989509310E-09
External E-field                           R   N=          35
  0.00000000E+00  0.00000000E+00  0.00000000E+00  0.00000000E+00  0.00000000E+00
  0.00000000E+00  0.00000000E+00  0.00000000E+00  0.00000000E+00  0.00000000E+00
  0.00000000E+00  0.00000000E+00  0.00000000E+00  0.00000000E+00  0.00000000E+00
  0.00000000E+00  0.00000000E+00  0.00000000E+00  0.00000000E+00  0.00000000E+00
  0.00000000E+00  0.00000000E+00  0.00000000E+00  0.00000000E+00  0.00000000E+00
  0.00000000E+00  0.00000000E+00  0.00000000E+00  0.00000000E+00  0.00000000E+00
  0.00000000E+00  0.00000000E+00  0.00000000E+00  0.00000000E+00  0.00000000E+00
IOpCl                                      I                0
IROHF                                      I                0
Alpha Orbital Energies                     R   N=          98
 -2.62916220E+01 -1.56215126E+01 -1.12999075E+01 -1.12679645E+01 -1.12569415E+01
 -1.12191952E+01 -1.59598108E+00 -1.29795239E+00 -1.04901939E+00 -9.84980407E-01
 -8.13224336E-01 -7.87522178E-01 -7.47423682E-01 -6.67968404E-01 -6.67510368E-01
 -6.42153766E-01 -5.93894901E-01 -5.78668529E-01 -5.67103402E-01 -5.23005661E-01
 -3.46938278E-01 -3.00597811E-01  1.85995922E-01  2.11011419E-01  2.65213180E-01
  2.80862705E-01  2.99903446E-01  3.14282392E-01  3.55786249E-01  4.18459795E-01
  4.42460733E-01  5.15114164E-01  5.38904141E-01  6.90652556E-01  7.35730193E-01
  7.68169873E-01  8.08386472E-01  8.18348205E-01  8.20621520E-01  8.43399790E-01
  8.54420167E-01  8.55473963E-01  8.90508857E-01  9.35776574E-01  1.02542194E+00
  1.02995008E+00  1.06945391E+00  1.10067635E+00  1.14170784E+00  1.16686539E+00
  1.16913289E+00  1.19630554E+00  1.22532457E+00  1.39922538E+00  1.44996692E+00
  1.50961724E+00  1.51572136E+00  1.53639466E+00  1.61038372E+00  1.62353819E+00
  1.69272371E+00  1.70367821E+00  1.73128606E+00  1.76613037E+00  1.81028744E+00
  1.81070014E+00  2.06686642E+00  2.10054915E+00  2.13429975E+00  2.16311999E+00
  2.23233254E+00  2.30149387E+00  2.35722930E+00  2.36103137E+00  2.39778890E+00
  2.43822692E+00  2.50315835E+00  2.54421330E+00  2.56468167E+00  2.63098186E+00
  2.65401156E+00  2.69286499E+00  2.89554438E+00  2.92248606E+00  2.92564116E+00
  2.95516589E+00  3.03366610E+00  3.13572549E+00  3.25656629E+00  3.35573829E+00
  3.52624572E+00  3.56388668E+00  4.33702421E+00  4.53991833E+00  4.54599444E+00
  4.76434771E+00  4.88667418E+00  5.82132895E+00
Alpha MO coefficients                      R   N=        9604
  9.94425360E-01  1.77503493E-02  9.31159635E-04  8.76894509E-06  3.90855874E-08
  8.19240421E-03 -6.44260789E-04 -7.49812902E-06 -2.70969403E-08 -5.06889411E-03
 -4.53520554E-03 -4.54700300E-03 -7.26602214E-06 -2.51982945E-08 -2.89512855E-10
  2.52856978E-07  1.99293089E-07 -4.13887512E-06 -9.60136292E-06 -9.86476339E-11
 -2.62096909E-05 -4.42410591E-05  1.07916180E-05 -1.86985814E-09  7.51573636E-06
  1.44001697E-06  1.26150587E-07  6.01995893E-06  2.48594285E-10  2.18659766E-10
  7.81374722E-06  8.95425938E-05  1.12374399E-05 -1.52666325E-05  5.82804280E-10
 -3.62246327E-04  9.40539826E-05 -2.43441920E-04  4.63275563E-09 -5.16154780E-05
 -3.52938763E-05  1.41857879E-05  3.56660035E-05 -3.21235586E-09  1.72509529E-09
 -1.62311581E-05  2.54451186E-04 -5.64546842E-04 -1.04744750E-05 -2.33898053E-08
  5.10420614E-04  3.32302584E-04  9.33144186E-06  1.46396302E-08  3.19673719E-04
 -2.84024880E-06 -7.33724552E-05  3.43135705E-06  1.89170301E-08 -6.21197016E-11
  8.28647764E-06  8.68603862E-05  5.54864031E-06  8.80606842E-06  2.28315106E-10
 -3.81775499E-04  9.70844558E-05  2.73153874E-04  3.80101782E-09 -4.12097703E-05
 -3.32258122E-05  1.67167104E-05 -3.29894286E-05 -2.73258885E-09 -1.36297981E-09
 -2.06601802E-06 -1.02365809E-05 -4.44918826E-06  1.64282052E-05 -2.03193839E-10
  8.08850411E-05 -8.50768820E-05 -1.05900619E-04 -3.19150742E-09  2.96434217E-06
  1.43856214E-06 -4.41159362E-06 -2.18463214E-06  3.09538336E-10 -1.17041552E-10
  9.43444073E-06 -6.63535782E-05  1.22114503E-05  3.41645056E-06  9.84142892E-06
 -7.19134911E-05  9.71206522E-06  4.66532919E-05  5.44375856E-06  4.12813989E-05
 -2.92630097E-06  1.71927378E-05 -2.98317090E-10 -1.79485349E-04 -2.19577675E-05
 -8.70105496E-05 -2.94388409E-10  7.71966148E-06  2.25364858E-05  2.03971341E-05
 -1.72362127E-05 -5.62180061E-10 -7.40475418E-10  9.94977178E-01  2.51927280E-02
 -9.57025673E-05  5.44046743E-05  4.93368075E-09 -3.46419454E-03  9.83393664E-04
 -7.36267397E-04  2.98492598E-08 -3.39803078E-03 -3.41895456E-03 -3.39153921E-03
 -4.18800004E-05  8.21719031E-10 -1.98648167E-09  1.46818523E-05  1.68270804E-04
  2.53323071E-04  4.91016424E-05  9.31062379E-09  2.08574552E-03  5.24340583E-04
  1.12816360E-03  1.58187455E-08 -9.70655566E-05 -7.23968017E-05 -7.65401531E-05
 -1.88330005E-05 -4.28206415E-10 -1.26466862E-09  1.20355886E-05 -1.24492593E-05
 -1.41942178E-05  6.41197942E-05 -4.66361300E-10 -6.65637901E-04 -4.53006463E-04
  4.09291616E-04 -2.07964866E-08  6.78023421E-05  2.23485039E-05  5.93532852E-06
  8.71085148E-06  2.44641214E-09  2.06307928E-10  1.43083124E-05  2.67516654E-05
 -7.44661962E-05 -9.89286926E-06 -2.70217338E-09 -9.75035050E-04 -1.64445915E-04
  5.73643648E-04 -7.30968794E-09  9.74290715E-06  4.21445581E-05  1.40426367E-05
 -1.15229638E-06 -4.26455912E-10  1.94784365E-10  1.86430011E-05  1.64466297E-04
  3.63167558E-05 -2.56884757E-04  1.35843699E-09  2.00833066E-03 -8.81151162E-04
 -1.00937839E-03 -3.53427544E-08 -5.83203675E-05 -9.68154755E-05 -6.86874590E-05
  9.00227922E-08  9.22494651E-10 -4.16017542E-11  1.69114902E-06  2.82872634E-04
  1.31524587E-04  1.17150313E-04 -2.40050758E-05 -1.39379806E-04  7.86208860E-06
  3.12338747E-04  2.60463881E-04  2.46980827E-03  4.82053235E-04  1.33587455E-05
  1.94125143E-08 -8.04800603E-03 -2.95983252E-03 -7.15540743E-05 -1.20256933E-07
  2.35671447E-05  1.69451582E-03  1.81728117E-03 -3.12944006E-05 -8.58139420E-08
 -1.04978092E-09  6.48517385E-05  1.90661605E-04 -5.74391145E-05  4.79141141E-05
 -8.32392678E-10 -2.94283965E-03  1.23417468E-03  4.46475297E-05  3.74430690E-08
  2.01075390E-04  1.48661979E-04  1.22838127E-04 -4.11870453E-05  5.50092564E-09
 -2.85732423E-09  1.46880037E-02  1.30995962E-04  9.34764646E-07 -1.18383820E-04
  2.42100648E-10  8.29764492E-03  6.45182513E-04  5.00747143E-03  8.39190892E-09
 -3.44427666E-04 -2.78269069E-04 -1.55847111E-04  5.15816714E-05 -1.03266177E-08
  1.73157936E-09  9.95754830E-01  2.71140260E-02 -1.68000265E-03  9.42848545E-06
 -6.44584871E-08 -1.52241265E-02 -8.14020288E-03  1.02437478E-04 -3.51077366E-07
 -2.50321260E-04 -1.46678790E-03 -1.99652403E-03  1.71568662E-06  8.33332785E-08
 -4.91867703E-10  6.39454159E-03 -1.28303280E-05 -1.38853109E-04  1.08910568E-04
 -5.21075682E-09  7.04592323E-03  4.83452617E-04 -4.08295193E-03  2.13924859E-08
 -3.84739530E-04 -3.23020968E-04 -1.34191709E-04 -7.21635686E-05 -1.25865933E-08
 -2.41710517E-09 -9.68334422E-05 -1.31123142E-04  7.77563645E-05 -1.18578897E-04
  4.03164948E-09 -1.67322709E-03  2.49600474E-04 -2.40649000E-04  7.88014689E-09
  1.59206124E-04  5.11264879E-05 -2.11899629E-05  5.94222532E-05  9.41724776E-09
  2.16049873E-09  1.06061077E-04  1.29950316E-03 -2.43635850E-05 -6.38710341E-05
  9.47921153E-05  9.95398078E-04  2.00263155E-05  2.76106365E-04  1.40708251E-05
  8.83603304E-05 -4.31984231E-06  2.24495060E-05 -7.49648635E-10 -3.89947266E-04
 -6.09263877E-06 -1.18408343E-04  2.12485906E-09  3.99432593E-05  5.49709591E-05
  5.21202649E-05 -7.38048611E-06 -2.06340331E-10 -1.94883411E-10 -2.39904670E-04
  4.73073380E-04 -1.91920730E-05  4.83681765E-05 -8.10499712E-10 -9.52177635E-04
  1.65569545E-03 -1.37348821E-03  5.82076187E-08 -1.97453908E-04 -6.89121470E-04
  2.09380835E-04 -7.29665081E-06 -1.63476305E-08 -2.43682028E-09 -1.85790894E-03
 -4.41511996E-04  1.11962421E-04 -1.11588903E-05  2.80194730E-09  3.51460758E-03
  1.58100628E-04  3.33297840E-03 -9.25305880E-10  1.60239574E-04  1.54160044E-04
 -1.07183772E-04  1.02250376E-04  1.16795167E-08  2.28554929E-09  6.61322472E-05
  3.10634476E-05  1.17654888E-05  8.87927994E-05  8.68075604E-10 -3.20123516E-03
 -1.56429819E-03  1.06127155E-03 -7.44914909E-08  1.34179108E-04  4.44812366E-05
  5.16955893E-05  1.18953458E-04  2.67528544E-09  5.45970441E-09  1.26070373E-02
  1.75421008E-04 -2.03520730E-04  9.53765259E-05 -7.91466443E-09  3.90927393E-03
  1.83391850E-03 -6.69229159E-04  7.39234256E-08 -3.32316112E-04 -3.54799473E-04
 -1.15226198E-04  6.44589213E-05 -1.06513643E-08  2.83155517E-09  9.95566001E-01
  2.71379735E-02 -3.28133174E-05 -1.08418226E-03 -4.78391788E-09 -9.50141169E-03
  6.76332721E-04 -7.62512119E-04  2.83227809E-08 -1.58304120E-03 -1.48148049E-03
 -2.39580275E-03  1.33892737E-04  3.79064303E-08  5.80512338E-09  1.29154495E-04
  1.19554622E-03 -2.33657212E-04 -6.62409050E-04 -3.72210735E-05  5.20896116E-05
 -2.67668477E-04  2.02409845E-03  1.47563910E-05  3.38418982E-08 -1.28838238E-05
  2.28759232E-05 -7.68630560E-10 -2.35053491E-04  3.94107986E-05  5.14948683E-05
  2.57482928E-09  1.78433657E-04  3.86637052E-05 -4.42446943E-05 -2.67330916E-05
  1.10346287E-08 -1.40394216E-09 -2.37703184E-04  4.59985655E-04 -4.05271457E-05
 -1.98927515E-06 -1.54653153E-09 -7.22396586E-04  1.76931887E-03 -1.06168382E-03
  6.08289938E-08 -6.74452163E-04 -2.52174162E-04  1.90180318E-04 -1.68552043E-04
 -3.43132692E-08 -5.78596058E-09  9.95504520E-01  2.73618391E-02  9.69298177E-04
  5.12331995E-04  2.67311254E-08 -9.63502150E-03  9.21331613E-04 -5.68572165E-04
  4.96666481E-08 -1.65736600E-03 -1.50672295E-03 -2.41682038E-03  1.53479003E-04
  3.29061752E-08  2.51762863E-09 -1.52389882E-02 -5.61646095E-04 -9.15485490E-05
  1.74509756E-04 -4.55601171E-09  4.48937531E-03  1.02235005E-03 -1.45691127E-03
  4.31893152E-08 -4.82526285E-04 -2.73092161E-04 -7.03549241E-05  5.23919019E-05
 -2.04314702E-08  3.11157112E-09 -4.21069632E-04 -2.19360102E-05 -9.80590656E-05
 -5.05267978E-05 -3.94667301E-09 -2.83300120E-03 -1.07634703E-03  1.24796599E-03
 -4.40106515E-08  9.70500285E-07  2.10606174E-04  4.24908325E-05  6.20232366E-05
 -2.35030104E-09  2.18596185E-09  1.79284613E-03 -3.05592584E-04  6.39984452E-05
 -1.06690348E-04  1.63774170E-09  3.00484533E-03 -2.85795261E-03 -1.15573633E-03
 -1.09844469E-07  7.44852845E-05  2.00924184E-04 -1.07126552E-04  7.82370221E-05
  8.29298147E-09  2.54705331E-09 -2.73636932E-04  1.97517072E-03 -2.21472572E-04
 -6.57548238E-04 -5.62954269E-05 -2.68786583E-04  1.34002677E-04  1.13856765E-03
 -3.74889989E-06 -9.13302033E-05 -2.38451258E-05  5.69953073E-06 -1.05424423E-09
  1.12122178E-04  7.41168841E-05 -1.98371793E-04  3.62794056E-09  9.78877644E-05
 -2.72210808E-05 -1.11826549E-04 -9.13994100E-06  1.01589444E-08 -4.62994895E-10
  7.36522648E-05  1.72469097E-04 -7.08403601E-05  6.29130019E-05 -2.59728135E-09
 -2.29229961E-03  6.63067278E-04 -9.64345945E-04  2.36382577E-08  1.42573099E-04
  1.93875119E-04  1.39677307E-04 -5.61126095E-05  9.82950002E-10 -2.31599349E-09
  3.79035370E-04 -1.50631704E-04  9.06859562E-05  3.56079411E-05  2.80463827E-09
  3.49452045E-04 -7.18871292E-05  4.16125379E-04 -3.18873523E-09  6.81074601E-05
  1.92179631E-04 -1.77610090E-05 -1.41077989E-05  4.60355280E-09 -1.24729152E-09
 -6.89627555E-03 -2.25655443E-04 -1.11849185E-04 -5.95138265E-05 -4.73467500E-09
  4.89865224E-03  1.40708482E-03  1.98885672E-03  5.50409643E-08 -5.19053298E-04
 -4.55425071E-04 -1.13109175E-04 -1.36929856E-04 -1.96324530E-08 -5.41643154E-09
  9.95530855E-01  2.79857016E-02  5.96348499E-05 -5.01401201E-04  2.80077548E-09
 -1.50998753E-02 -7.79283100E-04  3.12947645E-03 -3.07973996E-08 -1.76550722E-03
 -1.60784263E-03 -2.35626643E-03 -8.82392113E-05  2.68664617E-08 -3.48921344E-09
 -1.31428524E-02 -5.51384777E-04  2.24343710E-04 -1.16838180E-05  9.18517597E-09
  6.45610881E-03 -2.88346920E-03 -7.34764437E-04 -1.17003759E-07 -4.65453896E-04
 -2.38793599E-04 -9.93282027E-05  3.51779278E-05 -1.69234233E-08  1.46978316E-09
 -2.05308693E-05  2.35143916E-04 -8.51341129E-05 -1.36087841E-04 -3.04153496E-04
  1.26858880E-03  9.32390147E-06  4.42550696E-04 -2.22003524E-01  5.14791624E-01
  6.46958575E-02  7.26189471E-04  2.69382249E-06  4.46435423E-01  4.21347611E-02
  4.47196217E-04  1.76592609E-06  3.74528545E-02  1.99814440E-02  1.95451138E-02
  2.62195246E-04  8.65524133E-07  8.04551270E-09 -1.85593814E-03  4.14858094E-03
 -2.17251598E-03  8.38210214E-04 -8.20617498E-08  5.40925542E-03  1.21074251E-03
 -1.99708160E-03  7.23335156E-08  5.65842459E-04  1.64772911E-04  7.04562170E-05
 -2.20497253E-04  2.01644682E-08 -7.54365647E-09 -7.20996584E-03  1.24547314E-02
 -9.26440616E-03  8.60329896E-03 -4.20554791E-07  6.80937175E-03 -6.95767968E-03
  1.40479541E-03 -2.87325978E-07  2.69232514E-03  8.20053013E-04 -7.69770874E-04
 -3.12183752E-03  1.76899769E-07 -1.37024559E-07 -5.63426658E-02  9.67302199E-02
 -8.78406334E-02 -1.29267763E-03 -3.63873738E-06  2.31702079E-02  9.00384057E-03
 -1.02897299E-04  3.56260778E-07  2.22071528E-02 -1.06259331E-02 -1.01376703E-02
  4.30209555E-04  1.54475928E-06  1.94084141E-08 -6.30863468E-03  1.04887370E-02
 -8.53674116E-03 -7.80207813E-03 -3.49424512E-07  5.89582835E-03 -7.56098878E-03
 -2.32054553E-03 -3.04467848E-07  2.55841615E-03  1.09951264E-03 -7.56259464E-04
  3.08564679E-03  1.56283495E-07  1.27362220E-07 -1.21261978E-03  3.13516498E-03
 -1.88885163E-03 -1.37227394E-03 -7.63556897E-08  2.57171536E-03  2.61247425E-03
  4.47529417E-03  9.71431032E-08  3.61419326E-04  2.08446898E-04  7.53388758E-05
  1.36445869E-04  1.30503405E-08  6.78774927E-09  1.46997113E-03  1.75985315E-04
 -2.76330606E-04 -7.62023547E-04  1.35264127E-03  3.84827310E-04 -3.04758394E-04
 -2.58220012E-03  1.42411485E-02 -3.56466421E-02  9.37303855E-03 -1.30866755E-03
  3.98251929E-07 -2.63647321E-02  6.34136241E-03  1.47288087E-03  2.46339744E-07
 -1.49229634E-03 -2.74547389E-03 -2.49621922E-03  2.08393934E-04  4.52902038E-08
  9.71216392E-09 -1.69424730E-01  3.49989739E-01 -4.69374096E-02  3.50320660E-02