12098                                                                   
Freq      RMP2-FC                                                     Gen                 
Number of atoms                            I               15
Info1-9                                    I   N=           9
          92          92        1002           0           0         100
           6           2           1
Charge                                     I                0
Multiplicity                               I                1
Number of electrons                        I              102
Number of alpha electrons                  I               51
Number of beta electrons                   I               51
Number of basis functions                  I              230
Number of independent functions            I              230
Number of point charges in /Mol/           I                0
Number of translation vectors              I                0
Atomic numbers                             I   N=          15
          53           6           6           6           6           6
           6           6           1           1           1           1
           1           1           1
Nuclear charges                            R   N=          15
  5.30000000E+01  6.00000000E+00  6.00000000E+00  6.00000000E+00  6.00000000E+00
  6.00000000E+00  6.00000000E+00  6.00000000E+00  1.00000000E+00  1.00000000E+00
  1.00000000E+00  1.00000000E+00  1.00000000E+00  1.00000000E+00  1.00000000E+00
Current cartesian coordinates              R   N=          45
  3.48827570E+00 -1.51178091E-05 -4.07972975E-01 -2.09581966E+00  5.85815101E-05
  1.17172469E+00 -3.31505018E+00 -2.28668011E+00  6.11475692E-01 -3.31511632E+00
  2.28673114E+00  6.11360419E-01  4.51831629E-01  1.24721925E-04  2.38403503E+00
 -5.70834675E+00 -2.28765899E+00 -5.02720064E-01 -5.70841100E+00  2.28758718E+00
 -5.02835337E-01 -6.91369156E+00 -6.61404147E-05 -1.05756255E+00 -2.37242833E+00
 -4.06452123E+00  1.03153913E+00 -2.37254549E+00  4.06462328E+00  1.03133693E+00
  7.71484473E-01 -1.68730623E+00  3.52128166E+00  7.71476914E-01  1.68767473E+00
  3.52110781E+00 -6.63709045E+00 -4.06895075E+00 -9.25963915E-01 -6.63720762E+00
  4.06883170E+00 -9.26168006E-01 -8.77466362E+00 -1.15273294E-04 -1.92339727E+00
Force Field                                I                0
Int Atom Types                             I   N=          15
           0           0           0           0           0           0
           0           0           0           0           0           0
           0           0           0
MM charges                                 R   N=          15
  0.00000000E+00  0.00000000E+00  0.00000000E+00  0.00000000E+00  0.00000000E+00
  0.00000000E+00  0.00000000E+00  0.00000000E+00  0.00000000E+00  0.00000000E+00
  0.00000000E+00  0.00000000E+00  0.00000000E+00  0.00000000E+00  0.00000000E+00
Integer atomic weights                     I   N=          15
         127          12          12          12          12          12
          12          12           1           1           1           1
           1           1           1
Real atomic weights                        R   N=          15
  1.26900400E+02  1.20000000E+01  1.20000000E+01  1.20000000E+01  1.20000000E+01
  1.20000000E+01  1.20000000E+01  1.20000000E+01  1.00782504E+00  1.00782504E+00
  1.00782504E+00  1.00782504E+00  1.00782504E+00  1.00782504E+00  1.00782504E+00
Atom fragment info                         I   N=          15
           0           0           0           0           0           0
           0           0           0           0           0           0
           0           0           0
Atom residue num                           I   N=          15
           0           0           0           0           0           0
           0           0           0           0           0           0
           0           0           0
Nuclear spins                              I   N=          15
           5           0           0           0           0           0
           0           0           1           1           1           1
           1           1           1
Nuclear ZEff                               R   N=          15
 -6.57200000E+01 -3.60000000E+00 -3.60000000E+00 -3.60000000E+00 -3.60000000E+00
 -3.60000000E+00 -3.60000000E+00 -3.60000000E+00 -1.00000000E+00 -1.00000000E+00
 -1.00000000E+00 -1.00000000E+00 -1.00000000E+00 -1.00000000E+00 -1.00000000E+00
Nuclear QMom                               R   N=          15
 -7.10000000E+01  0.00000000E+00  0.00000000E+00  0.00000000E+00  0.00000000E+00
  0.00000000E+00  0.00000000E+00  0.00000000E+00  0.00000000E+00  0.00000000E+00
  0.00000000E+00  0.00000000E+00  0.00000000E+00  0.00000000E+00  0.00000000E+00
Nuclear GFac                               R   N=          15
  2.81328000E+00  0.00000000E+00  0.00000000E+00  0.00000000E+00  0.00000000E+00
  0.00000000E+00  0.00000000E+00  0.00000000E+00  2.79284600E+00  2.79284600E+00
  2.79284600E+00  2.79284600E+00  2.79284600E+00  2.79284600E+00  2.79284600E+00
MicOpt                                     I   N=          15
          -1          -1          -1          -1          -1          -1
          -1          -1          -1          -1          -1          -1
          -1          -1          -1
Number of contracted shells                I               87
Number of primitive shells                 I              160
Pure/Cartesian d shells                    I                0
Pure/Cartesian f shells                    I                0
Highest angular momentum                   I                2
Largest degree of contraction              I                6
Shell types                                I   N=          87
           0           0           0           0           0           0
           0           0           0           0           1           1
           1           1           1           1           1           1
           1          -2          -2          -2          -2          -2
           0          -1          -1          -1          -2           0
          -1          -1          -1          -2           0          -1
          -1          -1          -2           0          -1          -1
          -1          -2           0          -1          -1          -1
          -2           0          -1          -1          -1          -2
           0          -1          -1          -1          -2           0
           0           0           1           0           0           0
           1           0           0           0           1           0
           0           0           1           0           0           0
           1           0           0           0           1           0
           0           0           1
Number of primitives per shell             I   N=          87
           5           2           1           1           1           1
           1           1           1           1           4           1
           1           1           1           1           1           1
           1           3           1           1           1           1
           6           3           1           1           1           6
           3           1           1           1           6           3
           1           1           1           6           3           1
           1           1           6           3           1           1
           1           6           3           1           1           1
           6           3           1           1           1           3
           1           1           1           3           1           1
           1           3           1           1           1           3
           1           1           1           3           1           1
           1           3           1           1           1           3
           1           1           1
Shell to atom map                          I   N=          87
           1           1           1           1           1           1
           1           1           1           1           1           1
           1           1           1           1           1           1
           1           1           1           1           1           1
           2           2           2           2           2           3
           3           3           3           3           4           4
           4           4           4           5           5           5
           5           5           6           6           6           6
           6           7           7           7           7           7
           8           8           8           8           8           9
           9           9           9          10          10          10
          10          11          11          11          11          12
          12          12          12          13          13          13
          13          14          14          14          14          15
          15          15          15
Primitive exponents                        R   N=         160
  4.44750000E+05  6.61270000E+04  1.48150000E+04  4.14490000E+03  1.36120000E+03
  5.08440000E+02  2.09590000E+02  8.19590000E+01  3.68050000E+01  1.34950000E+01
  6.88590000E+00  2.55200000E+00  1.20880000E+00  2.73400000E-01  1.00900000E-01
  2.95360000E+03  7.12610000E+02  2.36710000E+02  9.26310000E+01  3.97320000E+01
  1.72730000E+01  7.95700000E+00  3.15290000E+00  1.33280000E+00  4.94700000E-01
  2.16000000E-01  8.29300000E-02  2.61950000E+02  7.67340000E+01  2.75510000E+01
  1.06060000E+01  3.42170000E+00  1.13700000E+00  3.02000000E-01  4.56324000E+03
  6.82024000E+02  1.54973000E+02  4.44553000E+01  1.30290000E+01  1.82773000E+00
  2.09642000E+01  4.80331000E+00  1.45933000E+00  4.83456000E-01  1.45585000E-01
  6.26000000E-01  4.56324000E+03  6.82024000E+02  1.54973000E+02  4.44553000E+01
  1.30290000E+01  1.82773000E+00  2.09642000E+01  4.80331000E+00  1.45933000E+00
  4.83456000E-01  1.45585000E-01  6.26000000E-01  4.56324000E+03  6.82024000E+02
  1.54973000E+02  4.44553000E+01  1.30290000E+01  1.82773000E+00  2.09642000E+01
  4.80331000E+00  1.45933000E+00  4.83456000E-01  1.45585000E-01  6.26000000E-01
  4.56324000E+03  6.82024000E+02  1.54973000E+02  4.44553000E+01  1.30290000E+01
  1.82773000E+00  2.09642000E+01  4.80331000E+00  1.45933000E+00  4.83456000E-01
  1.45585000E-01  6.26000000E-01  4.56324000E+03  6.82024000E+02  1.54973000E+02
  4.44553000E+01  1.30290000E+01  1.82773000E+00  2.09642000E+01  4.80331000E+00
  1.45933000E+00  4.83456000E-01  1.45585000E-01  6.26000000E-01  4.56324000E+03
  6.82024000E+02  1.54973000E+02  4.44553000E+01  1.30290000E+01  1.82773000E+00
  2.09642000E+01  4.80331000E+00  1.45933000E+00  4.83456000E-01  1.45585000E-01
  6.26000000E-01  4.56324000E+03  6.82024000E+02  1.54973000E+02  4.44553000E+01
  1.30290000E+01  1.82773000E+00  2.09642000E+01  4.80331000E+00  1.45933000E+00
  4.83456000E-01  1.45585000E-01  6.26000000E-01  3.38650000E+01  5.09479000E+00
  1.15879000E+00  3.25840000E-01  1.02741000E-01  7.50000000E-01  3.38650000E+01
  5.09479000E+00  1.15879000E+00  3.25840000E-01  1.02741000E-01  7.50000000E-01
  3.38650000E+01  5.09479000E+00  1.15879000E+00  3.25840000E-01  1.02741000E-01
  7.50000000E-01  3.38650000E+01  5.09479000E+00  1.15879000E+00  3.25840000E-01
  1.02741000E-01  7.50000000E-01  3.38650000E+01  5.09479000E+00  1.15879000E+00
  3.25840000E-01  1.02741000E-01  7.50000000E-01  3.38650000E+01  5.09479000E+00
  1.15879000E+00  3.25840000E-01  1.02741000E-01  7.50000000E-01  3.38650000E+01
  5.09479000E+00  1.15879000E+00  3.25840000E-01  1.02741000E-01  7.50000000E-01
Contraction coefficients                   R   N=         160
  1.86636799E-03  1.45534763E-02  7.56822706E-02  2.84526752E-01  7.10436122E-01
  7.24149751E-01  3.04776831E-01  1.00000000E+00  1.00000000E+00  1.00000000E+00
  1.00000000E+00  1.00000000E+00  1.00000000E+00  1.00000000E+00  1.00000000E+00
  1.56939495E-02  1.10371781E-01  3.79084072E-01  6.15020301E-01  1.00000000E+00
  1.00000000E+00  1.00000000E+00  1.00000000E+00  1.00000000E+00  1.00000000E+00
  1.00000000E+00  1.00000000E+00  5.05248223E-02  3.05784452E-01  7.59270445E-01
  1.00000000E+00  1.00000000E+00  1.00000000E+00  1.00000000E+00  1.96665025E-03
  1.52306019E-02  7.61269097E-02  2.60801033E-01  6.16462078E-01  2.21006028E-01
  1.14660081E-01  9.19999648E-01 -3.03068213E-03  1.00000000E+00  1.00000000E+00
  1.00000000E+00  1.96665025E-03  1.52306019E-02  7.61269097E-02  2.60801033E-01
  6.16462078E-01  2.21006028E-01  1.14660081E-01  9.19999648E-01 -3.03068213E-03
  1.00000000E+00  1.00000000E+00  1.00000000E+00  1.96665025E-03  1.52306019E-02
  7.61269097E-02  2.60801033E-01  6.16462078E-01  2.21006028E-01  1.14660081E-01
  9.19999648E-01 -3.03068213E-03  1.00000000E+00  1.00000000E+00  1.00000000E+00
  1.96665025E-03  1.52306019E-02  7.61269097E-02  2.60801033E-01  6.16462078E-01
  2.21006028E-01  1.14660081E-01  9.19999648E-01 -3.03068213E-03  1.00000000E+00
  1.00000000E+00  1.00000000E+00  1.96665025E-03  1.52306019E-02  7.61269097E-02
  2.60801033E-01  6.16462078E-01  2.21006028E-01  1.14660081E-01  9.19999648E-01
 -3.03068213E-03  1.00000000E+00  1.00000000E+00  1.00000000E+00  1.96665025E-03
  1.52306019E-02  7.61269097E-02  2.60801033E-01  6.16462078E-01  2.21006028E-01
  1.14660081E-01  9.19999648E-01 -3.03068213E-03  1.00000000E+00  1.00000000E+00
  1.00000000E+00  1.96665025E-03  1.52306019E-02  7.61269097E-02  2.60801033E-01
  6.16462078E-01  2.21006028E-01  1.14660081E-01  9.19999648E-01 -3.03068213E-03
  1.00000000E+00  1.00000000E+00  1.00000000E+00  2.54938145E-02  1.90373109E-01
  8.52161486E-01  1.00000000E+00  1.00000000E+00  1.00000000E+00  2.54938145E-02
  1.90373109E-01  8.52161486E-01  1.00000000E+00  1.00000000E+00  1.00000000E+00
  2.54938145E-02  1.90373109E-01  8.52161486E-01  1.00000000E+00  1.00000000E+00
  1.00000000E+00  2.54938145E-02  1.90373109E-01  8.52161486E-01  1.00000000E+00
  1.00000000E+00  1.00000000E+00  2.54938145E-02  1.90373109E-01  8.52161486E-01
  1.00000000E+00  1.00000000E+00  1.00000000E+00  2.54938145E-02  1.90373109E-01
  8.52161486E-01  1.00000000E+00  1.00000000E+00  1.00000000E+00  2.54938145E-02
  1.90373109E-01  8.52161486E-01  1.00000000E+00  1.00000000E+00  1.00000000E+00
P(S=P) Contraction coefficients            R   N=         160
  0.00000000E+00  0.00000000E+00  0.00000000E+00  0.00000000E+00  0.00000000E+00
  0.00000000E+00  0.00000000E+00  0.00000000E+00  0.00000000E+00  0.00000000E+00
  0.00000000E+00  0.00000000E+00  0.00000000E+00  0.00000000E+00  0.00000000E+00
  0.00000000E+00  0.00000000E+00  0.00000000E+00  0.00000000E+00  0.00000000E+00
  0.00000000E+00  0.00000000E+00  0.00000000E+00  0.00000000E+00  0.00000000E+00
  0.00000000E+00  0.00000000E+00  0.00000000E+00  0.00000000E+00  0.00000000E+00
  0.00000000E+00  0.00000000E+00  0.00000000E+00  0.00000000E+00  0.00000000E+00
  0.00000000E+00  0.00000000E+00  0.00000000E+00  0.00000000E+00  0.00000000E+00
  4.02486927E-02  2.37593957E-01  8.15853851E-01  1.00000000E+00  1.00000000E+00
  0.00000000E+00  0.00000000E+00  0.00000000E+00  0.00000000E+00  0.00000000E+00
  0.00000000E+00  0.00000000E+00  4.02486927E-02  2.37593957E-01  8.15853851E-01
  1.00000000E+00  1.00000000E+00  0.00000000E+00  0.00000000E+00  0.00000000E+00
  0.00000000E+00  0.00000000E+00  0.00000000E+00  0.00000000E+00  4.02486927E-02
  2.37593957E-01  8.15853851E-01  1.00000000E+00  1.00000000E+00  0.00000000E+00
  0.00000000E+00  0.00000000E+00  0.00000000E+00  0.00000000E+00  0.00000000E+00
  0.00000000E+00  4.02486927E-02  2.37593957E-01  8.15853851E-01  1.00000000E+00
  1.00000000E+00  0.00000000E+00  0.00000000E+00  0.00000000E+00  0.00000000E+00
  0.00000000E+00  0.00000000E+00  0.00000000E+00  4.02486927E-02  2.37593957E-01
  8.15853851E-01  1.00000000E+00  1.00000000E+00  0.00000000E+00  0.00000000E+00
  0.00000000E+00  0.00000000E+00  0.00000000E+00  0.00000000E+00  0.00000000E+00
  4.02486927E-02  2.37593957E-01  8.15853851E-01  1.00000000E+00  1.00000000E+00
  0.00000000E+00  0.00000000E+00  0.00000000E+00  0.00000000E+00  0.00000000E+00
  0.00000000E+00  0.00000000E+00  4.02486927E-02  2.37593957E-01  8.15853851E-01
  1.00000000E+00  1.00000000E+00  0.00000000E+00  0.00000000E+00  0.00000000E+00
  0.00000000E+00  0.00000000E+00  0.00000000E+00  0.00000000E+00  0.00000000E+00
  0.00000000E+00  0.00000000E+00  0.00000000E+00  0.00000000E+00  0.00000000E+00
  0.00000000E+00  0.00000000E+00  0.00000000E+00  0.00000000E+00  0.00000000E+00
  0.00000000E+00  0.00000000E+00  0.00000000E+00  0.00000000E+00  0.00000000E+00
  0.00000000E+00  0.00000000E+00  0.00000000E+00  0.00000000E+00  0.00000000E+00
  0.00000000E+00  0.00000000E+00  0.00000000E+00  0.00000000E+00  0.00000000E+00
  0.00000000E+00  0.00000000E+00  0.00000000E+00  0.00000000E+00  0.00000000E+00
  0.00000000E+00  0.00000000E+00  0.00000000E+00  0.00000000E+00  0.00000000E+00
Coordinates of each shell                  R   N=         261
  3.48827556E+00 -1.54468634E-05 -4.07973327E-01  3.48827556E+00 -1.54468634E-05
 -4.07973327E-01  3.48827556E+00 -1.54468634E-05 -4.07973327E-01  3.48827556E+00
 -1.54468634E-05 -4.07973327E-01  3.48827556E+00 -1.54468634E-05 -4.07973327E-01
  3.48827556E+00 -1.54468634E-05 -4.07973327E-01  3.48827556E+00 -1.54468634E-05
 -4.07973327E-01  3.48827556E+00 -1.54468634E-05 -4.07973327E-01  3.48827556E+00
 -1.54468634E-05 -4.07973327E-01  3.48827556E+00 -1.54468634E-05 -4.07973327E-01
  3.48827556E+00 -1.54468634E-05 -4.07973327E-01  3.48827556E+00 -1.54468634E-05
 -4.07973327E-01  3.48827556E+00 -1.54468634E-05 -4.07973327E-01  3.48827556E+00
 -1.54468634E-05 -4.07973327E-01  3.48827556E+00 -1.54468634E-05 -4.07973327E-01
  3.48827556E+00 -1.54468634E-05 -4.07973327E-01  3.48827556E+00 -1.54468634E-05
 -4.07973327E-01  3.48827556E+00 -1.54468634E-05 -4.07973327E-01  3.48827556E+00
 -1.54468634E-05 -4.07973327E-01  3.48827556E+00 -1.54468634E-05 -4.07973327E-01
  3.48827556E+00 -1.54468634E-05 -4.07973327E-01  3.48827556E+00 -1.54468634E-05
 -4.07973327E-01  3.48827556E+00 -1.54468634E-05 -4.07973327E-01  3.48827556E+00
 -1.54468634E-05 -4.07973327E-01 -2.09581981E+00  5.85716065E-05  1.17172434E+00
 -2.09581981E+00  5.85716065E-05  1.17172434E+00 -2.09581981E+00  5.85716065E-05
  1.17172434E+00 -2.09581981E+00  5.85716065E-05  1.17172434E+00 -2.09581981E+00
  5.85716065E-05  1.17172434E+00 -3.31505046E+00 -2.28668005E+00  6.11475340E-01
 -3.31505046E+00 -2.28668005E+00  6.11475340E-01 -3.31505046E+00 -2.28668005E+00
  6.11475340E-01 -3.31505046E+00 -2.28668005E+00  6.11475340E-01 -3.31505046E+00
 -2.28668005E+00  6.11475340E-01 -3.31511634E+00  2.28673120E+00  6.11360067E-01
 -3.31511634E+00  2.28673120E+00  6.11360067E-01 -3.31511634E+00  2.28673120E+00
  6.11360067E-01 -3.31511634E+00  2.28673120E+00  6.11360067E-01 -3.31511634E+00
  2.28673120E+00  6.11360067E-01  4.51831480E-01  1.24566414E-04  2.38403467E+00
  4.51831480E-01  1.24566414E-04  2.38403467E+00  4.51831480E-01  1.24566414E-04
  2.38403467E+00  4.51831480E-01  1.24566414E-04  2.38403467E+00  4.51831480E-01
  1.24566414E-04  2.38403467E+00 -5.70834703E+00 -2.28765880E+00 -5.02720416E-01
 -5.70834703E+00 -2.28765880E+00 -5.02720416E-01 -5.70834703E+00 -2.28765880E+00
 -5.02720416E-01 -5.70834703E+00 -2.28765880E+00 -5.02720416E-01 -5.70834703E+00
 -2.28765880E+00 -5.02720416E-01 -5.70841102E+00  2.28758738E+00 -5.02835689E-01
 -5.70841102E+00  2.28758738E+00 -5.02835689E-01 -5.70841102E+00  2.28758738E+00
 -5.02835689E-01 -5.70841102E+00  2.28758738E+00 -5.02835689E-01 -5.70841102E+00
  2.28758738E+00 -5.02835689E-01 -6.91369171E+00 -6.58749598E-05 -1.05756291E+00
 -6.91369171E+00 -6.58749598E-05 -1.05756291E+00 -6.91369171E+00 -6.58749598E-05
 -1.05756291E+00 -6.91369171E+00 -6.58749598E-05 -1.05756291E+00 -6.91369171E+00
 -6.58749598E-05 -1.05756291E+00 -2.37242871E+00 -4.06452123E+00  1.03153878E+00
 -2.37242871E+00 -4.06452123E+00  1.03153878E+00 -2.37242871E+00 -4.06452123E+00
  1.03153878E+00 -2.37242871E+00 -4.06452123E+00  1.03153878E+00 -2.37254541E+00
  4.06462328E+00  1.03133658E+00 -2.37254541E+00  4.06462328E+00  1.03133658E+00
 -2.37254541E+00  4.06462328E+00  1.03133658E+00 -2.37254541E+00  4.06462328E+00
  1.03133658E+00  7.71484229E-01 -1.68730640E+00  3.52128131E+00  7.71484229E-01
 -1.68730640E+00  3.52128131E+00  7.71484229E-01 -1.68730640E+00  3.52128131E+00
  7.71484229E-01 -1.68730640E+00  3.52128131E+00  7.71476863E-01  1.68767455E+00
  3.52110745E+00  7.71476863E-01  1.68767455E+00  3.52110745E+00  7.71476863E-01
  1.68767455E+00  3.52110745E+00  7.71476863E-01  1.68767455E+00  3.52110745E+00
 -6.63709084E+00 -4.06895050E+00 -9.25964267E-01 -6.63709084E+00 -4.06895050E+00
 -9.25964267E-01 -6.63709084E+00 -4.06895050E+00 -9.25964267E-01 -6.63709084E+00
 -4.06895050E+00 -9.25964267E-01 -6.63720753E+00  4.06883195E+00 -9.26168358E-01
 -6.63720753E+00  4.06883195E+00 -9.26168358E-01 -6.63720753E+00  4.06883195E+00
 -9.26168358E-01 -6.63720753E+00  4.06883195E+00 -9.26168358E-01 -8.77466377E+00
 -1.14901478E-04 -1.92339763E+00 -8.77466377E+00 -1.14901478E-04 -1.92339763E+00
 -8.77466377E+00 -1.14901478E-04 -1.92339763E+00 -8.77466377E+00 -1.14901478E-04
 -1.92339763E+00
Constraint Structure                       R   N=          45
  3.48827556E+00 -1.54468634E-05 -4.07973327E-01 -2.09581981E+00  5.85716065E-05
  1.17172434E+00 -3.31505046E+00 -2.28668005E+00  6.11475340E-01 -3.31511634E+00
  2.28673120E+00  6.11360067E-01  4.51831480E-01  1.24566414E-04  2.38403467E+00
 -5.70834703E+00 -2.28765880E+00 -5.02720416E-01 -5.70841102E+00  2.28758738E+00
 -5.02835689E-01 -6.91369171E+00 -6.58749598E-05 -1.05756291E+00 -2.37242871E+00
 -4.06452123E+00  1.03153878E+00 -2.37254541E+00  4.06462328E+00  1.03133658E+00
  7.71484229E-01 -1.68730640E+00  3.52128131E+00  7.71476863E-01  1.68767455E+00
  3.52110745E+00 -6.63709084E+00 -4.06895050E+00 -9.25964267E-01 -6.63720753E+00
  4.06883195E+00 -9.26168358E-01 -8.77466377E+00 -1.14901478E-04 -1.92339763E+00
Num ILSW                                   I              100
ILSW                                       I   N=         100
           0           0           0           1           2           0
           0           0           0           0           0          -1
           0           0           0           0           0           0
           0           0           0           0           1           0
           1           0           0           0           0           0
           0           0      100000           0          -1           0
           0           0           0           0           0           0
           0           0           0           1           1           0
           0           0           1           0           0           0
           0           0           4          40           0           0
           0           0           0           0           0           0
           0           0           0           0           0           0
           0           0           0           0           0           0
           0           0           0           0           0           0
           0           0           0           0           0           0
           0           0           0           0           0           0
           0           0           0           0
Num RLSW                                   I               40
RLSW                                       R   N=          40
  1.00000000E+00  1.00000000E+00  1.00000000E+00  1.00000000E+00  1.00000000E+00
  0.00000000E+00  0.00000000E+00  1.00000000E+00  0.00000000E+00  0.00000000E+00
  0.00000000E+00  0.00000000E+00  1.00000000E+00  0.00000000E+00  0.00000000E+00
  0.00000000E+00  0.00000000E+00  1.00000000E+00  0.00000000E+00  0.00000000E+00
  0.00000000E+00  0.00000000E+00  1.00000000E+00  0.00000000E+00  0.00000000E+00
  0.00000000E+00  0.00000000E+00  1.00000000E+00  0.00000000E+00  0.00000000E+00
  0.00000000E+00  0.00000000E+00  0.00000000E+00  0.00000000E+00  0.00000000E+00
  0.00000000E+00  0.00000000E+00  0.00000000E+00  1.00000000E+00  1.00000000E+00
MxBond                                     I                4
NBond                                      I   N=          15
           1           3           3           3           4           3
           3           3           1           1           1           1
           1           1           1
IBond                                      I   N=          60
           5           0           0           0           3           4
           5           0           2           6           9           0
           2           7          10           0           1           2
          11          12           3           8          13           0
           4           8          14           0           6           7
          15           0           3           0           0           0
           4           0           0           0           5           0
           0           0           5           0           0           0
           6           0           0           0           7           0
           0           0           8           0           0           0
RBond                                      R   N=          60
  1.00000000E+00  0.00000000E+00  0.00000000E+00  0.00000000E+00  1.50000000E+00
  1.50000000E+00  1.00000000E+00  0.00000000E+00  1.50000000E+00  1.50000000E+00
  1.00000000E+00  0.00000000E+00  1.50000000E+00  1.50000000E+00  1.00000000E+00
  0.00000000E+00  1.00000000E+00  1.00000000E+00  1.00000000E+00  1.00000000E+00
  1.50000000E+00  1.50000000E+00  1.00000000E+00  0.00000000E+00  1.50000000E+00
  1.50000000E+00  1.00000000E+00  0.00000000E+00  1.50000000E+00  1.50000000E+00
  1.00000000E+00  0.00000000E+00  1.00000000E+00  0.00000000E+00  0.00000000E+00
  0.00000000E+00  1.00000000E+00  0.00000000E+00  0.00000000E+00  0.00000000E+00
  1.00000000E+00  0.00000000E+00  0.00000000E+00  0.00000000E+00  1.00000000E+00
  0.00000000E+00  0.00000000E+00  0.00000000E+00  1.00000000E+00  0.00000000E+00
  0.00000000E+00  0.00000000E+00  1.00000000E+00  0.00000000E+00  0.00000000E+00
  0.00000000E+00  1.00000000E+00  0.00000000E+00  0.00000000E+00  0.00000000E+00
Virial Ratio                               R      1.999590687607233E+00
SCF Energy                                 R     -7.186028423907825E+03
MP2 Energy                                 R     -7.187208704702593E+03
Total Energy                               R     -7.187208704702593E+03
Post-SCF wavefunction norm                 R      1.688477934832798E+00
RMS Force                                  R      5.609619070981039E-07
RMS Density                                R      2.935107635683036E-09
External E-field                           R   N=          35
  0.00000000E+00  0.00000000E+00  0.00000000E+00  0.00000000E+00  0.00000000E+00
  0.00000000E+00  0.00000000E+00  0.00000000E+00  0.00000000E+00  0.00000000E+00
  0.00000000E+00  0.00000000E+00  0.00000000E+00  0.00000000E+00  0.00000000E+00
  0.00000000E+00  0.00000000E+00  0.00000000E+00  0.00000000E+00  0.00000000E+00
  0.00000000E+00  0.00000000E+00  0.00000000E+00  0.00000000E+00  0.00000000E+00
  0.00000000E+00  0.00000000E+00  0.00000000E+00  0.00000000E+00  0.00000000E+00
  0.00000000E+00  0.00000000E+00  0.00000000E+00  0.00000000E+00  0.00000000E+00
IOpCl                                      I                0
IROHF                                      I                0
Alpha Orbital Energies                     R   N=         230
 -1.17714051E+03 -1.80848004E+02 -1.69654525E+02 -1.69653682E+02 -1.69653681E+02
 -3.79019400E+01 -3.30898798E+01 -3.30859430E+01 -3.30859289E+01 -2.42739495E+01
 -2.42726178E+01 -2.42725933E+01 -2.42689265E+01 -2.42689256E+01 -1.12959136E+01
 -1.12587244E+01 -1.12464300E+01 -1.12463495E+01 -1.12454296E+01 -1.12450500E+01
 -1.12439623E+01 -7.21889693E+00 -5.45169941E+00 -5.44155879E+00 -5.44151651E+00
 -2.37495114E+00 -2.37012796E+00 -2.37008116E+00 -2.35862625E+00 -2.35862206E+00
 -1.16503576E+00 -1.06607125E+00 -1.02291978E+00 -9.57987167E-01 -8.37943309E-01
 -8.26062212E-01 -7.84996570E-01 -7.03744325E-01 -6.55649372E-01 -6.49069169E-01
 -5.96707119E-01 -5.91395113E-01 -5.78695076E-01 -5.28592627E-01 -5.07090396E-01
 -5.00663575E-01 -4.58936478E-01 -3.62731153E-01 -3.60442207E-01 -3.42951161E-01
 -3.27055494E-01  7.63276687E-02  1.20271160E-01  1.33915251E-01  1.53137318E-01
  1.73170979E-01  1.81034465E-01  2.03935660E-01  2.06559493E-01  2.39269416E-01
  2.42323503E-01  3.13890005E-01  3.36542073E-01  3.38422716E-01  3.40216142E-01
  3.52408385E-01  3.90818492E-01  4.13817195E-01  4.33655980E-01  4.33769320E-01
  4.58440172E-01  4.66434043E-01  4.81247326E-01  5.27282754E-01  5.33670881E-01
  5.68187924E-01  5.75151205E-01  5.86741656E-01  5.93264500E-01  5.93562913E-01
  6.12218792E-01  6.27216601E-01  6.30347709E-01  6.45003446E-01  6.57527610E-01
  6.67634800E-01  6.73118347E-01  7.14719009E-01  7.45983121E-01  7.72930596E-01
  7.87205710E-01  7.92049490E-01  8.04729081E-01  8.20255665E-01  8.20509430E-01
  8.21734701E-01  8.33883075E-01  8.59567705E-01  8.62451543E-01  8.86055615E-01
  9.28993725E-01  9.39422629E-01  9.60283834E-01  1.01265806E+00  1.02009807E+00
  1.05265174E+00  1.06114286E+00  1.11074182E+00  1.13346377E+00  1.18381329E+00
  1.20167064E+00  1.20219992E+00  1.23895016E+00  1.24373003E+00  1.29834616E+00
  1.31464797E+00  1.37327504E+00  1.37637064E+00  1.45059732E+00  1.53873096E+00
  1.55927020E+00  1.59414393E+00  1.59657241E+00  1.63240264E+00  1.66350249E+00
  1.68545711E+00  1.70960754E+00  1.73216513E+00  1.76785048E+00  1.79538445E+00
  1.80620151E+00  1.82077751E+00  1.82110802E+00  1.83029559E+00  1.85918065E+00
  1.90182506E+00  1.91006439E+00  1.94895070E+00  1.97453774E+00  1.97595464E+00