
    -----------------------------------------------------------------------
          Psi4: An Open-Source Ab Initio Electronic Structure Package
                               Psi4 1.3.2 release

                         Git: Rev {HEAD} ecbda83 


    R. M. Parrish, L. A. Burns, D. G. A. Smith, A. C. Simmonett,
    A. E. DePrince III, E. G. Hohenstein, U. Bozkaya, A. Yu. Sokolov,
    R. Di Remigio, R. M. Richard, J. F. Gonthier, A. M. James,
    H. R. McAlexander, A. Kumar, M. Saitow, X. Wang, B. P. Pritchard,
    P. Verma, H. F. Schaefer III, K. Patkowski, R. A. King, E. F. Valeev,
    F. A. Evangelista, J. M. Turney, T. D. Crawford, and C. D. Sherrill,
    J. Chem. Theory Comput. 13(7) pp 3185--3197 (2017).
    (doi: 10.1021/acs.jctc.7b00174)


                         Additional Contributions by
    P. Kraus, H. Kruse, M. H. Lechner, M. C. Schieber, R. A. Shaw,
    A. Alenaizan, R. Galvelis, Z. L. Glick, S. Lehtola, and J. P. Misiewicz

    -----------------------------------------------------------------------


    Psi4 started on: Sunday, 08 November 2020 09:16PM

    Process ID: 110418
    Host:       node59.bme.utexas.edu
    PSIDATADIR: /home/xy3866/psi4conda/share/psi4
    Memory:     500.0 MiB
    Threads:    8
    
  ==> Input File <==

--------------------------------------------------------------------------
#psi4
#
memory 32 gb

molecule  {
0 1
  C        0.2607240     1.2023270    -0.0000750
  C       -1.1358940     1.2178730     0.0000410
  C       -1.8563260     0.0234010    -0.0000200
  C       -1.1685880    -1.1938670     0.0000370
  C        0.2242660    -1.2218040    -0.0000490
  C        0.9375920    -0.0198080     0.0000210
  O        2.3096620    -0.1122440    -0.0000150
  H        0.8193600     2.1376290    -0.0000120
  H       -1.6578293     2.1717654    -0.3000430
  H       -2.9427200     0.0394300     0.0001070
  H       -1.7202150    -2.1309040    -0.0000080
  H        0.7759750    -2.1575980     0.0000070
  H        2.6774850     0.7888930     0.0003320
units angstrom
no_reorient  #important for SAPT in psi4, default
symmetry c1  #important for SAPT in psi4, default
}

set PROPERTIES_ORIGIN ["COM"]
properties('MP2/aug-cc-pvtz', properties = ['dipole'])
--------------------------------------------------------------------------

  Memory set to  29.802 GiB by Python driver.
    SCF Algorithm Type (re)set to DF.

*** tstart() called on node59.bme.utexas.edu
*** at Sun Nov  8 21:16:28 2020

   => Loading Basis Set <=

    Name: AUG-CC-PVTZ
    Role: ORBITAL
    Keyword: BASIS
    atoms 1-6  entry C          line   235 file /home/xy3866/psi4conda/share/psi4/basis/aug-cc-pvtz.gbs 
    atoms 7    entry O          line   327 file /home/xy3866/psi4conda/share/psi4/basis/aug-cc-pvtz.gbs 
    atoms 8-13 entry H          line    36 file /home/xy3866/psi4conda/share/psi4/basis/aug-cc-pvtz.gbs 


         ---------------------------------------------------------
                                   SCF
               by Justin Turney, Rob Parrish, Andy Simmonett
                          and Daniel G. A. Smith
                              RHF Reference
                        8 Threads,  30517 MiB Core
         ---------------------------------------------------------

  ==> Geometry <==

    Molecular point group: c1
    Full point group: C1

    Geometry (in Angstrom), charge = 0, multiplicity = 1:

       Center              X                  Y                   Z               Mass       
    ------------   -----------------  -----------------  -----------------  -----------------
         C            0.239242450650     1.211280551276     0.003144219834    12.000000000000
         C           -1.157375549350     1.226826551276     0.003260219834    12.000000000000
         C           -1.877807549350     0.032354551276     0.003199219834    12.000000000000
         C           -1.190069549350    -1.184913448724     0.003256219834    12.000000000000
         C            0.202784450650    -1.212850448724     0.003170219834    12.000000000000
         C            0.916110450650    -0.010854448724     0.003240219834    12.000000000000
         O            2.288180450650    -0.103290448724     0.003204219834    15.994914619570
         H            0.797878450650     2.146582551276     0.003207219834     1.007825032230
         H           -1.679310849350     2.180718951276    -0.296823780166     1.007825032230
         H           -2.964201549350     0.048383551276     0.003326219834     1.007825032230
         H           -1.741696549350    -2.121950448724     0.003211219834     1.007825032230
         H            0.754493450650    -2.148644448724     0.003226219834     1.007825032230
         H            2.656003450650     0.797846551276     0.003551219834     1.007825032230

  Running in c1 symmetry.

  Rotational constants: A =      0.18800  B =      0.08708  C =      0.05955 [cm^-1]
  Rotational constants: A =   5636.01201  B =   2610.59681  C =   1785.22475 [MHz]
  Nuclear repulsion =  270.477840477358825

  Charge       = 0
  Multiplicity = 1
  Electrons    = 50
  Nalpha       = 25
  Nbeta        = 25

  ==> Algorithm <==

  SCF Algorithm Type is DF.
  DIIS enabled.
  MOM disabled.
  Fractional occupation disabled.
  Guess Type is SAD.
  Energy threshold   = 1.00e-10
  Density threshold  = 1.00e-10
  Integral threshold = 0.00e+00

  ==> Primary Basis <==

  Basis Set: AUG-CC-PVTZ
    Blend: AUG-CC-PVTZ
    Number of shells: 152
    Number of basis function: 460
    Number of Cartesian functions: 535
    Spherical Harmonics?: true
    Max angular momentum: 3

   => Loading Basis Set <=

    Name: (AUG-CC-PVTZ AUX)
    Role: JKFIT
    Keyword: DF_BASIS_SCF
    atoms 1-6  entry C          line   162 file /home/xy3866/psi4conda/share/psi4/basis/aug-cc-pvtz-jkfit.gbs 
    atoms 7    entry O          line   286 file /home/xy3866/psi4conda/share/psi4/basis/aug-cc-pvtz-jkfit.gbs 
    atoms 8-13 entry H          line    70 file /home/xy3866/psi4conda/share/psi4/basis/aug-cc-pvtz-jkfit.gbs 

  ==> Pre-Iterations <==

   -------------------------------------------------------
    Irrep   Nso     Nmo     Nalpha   Nbeta   Ndocc  Nsocc
   -------------------------------------------------------
     A        460     460       0       0       0       0
   -------------------------------------------------------
    Total     460     460      25      25      25       0
   -------------------------------------------------------

  ==> Integral Setup <==

  DFHelper Memory: AOs need 1.611 GiB; user supplied 22.352 GiB. Using in-core AOs.

  ==> MemDFJK: Density-Fitted J/K Matrices <==

    J tasked:                   Yes
    K tasked:                   Yes
    wK tasked:                   No
    OpenMP threads:               8
    Memory [MiB]:             22888
    Algorithm:                 Core
    Schwarz Cutoff:           1E-12
    Mask sparsity (%):       2.1749
    Fitting Condition:        1E-10

   => Auxiliary Basis Set <=

  Basis Set: (AUG-CC-PVTZ AUX)
    Blend: AUG-CC-PVTZ-JKFIT
    Number of shells: 294
    Number of basis function: 1004
    Number of Cartesian functions: 1247
    Spherical Harmonics?: true
    Max angular momentum: 4

  Minimum eigenvalue in the overlap matrix is 1.3829232534E-06.
  Using Symmetric Orthogonalization.

  SCF Guess: Superposition of Atomic Densities via on-the-fly atomic UHF.

  ==> Iterations <==

                           Total Energy        Delta E     RMS |[F,P]|

   @DF-RHF iter SAD:  -304.98198093627099   -3.04982e+02   0.00000e+00 
   @DF-RHF iter   1:  -305.45219025693712   -4.70209e-01   1.33149e-03 DIIS
   @DF-RHF iter   2:  -305.62169539696754   -1.69505e-01   6.47171e-04 DIIS
   @DF-RHF iter   3:  -305.66182994940687   -4.01346e-02   1.04808e-04 DIIS
   @DF-RHF iter   4:  -305.66376032435562   -1.93037e-03   3.41712e-05 DIIS
   @DF-RHF iter   5:  -305.66390484684007   -1.44522e-04   1.00044e-05 DIIS
   @DF-RHF iter   6:  -305.66392305427416   -1.82074e-05   2.97738e-06 DIIS
   @DF-RHF iter   7:  -305.66392515526275   -2.10099e-06   9.45522e-07 DIIS
   @DF-RHF iter   8:  -305.66392541948653   -2.64224e-07   3.66652e-07 DIIS
   @DF-RHF iter   9:  -305.66392545847913   -3.89926e-08   1.17838e-07 DIIS
   @DF-RHF iter  10:  -305.66392546398197   -5.50284e-09   6.04073e-08 DIIS
   @DF-RHF iter  11:  -305.66392546603186   -2.04989e-09   3.15955e-08 DIIS
   @DF-RHF iter  12:  -305.66392546662809   -5.96231e-10   1.10834e-08 DIIS
   @DF-RHF iter  13:  -305.66392546669533   -6.72458e-11   3.51406e-09 DIIS
   @DF-RHF iter  14:  -305.66392546670022   -4.88853e-12   1.00079e-09 DIIS
   @DF-RHF iter  15:  -305.66392546670096   -7.38964e-13   3.00407e-10 DIIS
   @DF-RHF iter  16:  -305.66392546669954    1.42109e-12   1.39726e-10 DIIS
   @DF-RHF iter  17:  -305.66392546669960   -5.68434e-14   8.47918e-11 DIIS
  Energy and wave function converged.


  ==> Post-Iterations <==

    Orbital Energies [Eh]
    ---------------------

    Doubly Occupied:                                                      

       1A    -20.593773     2A    -11.306427     3A    -11.249038  
       4A    -11.243761     5A    -11.238263     6A    -11.231993  
       7A    -11.231067     8A     -1.402370     9A     -1.147546  
      10A     -1.020125    11A     -1.005209    12A     -0.845848  
      13A     -0.820845    14A     -0.729948    15A     -0.684786  
      16A     -0.651125    17A     -0.607566    18A     -0.591834  
      19A     -0.587406    20A     -0.570171    21A     -0.517674  
      22A     -0.498347    23A     -0.478468    24A     -0.343516  
      25A     -0.317354  

    Virtual:                                                              

      26A      0.026762    27A      0.032887    28A      0.036524  
      29A      0.047969    30A      0.050342    31A      0.063460  
      32A      0.088025    33A      0.096655    34A      0.098749  
      35A      0.105390    36A      0.107976    37A      0.109818  
      38A      0.118919    39A      0.120262    40A      0.121055  
      41A      0.129186    42A      0.131832    43A      0.137109  
      44A      0.138693    45A      0.144050    46A      0.153610  
      47A      0.157111    48A      0.158178    49A      0.159030  
      50A      0.164946    51A      0.168123    52A      0.209888  
      53A      0.214831    54A      0.225682    55A      0.232773  
      56A      0.240877    57A      0.247727    58A      0.251472  
      59A      0.253498    60A      0.272140    61A      0.279626  
      62A      0.284429    63A      0.287558    64A      0.297663  
      65A      0.304222    66A      0.313122    67A      0.313874  
      68A      0.314445    69A      0.322716    70A      0.326976  
      71A      0.334654    72A      0.339596    73A      0.349393  
      74A      0.353100    75A      0.368186    76A      0.375959  
      77A      0.379565    78A      0.391513    79A      0.397397  
      80A      0.409408    81A      0.420146    82A      0.427082  
      83A      0.434209    84A      0.439225    85A      0.442998  
      86A      0.448006    87A      0.450279    88A      0.463332  
      89A      0.466195    90A      0.470116    91A      0.475727  
      92A      0.480651    93A      0.482998    94A      0.487248  
      95A      0.494438    96A      0.507263    97A      0.511679  
      98A      0.521267    99A      0.522881   100A      0.529329  
     101A      0.535827   102A      0.543912   103A      0.544930  
     104A      0.551395   105A      0.563956   106A      0.574913  
     107A      0.591824   108A      0.604971   109A      0.622626  
     110A      0.637659   111A      0.638879   112A      0.646390  
     113A      0.658816   114A      0.667885   115A      0.671926  
     116A      0.676837   117A      0.701431   118A      0.703744  
     119A      0.707818   120A      0.714432   121A      0.740939  
     122A      0.742914   123A      0.756112   124A      0.761976  
     125A      0.783473   126A      0.789858   127A      0.796074  
     128A      0.799986   129A      0.820836   130A      0.833516  
     131A      0.842540   132A      0.847036   133A      0.855292  
     134A      0.858343   135A      0.864836   136A      0.870600  
     137A      0.874819   138A      0.875860   139A      0.881945  
     140A      0.889087   141A      0.896849   142A      0.908401  
     143A      0.924673   144A      0.927202   145A      0.948141  
     146A      0.959832   147A      0.964850   148A      0.967970  
     149A      0.972180   150A      0.979355   151A      0.991755  
     152A      0.993745   153A      1.007671   154A      1.023368  
     155A      1.024530   156A      1.029972   157A      1.038011  
     158A      1.046116   159A      1.050572   160A      1.058335  
     161A      1.063158   162A      1.072785   163A      1.080086  
     164A      1.086989   165A      1.094050   166A      1.101574  
     167A      1.109043   168A      1.121658   169A      1.125527  
     170A      1.132883   171A      1.141091   172A      1.157330  
     173A      1.168818   174A      1.181031   175A      1.184758  
     176A      1.187099   177A      1.195125   178A      1.207304  
     179A      1.211206   180A      1.214929   181A      1.233190  
     182A      1.235129   183A      1.245564   184A      1.260633  
     185A      1.263680   186A      1.275933   187A      1.286002  
     188A      1.298413   189A      1.312392   190A      1.318958  
     191A      1.344060   192A      1.353680   193A      1.370832  
     194A      1.381303   195A      1.392290   196A      1.411913  
     197A      1.422441   198A      1.439991   199A      1.451010  
     200A      1.462670   201A      1.479120   202A      1.497538  
     203A      1.498567   204A      1.508462   205A      1.520018  
     206A      1.524368   207A      1.541542   208A      1.554741  
     209A      1.580875   210A      1.586284   211A      1.651571  
     212A      1.667557   213A      1.668711   214A      1.674983  
     215A      1.700411   216A      1.704360   217A      1.729377  
     218A      1.734646   219A      1.751658   220A      1.763018  
     221A      1.769125   222A      1.794447   223A      1.805759  
     224A      1.811207   225A      1.827915   226A      1.835843  
     227A      1.837510   228A      1.848117   229A      1.863346  
     230A      1.872979   231A      1.885146   232A      1.887020  
     233A      1.913880   234A      1.921932   235A      1.949625  
     236A      1.961914   237A      1.966567   238A      1.992725  
     239A      1.997957   240A      2.002479   241A      2.021451  
     242A      2.035239   243A      2.047599   244A      2.052621  
     245A      2.064528   246A      2.067326   247A      2.085884  
     248A      2.095950   249A      2.112303   250A      2.125634  
     251A      2.152589   252A      2.156874   253A      2.178261  
     254A      2.212315   255A      2.232704   256A      2.247306  
     257A      2.254541   258A      2.289903   259A      2.293533  
     260A      2.341851   261A      2.352754   262A      2.359851  
     263A      2.369883   264A      2.386187   265A      2.438560  
     266A      2.442662   267A      2.459210   268A      2.475864  
     269A      2.494122   270A      2.520680   271A      2.551398  
     272A      2.569126   273A      2.573919   274A      2.596556  
     275A      2.627482   276A      2.633855   277A      2.693907  
     278A      2.703287   279A      2.725559   280A      2.761199  
     281A      2.765575   282A      2.798794   283A      2.837233  
     284A      2.865081   285A      2.878480   286A      2.904997  
     287A      2.922980   288A      2.961812   289A      3.034293  
     290A      3.068473   291A      3.113705   292A      3.151591  
     293A      3.180567   294A      3.191555   295A      3.211718  
     296A      3.228426   297A      3.250382   298A      3.266006  
     299A      3.283989   300A      3.309448   301A      3.318904  
     302A      3.346733   303A      3.362474   304A      3.385010  
     305A      3.387782   306A      3.399371   307A      3.412172  
     308A      3.444284   309A      3.455922   310A      3.462296  
     311A      3.490956   312A      3.500035   313A      3.519824  
     314A      3.544937   315A      3.556345   316A      3.563240  
     317A      3.572141   318A      3.581854   319A      3.611935  
     320A      3.612912   321A      3.644561   322A      3.655102  
     323A      3.679241   324A      3.696130   325A      3.718343  
     326A      3.731580   327A      3.747610   328A      3.799024  
     329A      3.812854   330A      3.822926   331A      3.842217  
     332A      3.852634   333A      3.858782   334A      3.874307  
     335A      3.878188   336A      3.894145   337A      3.900688  
     338A      3.930249   339A      3.948101   340A      3.950742  
     341A      3.970511   342A      4.005527   343A      4.014542  
     344A      4.025776   345A      4.045529   346A      4.071128  
     347A      4.083680   348A      4.096098   349A      4.118317  
     350A      4.125140   351A      4.138039   352A      4.175134  
     353A      4.187563   354A      4.191761   355A      4.200132  
     356A      4.227427   357A      4.262926   358A      4.273959  
     359A      4.286663   360A      4.300955   361A      4.313905  
     362A      4.344444   363A      4.353148   364A      4.363078  
     365A      4.368196   366A      4.384573   367A      4.399059  
     368A      4.411841   369A      4.422220   370A      4.433355  
     371A      4.451210   372A      4.465236   373A      4.478972  
     374A      4.505919   375A      4.514576   376A      4.539345  
     377A      4.565049   378A      4.573814   379A      4.651023  
     380A      4.678704   381A      4.710498   382A      4.715343  
     383A      4.725298   384A      4.745032   385A      4.762221  
     386A      4.801109   387A      4.836664   388A      4.854918  
     389A      4.876224   390A      4.911012   391A      4.924980  
     392A      4.964136   393A      4.975659   394A      5.011312  
     395A      5.024261   396A      5.058674   397A      5.063683  
     398A      5.099256   399A      5.103685   400A      5.116298  
     401A      5.134130   402A      5.144583   403A      5.159463  
     404A      5.173111   405A      5.203395   406A      5.232664  
     407A      5.251925   408A      5.263554   409A      5.272770  
     410A      5.296108   411A      5.308902   412A      5.317057  
     413A      5.348788   414A      5.369594   415A      5.426055  
     416A      5.432629   417A      5.501439   418A      5.557465  
     419A      5.591537   420A      5.651629   421A      5.718864  
     422A      5.745362   423A      5.760299   424A      5.814824  
     425A      5.824523   426A      5.982015   427A      6.085831  
     428A      6.114923   429A      6.173119   430A      6.215201  
     431A      6.256574   432A      6.302308   433A      6.382491  
     434A      6.406668   435A      6.573598   436A      6.652859  
     437A      6.750895   438A      6.792824   439A      6.875454  
     440A      6.891550   441A      6.985051   442A      7.018620  
     443A      7.029090   444A      7.217945   445A      7.251673  
     446A      7.417143   447A      7.433540   448A      7.639149  
     449A      7.657815   450A      7.725684   451A      7.975339  
     452A      8.355716   453A      8.606137   454A     15.874667  
     455A     15.983416   456A     16.365554   457A     17.547402  
     458A     19.130486   459A     19.249949   460A     19.535318  

    Final Occupation by Irrep:
              A 
    DOCC [    25 ]

  @DF-RHF Final Energy:  -305.66392546669960

   => Energetics <=

    Nuclear Repulsion Energy =            270.4778404773588250
    One-Electron Energy =                -950.4546063711364923
    Two-Electron Energy =                 374.3128404270780152
    Total Energy =                       -305.6639254666995953

Computation Completed

*** tstop() called on node59.bme.utexas.edu at Sun Nov  8 21:16:39 2020
Module time:
	user time   =      74.60 seconds =       1.24 minutes
	system time =       2.45 seconds =       0.04 minutes
	total time  =         11 seconds =       0.18 minutes
Total time:
	user time   =      74.60 seconds =       1.24 minutes
	system time =       2.45 seconds =       0.04 minutes
	total time  =         11 seconds =       0.18 minutes
   => Loading Basis Set <=

    Name: (AUG-CC-PVTZ AUX)
    Role: RIFIT
    Keyword: DF_BASIS_MP2
    atoms 1-6  entry C          line   148 file /home/xy3866/psi4conda/share/psi4/basis/aug-cc-pvtz-ri.gbs 
    atoms 7    entry O          line   264 file /home/xy3866/psi4conda/share/psi4/basis/aug-cc-pvtz-ri.gbs 
    atoms 8-13 entry H          line    30 file /home/xy3866/psi4conda/share/psi4/basis/aug-cc-pvtz-ri.gbs 


*** tstart() called on node59.bme.utexas.edu
*** at Sun Nov  8 21:16:39 2020


  //>>>>>>>>>>>>>>>>>>>>>>>>>>>>>>>>>>>//
  //               DFMP2               //
  //<<<<<<<<<<<<<<<<<<<<<<<<<<<<<<<<<<<//

	 --------------------------------------------------------
	                          DF-MP2                         
	      2nd-Order Density-Fitted Moller-Plesset Theory     
	              RMP2 Wavefunction,   8 Threads             
	                                                         
	        Rob Parrish, Justin Turney, Andy Simmonett,      
	           Ed Hohenstein, and C. David Sherrill          
	 --------------------------------------------------------

   => Auxiliary Basis Set <=

  Basis Set: (AUG-CC-PVTZ AUX)
    Blend: AUG-CC-PVTZ-RI
    Number of shells: 280
    Number of basis function: 1018
    Number of Cartesian functions: 1282
    Spherical Harmonics?: true
    Max angular momentum: 4

	 --------------------------------------------------------
	                 NBF =   460, NAUX =  1018
	 --------------------------------------------------------
	   CLASS    FOCC     OCC    AOCC    AVIR     VIR    FVIR
	   PAIRS       0      25      25     435     435       0
	 --------------------------------------------------------

  DFHelper Memory: AOs need 1.611 GiB; user supplied 22.352 GiB. Using in-core AOs.


         ------------------------------------------------------------
                                     CPHF                           
                                  Rob Parrish                       
         ------------------------------------------------------------

  ==> Geometry <==

    Molecular point group: c1
    Full point group: C1

    Geometry (in Angstrom), charge = 0, multiplicity = 1:

       Center              X                  Y                   Z               Mass       
    ------------   -----------------  -----------------  -----------------  -----------------
         C            0.239242450650     1.211280551276     0.003144219834    12.000000000000
         C           -1.157375549350     1.226826551276     0.003260219834    12.000000000000
         C           -1.877807549350     0.032354551276     0.003199219834    12.000000000000
         C           -1.190069549350    -1.184913448724     0.003256219834    12.000000000000
         C            0.202784450650    -1.212850448724     0.003170219834    12.000000000000
         C            0.916110450650    -0.010854448724     0.003240219834    12.000000000000
         O            2.288180450650    -0.103290448724     0.003204219834    15.994914619570
         H            0.797878450650     2.146582551276     0.003207219834     1.007825032230
         H           -1.679310849350     2.180718951276    -0.296823780166     1.007825032230
         H           -2.964201549350     0.048383551276     0.003326219834     1.007825032230
         H           -1.741696549350    -2.121950448724     0.003211219834     1.007825032230
         H            0.754493450650    -2.148644448724     0.003226219834     1.007825032230
         H            2.656003450650     0.797846551276     0.003551219834     1.007825032230

  Nuclear repulsion =  270.477840477358825
  Reference energy  = -305.663925466699595

  ==> Basis Set <==

  Basis Set: AUG-CC-PVTZ
    Blend: AUG-CC-PVTZ
    Number of shells: 152
    Number of basis function: 460
    Number of Cartesian functions: 535
    Spherical Harmonics?: true
    Max angular momentum: 3

  ==> CGRSolver (by Rob Parrish) <==

   Number of roots    =         1
   Preconditioning    =    JACOBI
   Convergence cutoff =     1E-06
   Maximum iterations =       100

  ==> CPHFRHamiltonian (by Rob Parrish) <== 

  ==> MemDFJK: Density-Fitted J/K Matrices <==

    J tasked:                   Yes
    K tasked:                   Yes
    wK tasked:                   No
    OpenMP threads:               8
    Memory [MiB]:             22888
    Algorithm:                 Core
    Schwarz Cutoff:           1E-12
    Mask sparsity (%):       2.1749
    Fitting Condition:        1E-10

   => Auxiliary Basis Set <=

  Basis Set: (AUG-CC-PVTZ AUX)
    Blend: AUG-CC-PVTZ-JKFIT
    Number of shells: 294
    Number of basis function: 1004
    Number of Cartesian functions: 1247
    Spherical Harmonics?: true
    Max angular momentum: 4

  ==> CPHF Iterations <==

  => Iterations <=

             Iter  Converged  Remaining    Residual
  CGR           1          0          1   8.767E-02
  CGR           2          0          1   2.596E-02
  CGR           3          0          1   1.683E-02
  CGR           4          0          1   6.939E-03
  CGR           5          0          1   2.453E-03
  CGR           6          0          1   9.183E-04
  CGR           7          0          1   3.307E-04
  CGR           8          0          1   8.029E-05
  CGR           9          0          1   2.514E-05
  CGR          10          0          1   8.554E-06
  CGR          11          0          1   2.883E-06
  CGR          12          0          1   1.398E-06
  CGR          13          1          0   7.367E-07

    CGRSolver converged.

	-----------------------------------------------------------
	 ==================> DF-MP2 Energies <==================== 
	-----------------------------------------------------------
	 Reference Energy          =    -305.6639254666995953 [Eh]
	 Singles Energy            =      -0.0000000000000000 [Eh]
	 Same-Spin Energy          =      -0.3257991410618376 [Eh]
	 Opposite-Spin Energy      =      -1.0078648317649734 [Eh]
	 Correlation Energy        =      -1.3336639728268112 [Eh]
	 Total Energy              =    -306.9975894395263936 [Eh]
	-----------------------------------------------------------
	 ================> DF-SCS-MP2 Energies <================== 
	-----------------------------------------------------------
	 SCS Same-Spin Scale       =       0.3333333333333333 [-]
	 SCS Opposite-Spin Scale   =       1.2000000000000000 [-]
	 SCS Same-Spin Energy      =      -0.1085997136872792 [Eh]
	 SCS Opposite-Spin Energy  =      -1.2094377981179680 [Eh]
	 SCS Correlation Energy    =      -1.3180375118052472 [Eh]
	 SCS Total Energy          =    -306.9819629785048392 [Eh]
	-----------------------------------------------------------



Properties will be evaluated at  -0.000000,  -0.000000,  -0.000000 [a0]

Properties computed using the MP2 density matrix

  Nuclear Dipole Moment: [e a0]
     X:    -2.0297      Y:     0.8460      Z:    -0.2628

  Electronic Dipole Moment: [e a0]
     X:     2.0114      Y:    -0.3684      Z:     0.1904

  Dipole Moment: [e a0]
     X:    -0.0183      Y:     0.4775      Z:    -0.0724     Total:     0.4833

  Dipole Moment: [D]
     X:    -0.0465      Y:     1.2138      Z:    -0.1839     Total:     1.2285


*** tstop() called on node59.bme.utexas.edu at Sun Nov  8 21:17:15 2020
Module time:
	user time   =     243.92 seconds =       4.07 minutes
	system time =       6.11 seconds =       0.10 minutes
	total time  =         36 seconds =       0.60 minutes
Total time:
	user time   =     319.49 seconds =       5.32 minutes
	system time =       8.63 seconds =       0.14 minutes
	total time  =         47 seconds =       0.78 minutes

    Psi4 stopped on: Sunday, 08 November 2020 09:17PM
    Psi4 wall time for execution: 0:00:47.43

*** Psi4 exiting successfully. Buy a developer a beer!
