opt=Tight                                                               
Freq      RMP2-FC                                                     6-31G(d)            
Number of atoms                            I               12
Info1-9                                    I   N=           9
          21          21        1002           0           0         100
           6           2           1
Charge                                     I               -2
Multiplicity                               I                1
Number of electrons                        I               66
Number of alpha electrons                  I               33
Number of beta electrons                   I               33
Number of basis functions                  I              119
Number of independent functions            I              119
Number of point charges in /Mol/           I                0
Number of translation vectors              I                0
Atomic numbers                             I   N=          12
          15           8           8           8           8           6
           6           1           1           1           1           1
Nuclear charges                            R   N=          12
  1.50000000E+01  8.00000000E+00  8.00000000E+00  8.00000000E+00  8.00000000E+00
  6.00000000E+00  6.00000000E+00  1.00000000E+00  1.00000000E+00  1.00000000E+00
  1.00000000E+00  1.00000000E+00
Current cartesian coordinates              R   N=          36
  1.84799878E+00 -1.35547728E-02  6.86123188E-03 -1.21216100E+00  1.11406088E+00
 -1.14964332E-01  3.33792339E+00  2.47742847E+00 -5.17257723E-02  2.11713405E+00
 -1.67073084E+00 -2.36913689E+00  1.98661985E+00 -1.47283706E+00  2.52063605E+00
 -3.10733725E+00 -7.79966233E-01 -6.02199526E-03 -5.68411691E+00  4.80007626E-01
 -2.84645583E-03 -2.93718743E+00 -2.06413213E+00 -1.63008538E+00 -2.86691491E+00
 -1.92915359E+00  1.70515127E+00 -7.19735643E+00 -9.28523719E-01  9.24615894E-02
 -5.86292377E+00  1.74135125E+00  1.62446890E+00 -5.94300459E+00  1.60015980E+00
 -1.72017666E+00
Force Field                                I                0
Int Atom Types                             I   N=          12
           0           0           0           0           0           0
           0           0           0           0           0           0
MM charges                                 R   N=          12
  0.00000000E+00  0.00000000E+00  0.00000000E+00  0.00000000E+00  0.00000000E+00
  0.00000000E+00  0.00000000E+00  0.00000000E+00  0.00000000E+00  0.00000000E+00
  0.00000000E+00  0.00000000E+00
Integer atomic weights                     I   N=          12
          31          16          16          16          16          12
          12           1           1           1           1           1
Real atomic weights                        R   N=          12
  3.09737634E+01  1.59949146E+01  1.59949146E+01  1.59949146E+01  1.59949146E+01
  1.20000000E+01  1.20000000E+01  1.00782504E+00  1.00782504E+00  1.00782504E+00
  1.00782504E+00  1.00782504E+00
Atom fragment info                         I   N=          12
           0           0           0           0           0           0
           0           0           0           0           0           0
Atom residue num                           I   N=          12
           0           0           0           0           0           0
           0           0           0           0           0           0
Nuclear spins                              I   N=          12
           1           0           0           0           0           0
           0           1           1           1           1           1
Nuclear ZEff                               R   N=          12
 -1.29400000E+01 -5.60000000E+00 -5.60000000E+00 -5.60000000E+00 -5.60000000E+00
 -3.60000000E+00 -3.60000000E+00 -1.00000000E+00 -1.00000000E+00 -1.00000000E+00
 -1.00000000E+00 -1.00000000E+00
Nuclear QMom                               R   N=          12
  0.00000000E+00  0.00000000E+00  0.00000000E+00  0.00000000E+00  0.00000000E+00
  0.00000000E+00  0.00000000E+00  0.00000000E+00  0.00000000E+00  0.00000000E+00
  0.00000000E+00  0.00000000E+00
Nuclear GFac                               R   N=          12
  1.13160000E+00  0.00000000E+00  0.00000000E+00  0.00000000E+00  0.00000000E+00
  0.00000000E+00  0.00000000E+00  2.79284600E+00  2.79284600E+00  2.79284600E+00
  2.79284600E+00  2.79284600E+00
MicOpt                                     I   N=          12
          -1          -1          -1          -1          -1          -1
          -1          -1          -1          -1          -1          -1
Number of contracted shells                I               39
Number of primitive shells                 I              103
Pure/Cartesian d shells                    I                1
Pure/Cartesian f shells                    I                0
Highest angular momentum                   I                2
Largest degree of contraction              I                6
Shell types                                I   N=          39
           0          -1          -1          -1           2           0
          -1          -1           2           0          -1          -1
           2           0          -1          -1           2           0
          -1          -1           2           0          -1          -1
           2           0          -1          -1           2           0
           0           0           0           0           0           0
           0           0           0
Number of primitives per shell             I   N=          39
           6           6           3           1           1           6
           3           1           1           6           3           1
           1           6           3           1           1           6
           3           1           1           6           3           1
           1           6           3           1           1           3
           1           3           1           3           1           3
           1           3           1
Shell to atom map                          I   N=          39
           1           1           1           1           1           2
           2           2           2           3           3           3
           3           4           4           4           4           5
           5           5           5           6           6           6
           6           7           7           7           7           8
           8           9           9          10          10          11
          11          12          12
Primitive exponents                        R   N=         103
  1.94133000E+04  2.90942000E+03  6.61364000E+02  1.85759000E+02  5.91943000E+01
  2.00310000E+01  3.39478000E+02  8.10101000E+01  2.58780000E+01  9.45221000E+00
  3.66566000E+00  1.46746000E+00  2.15623000E+00  7.48997000E-01  2.83145000E-01
  9.98317000E-02  5.50000000E-01  5.48467166E+03  8.25234946E+02  1.88046958E+02
  5.29645000E+01  1.68975704E+01  5.79963534E+00  1.55396162E+01  3.59993359E+00
  1.01376175E+00  2.70005823E-01  8.00000000E-01  5.48467166E+03  8.25234946E+02
  1.88046958E+02  5.29645000E+01  1.68975704E+01  5.79963534E+00  1.55396162E+01
  3.59993359E+00  1.01376175E+00  2.70005823E-01  8.00000000E-01  5.48467166E+03
  8.25234946E+02  1.88046958E+02  5.29645000E+01  1.68975704E+01  5.79963534E+00
  1.55396162E+01  3.59993359E+00  1.01376175E+00  2.70005823E-01  8.00000000E-01
  5.48467166E+03  8.25234946E+02  1.88046958E+02  5.29645000E+01  1.68975704E+01
  5.79963534E+00  1.55396162E+01  3.59993359E+00  1.01376175E+00  2.70005823E-01
  8.00000000E-01  3.04752488E+03  4.57369518E+02  1.03948685E+02  2.92101553E+01
  9.28666296E+00  3.16392696E+00  7.86827235E+00  1.88128854E+00  5.44249258E-01
  1.68714478E-01  8.00000000E-01  3.04752488E+03  4.57369518E+02  1.03948685E+02
  2.92101553E+01  9.28666296E+00  3.16392696E+00  7.86827235E+00  1.88128854E+00
  5.44249258E-01  1.68714478E-01  8.00000000E-01  1.87311370E+01  2.82539436E+00
  6.40121692E-01  1.61277759E-01  1.87311370E+01  2.82539436E+00  6.40121692E-01
  1.61277759E-01  1.87311370E+01  2.82539436E+00  6.40121692E-01  1.61277759E-01
  1.87311370E+01  2.82539436E+00  6.40121692E-01  1.61277759E-01  1.87311370E+01
  2.82539436E+00  6.40121692E-01  1.61277759E-01
Contraction coefficients                   R   N=         103
  1.85159892E-03  1.42061917E-02  6.99994593E-02  2.40078860E-01  4.84761718E-01
  3.35199805E-01 -2.78217010E-03 -3.60499014E-02 -1.16631004E-01  9.68328036E-02
  6.14418023E-01  4.03798015E-01 -2.52924114E-01  3.28518447E-02  1.08125476E+00
  1.00000000E+00  1.00000000E+00  1.83107443E-03  1.39501722E-02  6.84450781E-02
  2.32714336E-01  4.70192898E-01  3.58520853E-01 -1.10777550E-01 -1.48026263E-01
  1.13076702E+00  1.00000000E+00  1.00000000E+00  1.83107443E-03  1.39501722E-02
  6.84450781E-02  2.32714336E-01  4.70192898E-01  3.58520853E-01 -1.10777550E-01
 -1.48026263E-01  1.13076702E+00  1.00000000E+00  1.00000000E+00  1.83107443E-03
  1.39501722E-02  6.84450781E-02  2.32714336E-01  4.70192898E-01  3.58520853E-01
 -1.10777550E-01 -1.48026263E-01  1.13076702E+00  1.00000000E+00  1.00000000E+00
  1.83107443E-03  1.39501722E-02  6.84450781E-02  2.32714336E-01  4.70192898E-01
  3.58520853E-01 -1.10777550E-01 -1.48026263E-01  1.13076702E+00  1.00000000E+00
  1.00000000E+00  1.83473713E-03  1.40373228E-02  6.88426223E-02  2.32184443E-01
  4.67941348E-01  3.62311985E-01 -1.19332420E-01 -1.60854152E-01  1.14345644E+00
  1.00000000E+00  1.00000000E+00  1.83473713E-03  1.40373228E-02  6.88426223E-02
  2.32184443E-01  4.67941348E-01  3.62311985E-01 -1.19332420E-01 -1.60854152E-01
  1.14345644E+00  1.00000000E+00  1.00000000E+00  3.34946043E-02  2.34726953E-01
  8.13757326E-01  1.00000000E+00  3.34946043E-02  2.34726953E-01  8.13757326E-01
  1.00000000E+00  3.34946043E-02  2.34726953E-01  8.13757326E-01  1.00000000E+00
  3.34946043E-02  2.34726953E-01  8.13757326E-01  1.00000000E+00  3.34946043E-02
  2.34726953E-01  8.13757326E-01  1.00000000E+00
P(S=P) Contraction coefficients            R   N=         103
  0.00000000E+00  0.00000000E+00  0.00000000E+00  0.00000000E+00  0.00000000E+00
  0.00000000E+00  4.56461619E-03  3.36935719E-02  1.39754883E-01  3.39361717E-01
  4.50920624E-01  2.38585801E-01 -1.77653127E-02  2.74058196E-01  7.85421563E-01
  1.00000000E+00  0.00000000E+00  0.00000000E+00  0.00000000E+00  0.00000000E+00
  0.00000000E+00  0.00000000E+00  0.00000000E+00  7.08742682E-02  3.39752839E-01
  7.27158577E-01  1.00000000E+00  0.00000000E+00  0.00000000E+00  0.00000000E+00
  0.00000000E+00  0.00000000E+00  0.00000000E+00  0.00000000E+00  7.08742682E-02
  3.39752839E-01  7.27158577E-01  1.00000000E+00  0.00000000E+00  0.00000000E+00
  0.00000000E+00  0.00000000E+00  0.00000000E+00  0.00000000E+00  0.00000000E+00
  7.08742682E-02  3.39752839E-01  7.27158577E-01  1.00000000E+00  0.00000000E+00
  0.00000000E+00  0.00000000E+00  0.00000000E+00  0.00000000E+00  0.00000000E+00
  0.00000000E+00  7.08742682E-02  3.39752839E-01  7.27158577E-01  1.00000000E+00
  0.00000000E+00  0.00000000E+00  0.00000000E+00  0.00000000E+00  0.00000000E+00
  0.00000000E+00  0.00000000E+00  6.89990666E-02  3.16423961E-01  7.44308291E-01
  1.00000000E+00  0.00000000E+00  0.00000000E+00  0.00000000E+00  0.00000000E+00
  0.00000000E+00  0.00000000E+00  0.00000000E+00  6.89990666E-02  3.16423961E-01
  7.44308291E-01  1.00000000E+00  0.00000000E+00  0.00000000E+00  0.00000000E+00
  0.00000000E+00  0.00000000E+00  0.00000000E+00  0.00000000E+00  0.00000000E+00
  0.00000000E+00  0.00000000E+00  0.00000000E+00  0.00000000E+00  0.00000000E+00
  0.00000000E+00  0.00000000E+00  0.00000000E+00  0.00000000E+00  0.00000000E+00
  0.00000000E+00  0.00000000E+00  0.00000000E+00
Coordinates of each shell                  R   N=         117
  1.84799878E+00 -1.35547728E-02  6.86123188E-03  1.84799878E+00 -1.35547728E-02
  6.86123188E-03  1.84799878E+00 -1.35547728E-02  6.86123188E-03  1.84799878E+00
 -1.35547728E-02  6.86123188E-03  1.84799878E+00 -1.35547728E-02  6.86123188E-03
 -1.21216100E+00  1.11406088E+00 -1.14964332E-01 -1.21216100E+00  1.11406088E+00
 -1.14964332E-01 -1.21216100E+00  1.11406088E+00 -1.14964332E-01 -1.21216100E+00
  1.11406088E+00 -1.14964332E-01  3.33792339E+00  2.47742847E+00 -5.17257723E-02
  3.33792339E+00  2.47742847E+00 -5.17257723E-02  3.33792339E+00  2.47742847E+00
 -5.17257723E-02  3.33792339E+00  2.47742847E+00 -5.17257723E-02  2.11713405E+00
 -1.67073084E+00 -2.36913689E+00  2.11713405E+00 -1.67073084E+00 -2.36913689E+00
  2.11713405E+00 -1.67073084E+00 -2.36913689E+00  2.11713405E+00 -1.67073084E+00
 -2.36913689E+00  1.98661985E+00 -1.47283706E+00  2.52063605E+00  1.98661985E+00
 -1.47283706E+00  2.52063605E+00  1.98661985E+00 -1.47283706E+00  2.52063605E+00
  1.98661985E+00 -1.47283706E+00  2.52063605E+00 -3.10733725E+00 -7.79966233E-01
 -6.02199526E-03 -3.10733725E+00 -7.79966233E-01 -6.02199526E-03 -3.10733725E+00
 -7.79966233E-01 -6.02199526E-03 -3.10733725E+00 -7.79966233E-01 -6.02199526E-03
 -5.68411691E+00  4.80007626E-01 -2.84645583E-03 -5.68411691E+00  4.80007626E-01
 -2.84645583E-03 -5.68411691E+00  4.80007626E-01 -2.84645583E-03 -5.68411691E+00
  4.80007626E-01 -2.84645583E-03 -2.93718743E+00 -2.06413213E+00 -1.63008538E+00
 -2.93718743E+00 -2.06413213E+00 -1.63008538E+00 -2.86691491E+00 -1.92915359E+00
  1.70515127E+00 -2.86691491E+00 -1.92915359E+00  1.70515127E+00 -7.19735643E+00
 -9.28523719E-01  9.24615894E-02 -7.19735643E+00 -9.28523719E-01  9.24615894E-02
 -5.86292377E+00  1.74135125E+00  1.62446890E+00 -5.86292377E+00  1.74135125E+00
  1.62446890E+00 -5.94300459E+00  1.60015980E+00 -1.72017666E+00 -5.94300459E+00
  1.60015980E+00 -1.72017666E+00
Constraint Structure                       R   N=          36
  1.84799878E+00 -1.35547728E-02  6.86123188E-03 -1.21216100E+00  1.11406088E+00
 -1.14964332E-01  3.33792339E+00  2.47742847E+00 -5.17257723E-02  2.11713405E+00
 -1.67073084E+00 -2.36913689E+00  1.98661985E+00 -1.47283706E+00  2.52063605E+00
 -3.10733725E+00 -7.79966233E-01 -6.02199526E-03 -5.68411691E+00  4.80007626E-01
 -2.84645583E-03 -2.93718743E+00 -2.06413213E+00 -1.63008538E+00 -2.86691491E+00
 -1.92915359E+00  1.70515127E+00 -7.19735643E+00 -9.28523719E-01  9.24615894E-02
 -5.86292377E+00  1.74135125E+00  1.62446890E+00 -5.94300459E+00  1.60015980E+00
 -1.72017666E+00
Num ILSW                                   I              100
ILSW                                       I   N=         100
           0           1           0           0           2           0
           0           0           0           0           0          -1
           0           0           0           0           0           0
           0           0           0           0           1           0
           1           0           0           0           0           0
           0           0      100000           0          -1           0
           0           0           0           0           0           0
           0           0           0           1           1           0
           0           0           1           0           0           0
           0           0           4          40           0           0
           0           0           0           0           0           0
           0           0           0           0           0           0
           0           0           0           0           0           0
           0           0           0           0           0           0
           0           0           0           0           0           0
           0           0           0           0           0           0
           0           0           0           0
Num RLSW                                   I               40
RLSW                                       R   N=          40
  1.00000000E+00  1.00000000E+00  1.00000000E+00  1.00000000E+00  1.00000000E+00
  0.00000000E+00  0.00000000E+00  1.00000000E+00  0.00000000E+00  0.00000000E+00
  0.00000000E+00  0.00000000E+00  1.00000000E+00  0.00000000E+00  0.00000000E+00
  0.00000000E+00  0.00000000E+00  1.00000000E+00  0.00000000E+00  0.00000000E+00
  0.00000000E+00  0.00000000E+00  1.00000000E+00  0.00000000E+00  0.00000000E+00
  0.00000000E+00  0.00000000E+00  1.00000000E+00  0.00000000E+00  0.00000000E+00
  0.00000000E+00  0.00000000E+00  0.00000000E+00  0.00000000E+00  0.00000000E+00
  0.00000000E+00  0.00000000E+00  0.00000000E+00  1.00000000E+00  1.00000000E+00
MxBond                                     I                4
NBond                                      I   N=          12
           4           2           1           1           1           4
           4           1           1           1           1           1
IBond                                      I   N=          48
           2           3           4           5           1           6
           0           0           1           0           0           0
           1           0           0           0           1           0
           0           0           2           7           8           9
           6          10          11          12           6           0
           0           0           6           0           0           0
           7           0           0           0           7           0
           0           0           7           0           0           0
RBond                                      R   N=          48
  1.00000000E+00  1.00000000E+00  1.00000000E+00  1.00000000E+00  1.00000000E+00
  1.00000000E+00  0.00000000E+00  0.00000000E+00  1.00000000E+00  0.00000000E+00
  0.00000000E+00  0.00000000E+00  1.00000000E+00  0.00000000E+00  0.00000000E+00
  0.00000000E+00  1.00000000E+00  0.00000000E+00  0.00000000E+00  0.00000000E+00
  1.00000000E+00  1.00000000E+00  1.00000000E+00  1.00000000E+00  1.00000000E+00
  1.00000000E+00  1.00000000E+00  1.00000000E+00  1.00000000E+00  0.00000000E+00
  0.00000000E+00  0.00000000E+00  1.00000000E+00  0.00000000E+00  0.00000000E+00
  0.00000000E+00  1.00000000E+00  0.00000000E+00  0.00000000E+00  0.00000000E+00
  1.00000000E+00  0.00000000E+00  0.00000000E+00  0.00000000E+00  1.00000000E+00
  0.00000000E+00  0.00000000E+00  0.00000000E+00
Virial Ratio                               R      2.002335642856238E+00
SCF Energy                                 R     -7.191311335281880E+02
MP2 Energy                                 R     -7.202314410873826E+02
Total Energy                               R     -7.202314410873826E+02
Post-SCF wavefunction norm                 R      1.629903728184024E+00
RMS Force                                  R      2.518964562193553E-05
RMS Density                                R      1.695929823774772E-09
External E-field                           R   N=          35
  0.00000000E+00  0.00000000E+00  0.00000000E+00  0.00000000E+00  0.00000000E+00
  0.00000000E+00  0.00000000E+00  0.00000000E+00  0.00000000E+00  0.00000000E+00
  0.00000000E+00  0.00000000E+00  0.00000000E+00  0.00000000E+00  0.00000000E+00
  0.00000000E+00  0.00000000E+00  0.00000000E+00  0.00000000E+00  0.00000000E+00
  0.00000000E+00  0.00000000E+00  0.00000000E+00  0.00000000E+00  0.00000000E+00
  0.00000000E+00  0.00000000E+00  0.00000000E+00  0.00000000E+00  0.00000000E+00
  0.00000000E+00  0.00000000E+00  0.00000000E+00  0.00000000E+00  0.00000000E+00
IOpCl                                      I                0
IROHF                                      I                0
Alpha Orbital Energies                     R   N=         119
 -7.99821331E+01 -2.05067337E+01 -2.04234587E+01 -2.04232029E+01 -2.04229090E+01
 -1.12457543E+01 -1.12016821E+01 -7.50134887E+00 -5.40075201E+00 -5.39916424E+00
 -5.39896556E+00 -1.31084679E+00 -1.22644534E+00 -1.16104884E+00 -1.16004853E+00
 -9.86555921E-01 -8.09422875E-01 -6.74364054E-01 -6.19308401E-01 -5.78155137E-01
 -5.51499971E-01 -5.19634587E-01 -5.18781726E-01 -4.89990573E-01 -4.85065794E-01
 -4.55512681E-01 -4.02535372E-01 -3.97331165E-01 -3.96360309E-01 -3.86081599E-01
 -3.57218083E-01 -3.50724402E-01 -3.25284752E-01  2.62441697E-01  3.03260632E-01
  3.20683893E-01  3.29930213E-01  3.40803304E-01  3.60363399E-01  3.74642460E-01
  4.05706904E-01  4.23335240E-01  4.48808324E-01  4.75563498E-01  5.80156725E-01
  6.06688513E-01  6.80210633E-01  6.84090186E-01  7.70258675E-01  7.86732584E-01
  8.22969025E-01  8.48212942E-01  9.36219003E-01  9.61500635E-01  1.01225853E+00
  1.06876641E+00  1.10633630E+00  1.12841579E+00  1.15188423E+00  1.16153524E+00
  1.17096026E+00  1.19480004E+00  1.20546235E+00  1.24446989E+00  1.27961700E+00
  1.29869417E+00  1.35631299E+00  1.38524742E+00  1.39381312E+00  1.40504581E+00
  1.42946863E+00  1.45718476E+00  1.46925308E+00  1.52304598E+00  1.55214548E+00
  1.61647158E+00  1.62063158E+00  1.69407901E+00  1.70275796E+00  1.75062329E+00
  1.77427065E+00  1.87397039E+00  1.92038632E+00  2.01144761E+00  2.10424890E+00
  2.14537774E+00  2.17320775E+00  2.20253085E+00  2.21377794E+00  2.21864202E+00
  2.21948381E+00  2.22274749E+00  2.25805421E+00  2.26337403E+00  2.31119314E+00
  2.38726231E+00  2.46019673E+00  2.48376779E+00  2.50973105E+00  2.52745879E+00
  2.58770021E+00  2.68278724E+00  2.69701980E+00  2.72416619E+00  2.73359003E+00
  2.79418853E+00  2.89537906E+00  3.04879188E+00  3.12186483E+00  3.22918254E+00
  3.25314903E+00  3.29403632E+00  3.97975463E+00  4.20402110E+00  4.22457777E+00
  4.39644930E+00  4.46498948E+00  4.63523203E+00  4.86186206E+00
Alpha MO coefficients                      R   N=       14161
  9.96429742E-01  1.35007602E-02 -3.95924471E-05  1.09600560E-05 -1.24669222E-06
 -2.18869997E-02  6.10137641E-05 -1.94233740E-05  1.89700767E-07  1.79759561E-03
 -4.66063824E-06 -1.15836931E-04  7.20778491E-06  7.45346700E-03  7.43547745E-03
  7.43890988E-03 -2.11224744E-05  2.50066499E-06 -7.22119441E-07 -2.94218409E-05
 -1.14184866E-04 -2.99939347E-05  3.77523739E-05 -2.83045395E-06  9.13868800E-04
  3.36441329E-04 -2.65384766E-04  2.39669316E-05 -1.60896644E-04 -8.25270350E-05
 -9.93084217E-05  6.68324525E-05 -5.77497979E-06 -1.23617446E-06 -1.72513036E-05
 -1.28734107E-04  7.03968280E-05  1.22550167E-04 -2.63669222E-06  9.11911579E-04
 -2.71477498E-04 -4.44733381E-04  9.27805070E-06 -8.50823895E-05 -1.56827315E-04
 -4.87250178E-05 -6.99685241E-05  1.70897418E-06  3.15482763E-06 -7.43932581E-06
 -9.06279289E-05  1.09373245E-05 -8.13277965E-05 -1.08394007E-04  7.17392873E-04
 -4.78891535E-05  2.98386153E-04  3.83611235E-04 -1.78632480E-05 -6.36560440E-05
 -1.21304678E-04  7.17793459E-06  9.34932182E-06 -7.68343484E-05 -7.71662887E-06
 -9.12219152E-05  6.08096647E-06 -7.17067346E-05  1.14954224E-04  7.19937179E-04
 -3.03614353E-05  2.65082962E-04 -4.09117256E-04 -1.78908353E-05 -5.46780281E-05
 -1.33260440E-04  2.67377277E-06 -2.72282428E-06  7.03891189E-05 -1.09507737E-05
 -4.34003661E-05 -5.07007093E-05  3.56495939E-06  7.62427098E-07 -3.49600713E-05
  6.20081417E-06 -2.15471571E-04  4.06149741E-06 -3.25626147E-05 -1.33460372E-05
 -2.74192291E-05 -1.83282769E-05  2.23236959E-06 -3.21628564E-06 -1.17595312E-05
 -4.28493723E-05 -9.24025838E-06 -5.55475521E-07  8.80641724E-07  2.59979940E-04
  1.27571396E-04  3.31567763E-05 -3.84961637E-06 -6.19570166E-06 -3.23238828E-05
 -1.91202186E-05 -1.43046989E-06  1.94025186E-07 -8.96578842E-08  9.89072953E-06
 -1.78480068E-04  6.88453092E-06 -1.75796371E-04 -3.80889484E-06  2.00016962E-05
 -1.39320866E-05 -3.55651219E-05 -1.63052810E-05 -3.08457398E-05  7.25592902E-06
 -2.32088060E-05  7.56520445E-05 -2.39720456E-05  2.56601837E-06  3.49630832E-05
 -3.20015840E-04  1.05414889E-04 -9.71863785E-06 -7.07926604E-04  2.84565197E-04
 -3.03633898E-04  2.62002878E-05  2.95537152E-04  2.61831287E-06 -2.76901507E-05
 -8.87500166E-05  1.17177057E-05 -3.60135321E-06  9.94644198E-01  2.11233441E-02
 -6.22501153E-05 -1.03029828E-03  6.83732860E-05  4.07250947E-03  1.98373166E-04
  6.71288022E-04 -4.33516487E-05 -4.22219784E-03 -4.14730584E-03 -3.91529942E-03
 -1.05177971E-04  2.00671075E-06  1.75811884E-05 -8.61685639E-05 -4.21806579E-05
 -1.01325878E-05 -4.46607868E-06  2.12111220E-07  3.29125358E-04  1.45471170E-05
 -3.97873473E-05 -1.24526533E-08 -8.66497298E-05 -1.31492088E-05 -1.30872884E-06
 -5.14956882E-06 -2.21833911E-06  7.01503674E-07 -9.33497612E-05 -3.03089302E-05
  1.21261559E-05 -1.64265267E-05  6.93161223E-06  1.83889723E-04 -1.37855797E-05
  8.72597759E-05  1.86971744E-05 -4.58312436E-05 -1.01693201E-05 -1.03438595E-05
  2.03786164E-05  1.13960482E-05  5.43569955E-06 -9.25892838E-05 -2.72314235E-05
  1.24167573E-05 -1.67600745E-05 -4.83306251E-06  1.68948262E-04 -1.17551085E-05
  8.23586115E-05 -2.47649927E-05 -4.25636391E-05 -9.15780439E-06 -8.77884223E-06
  1.98095631E-05 -1.57226430E-05 -3.92244279E-06 -2.65927907E-05  1.89594995E-04
  2.56562345E-04  2.79819134E-04 -1.72298332E-05  4.61047989E-04  1.08446847E-04
  2.19615659E-05  1.13326116E-05  2.93104385E-05  1.22414226E-05 -7.07074307E-05
  7.67984998E-05 -4.51699649E-06 -5.63147005E-06  6.53486228E-06  7.51337467E-05
 -2.43327120E-06  1.63506572E-05 -5.14611701E-07 -1.22485553E-04 -2.24027058E-04
 -1.14400365E-04  3.91541849E-06 -6.09962676E-05  1.29478520E-05 -1.13911433E-05
 -2.66729253E-06  3.78395947E-07 -1.04213896E-06 -5.11445555E-05 -5.07648015E-05
 -5.43245093E-05 -6.04642508E-05 -9.57424321E-06 -1.08883913E-04  3.72483658E-05
 -4.11540784E-06  3.70807389E-05 -9.41767864E-06  1.66486352E-05 -6.06543700E-05
 -7.56280704E-07  2.02123779E-05  3.08457813E-05  5.93714136E-04  1.56802062E-05
 -2.09502142E-04 -3.21902895E-04 -4.40718034E-04  3.93020279E-05  2.33344189E-04
  3.09535922E-04 -1.46201711E-04 -1.15003175E-04 -5.79498164E-05 -1.32983625E-05
 -1.19212553E-05  9.40828160E-05  8.26978615E-05  2.29558633E-06 -6.48388326E-06
  3.54644221E-06  1.08365780E-05  2.48827698E-05  8.11091083E-06  1.35791107E-05
 -1.47679513E-05 -1.97212407E-06 -1.28718153E-05 -3.06916958E-06  1.24860783E-05
  1.35289120E-05 -1.57274379E-05 -1.48726026E-02 -2.98317034E-04  3.21410090E-06
  1.63027876E-05  1.68563498E-05 -9.89817766E-05 -3.85431663E-06 -9.41589934E-06
 -3.18771842E-05  7.91633667E-05  5.90812257E-05  6.21037086E-05  2.68906538E-06
 -4.00940428E-06 -2.21624670E-05  9.94000672E-01  2.08701203E-02 -8.43214920E-05
  5.54637768E-04  7.98300452E-04  4.25257067E-03  1.48423025E-05 -2.18513693E-04
 -3.05545817E-04 -3.98456824E-03 -4.01453277E-03 -4.06230986E-03  8.33547298E-06
  8.31373309E-06 -7.39193398E-05 -3.35522002E-02 -7.06012360E-04  1.20900801E-06
 -1.18841850E-06  4.01229960E-05 -9.74261073E-05 -1.04227969E-05 -1.86070183E-05
 -4.24282406E-05  1.36688222E-04  1.40023916E-04  1.12155114E-04 -1.14235572E-06
  4.73206176E-06 -1.69241618E-05 -2.78335742E-06 -1.65050349E-05  2.04705783E-07
  6.17970910E-06  7.09990681E-06  9.35887021E-05  5.36983536E-05 -3.88847271E-05
 -4.16933727E-05 -6.69849500E-07 -6.21512882E-06 -2.74181669E-06 -2.31445986E-06
  2.81166590E-07  5.83448349E-07 -5.22278955E-07 -1.72223821E-06 -1.20467517E-06
  7.90623025E-07  2.45709006E-06  2.47748535E-05  1.37103712E-05 -5.36732871E-06
 -8.31045939E-07 -6.20348000E-07 -1.82260571E-06 -1.04997385E-06  1.70977201E-07
  1.73518923E-06 -6.60519939E-07  1.09855291E-05 -7.84169346E-05 -9.33822138E-06
  1.75458934E-05 -4.71497326E-07  1.75288434E-06  2.12530201E-07  2.12524478E-06
 -2.51054314E-06  2.18466195E-06  1.75138375E-05 -6.38951686E-05  9.95426821E-07
  1.94907643E-05 -3.04942117E-05  6.23743447E-04 -3.05727269E-06 -2.01706230E-04
  3.17869193E-04 -4.60655459E-04  5.84523838E-05  2.24880872E-04 -3.02378832E-04
 -1.54756849E-04 -1.34402400E-04 -4.45756215E-05 -1.01187448E-05  6.35188477E-06
 -8.23161238E-05  8.75003611E-05  3.27838602E-06 -6.25169411E-06  2.74289487E-06
 -1.02072706E-05  2.23026179E-05  6.23938511E-06  1.64475613E-05  1.05603808E-05
  5.45507803E-07 -1.05657174E-05 -6.45297886E-06  1.23482025E-05 -1.34809892E-05
  1.62433723E-05 -2.97391900E-02 -6.10222276E-04  1.11550768E-05  2.78526079E-05
 -1.69174190E-05 -1.61459556E-04 -8.38715572E-06 -1.21877408E-05  2.96002601E-05
  1.39528937E-04  1.22321646E-04  1.18384425E-04  2.81362420E-06  4.76398642E-06
  2.09631845E-05  3.30954829E-02  6.93411580E-04 -2.11217162E-06  3.28374893E-05
  1.38702233E-05  1.86845655E-04 -1.19224222E-05 -2.95742518E-05  2.18886585E-05
 -1.29935232E-04 -1.26625994E-04 -1.63076107E-04 -1.48226183E-06 -2.31683990E-06
  9.24374028E-06  9.93682166E-01  2.08644498E-02 -3.97067542E-05  4.89339971E-04
 -8.42989578E-04  4.25045965E-03 -4.23749849E-06 -1.96161300E-04  3.22200551E-04
 -3.98201121E-03 -4.00241983E-03 -4.07412330E-03  4.55387564E-06 -3.46861837E-06
  6.78685485E-05 -3.59215071E-06 -1.92964227E-05 -2.63936010E-07  6.32001701E-06
 -7.45737852E-06  1.19115912E-04  5.80658796E-05 -4.49256490E-05  4.68508760E-05
 -3.36319714E-06 -8.59685872E-06 -3.28805946E-06 -2.68341153E-06 -3.25736955E-07
 -2.25350858E-08 -5.77194232E-07 -1.80930169E-06 -1.96564634E-06  1.21973695E-06
 -2.98816829E-06  2.23281451E-05  1.61938968E-05 -6.23971494E-06  2.14922114E-06
 -4.11682710E-07 -2.25945081E-06 -1.19622153E-06 -6.62458431E-08 -1.91625571E-06
  9.21045289E-07 -1.00235645E-05  1.04673845E-05  1.11095362E-05 -9.77645413E-05
 -3.59148375E-07  2.44267629E-06 -3.03735929E-06  3.73765718E-06  3.87395192E-08
  5.47413973E-06  1.75347686E-05 -7.63332806E-05 -1.91639142E-05 -2.97945695E-05
  3.16724679E-07  6.08053566E-04  2.12687919E-04  3.07126272E-04 -2.89782105E-06
 -2.42023863E-04 -2.69976697E-04 -4.31229074E-04  6.29699579E-06 -1.34727269E-04
 -5.48914410E-05 -1.75432241E-04  7.12755680E-05 -1.29956659E-06 -4.84451967E-06
  7.28641349E-05 -1.77861451E-05 -1.11383337E-05  1.03190902E-06 -6.01708093E-07
  1.26389015E-04 -1.21715068E-05 -1.87903935E-05  6.87194768E-07 -5.89004930E-05
 -1.86527767E-05 -2.40481491E-05 -1.84476788E-05 -1.70118338E-07 -6.09339403E-07
  9.94118807E-01  2.08755159E-02 -4.92380749E-04 -8.45474095E-04  1.90359875E-05