
    -----------------------------------------------------------------------
          Psi4: An Open-Source Ab Initio Electronic Structure Package
                               Psi4 1.3.2 release

                         Git: Rev {HEAD} ecbda83 


    R. M. Parrish, L. A. Burns, D. G. A. Smith, A. C. Simmonett,
    A. E. DePrince III, E. G. Hohenstein, U. Bozkaya, A. Yu. Sokolov,
    R. Di Remigio, R. M. Richard, J. F. Gonthier, A. M. James,
    H. R. McAlexander, A. Kumar, M. Saitow, X. Wang, B. P. Pritchard,
    P. Verma, H. F. Schaefer III, K. Patkowski, R. A. King, E. F. Valeev,
    F. A. Evangelista, J. M. Turney, T. D. Crawford, and C. D. Sherrill,
    J. Chem. Theory Comput. 13(7) pp 3185--3197 (2017).
    (doi: 10.1021/acs.jctc.7b00174)


                         Additional Contributions by
    P. Kraus, H. Kruse, M. H. Lechner, M. C. Schieber, R. A. Shaw,
    A. Alenaizan, R. Galvelis, Z. L. Glick, S. Lehtola, and J. P. Misiewicz

    -----------------------------------------------------------------------


    Psi4 started on: Wednesday, 04 November 2020 02:39AM

    Process ID: 62481
    Host:       node97.bme.utexas.edu
    PSIDATADIR: /home/xy3866/psi4conda/share/psi4
    Memory:     500.0 MiB
    Threads:    8
    
  ==> Input File <==

--------------------------------------------------------------------------
#psi4
#
memory 32 gb

molecule  {
-1 1
  O       -1.6021720    -0.7553910    -0.0001730
  O       -0.6117130     1.3130740     0.0001440
  C        0.7486200    -0.6398630     0.0001060
  C       -0.6225811     0.2491486     0.0000539
  C        1.9107360     0.0279630    -0.0001390
  H        0.7354600    -1.7316690     0.0007200
  H        2.8810510    -0.4671120     0.0001950
  H        1.8861710     1.1137650    -0.0007150
units angstrom
no_reorient  #important for SAPT in psi4, default
symmetry c1  #important for SAPT in psi4, default
}

set PROPERTIES_ORIGIN ["COM"]
properties('MP2/aug-cc-pvtz', properties = ['dipole'])
--------------------------------------------------------------------------

  Memory set to  29.802 GiB by Python driver.
    SCF Algorithm Type (re)set to DF.

*** tstart() called on node97.bme.utexas.edu
*** at Wed Nov  4 02:39:05 2020

   => Loading Basis Set <=

    Name: AUG-CC-PVTZ
    Role: ORBITAL
    Keyword: BASIS
    atoms 1-2 entry O          line   327 file /home/xy3866/psi4conda/share/psi4/basis/aug-cc-pvtz.gbs 
    atoms 3-5 entry C          line   235 file /home/xy3866/psi4conda/share/psi4/basis/aug-cc-pvtz.gbs 
    atoms 6-8 entry H          line    36 file /home/xy3866/psi4conda/share/psi4/basis/aug-cc-pvtz.gbs 


         ---------------------------------------------------------
                                   SCF
               by Justin Turney, Rob Parrish, Andy Simmonett
                          and Daniel G. A. Smith
                              RHF Reference
                        8 Threads,  30517 MiB Core
         ---------------------------------------------------------

  ==> Geometry <==

    Molecular point group: c1
    Full point group: C1

    Geometry (in Angstrom), charge = -1, multiplicity = 1:

       Center              X                  Y                   Z               Mass       
    ------------   -----------------  -----------------  -----------------  -----------------
         O           -1.525793888331    -0.804305339603    -0.000172838234    15.994914619570
         O           -0.535334888331     1.264159660397     0.000144161766    15.994914619570
         C            0.824998111669    -0.688777339603     0.000106161766    12.000000000000
         C           -0.546202988331     0.200234260397     0.000054061766    12.000000000000
         C            1.987114111669    -0.020951339603    -0.000138838234    12.000000000000
         H            0.811838111669    -1.780583339603     0.000720161766     1.007825032230
         H            2.957429111669    -0.516026339603     0.000195161766     1.007825032230
         H            1.962549111669     1.064850660397    -0.000714838234     1.007825032230

  Running in c1 symmetry.

  Rotational constants: A =      0.36108  B =      0.14746  C =      0.10470 [cm^-1]
  Rotational constants: A =  10824.85068  B =   4420.73452  C =   3138.86228 [MHz]
  Nuclear repulsion =  152.648014180869524

  Charge       = -1
  Multiplicity = 1
  Electrons    = 38
  Nalpha       = 19
  Nbeta        = 19

  ==> Algorithm <==

  SCF Algorithm Type is DF.
  DIIS enabled.
  MOM disabled.
  Fractional occupation disabled.
  Guess Type is SAD.
  Energy threshold   = 1.00e-10
  Density threshold  = 1.00e-10
  Integral threshold = 0.00e+00

  ==> Primary Basis <==

  Basis Set: AUG-CC-PVTZ
    Blend: AUG-CC-PVTZ
    Number of shells: 97
    Number of basis function: 299
    Number of Cartesian functions: 350
    Spherical Harmonics?: true
    Max angular momentum: 3

   => Loading Basis Set <=

    Name: (AUG-CC-PVTZ AUX)
    Role: JKFIT
    Keyword: DF_BASIS_SCF
    atoms 1-2 entry O          line   286 file /home/xy3866/psi4conda/share/psi4/basis/aug-cc-pvtz-jkfit.gbs 
    atoms 3-5 entry C          line   162 file /home/xy3866/psi4conda/share/psi4/basis/aug-cc-pvtz-jkfit.gbs 
    atoms 6-8 entry H          line    70 file /home/xy3866/psi4conda/share/psi4/basis/aug-cc-pvtz-jkfit.gbs 

  ==> Pre-Iterations <==

   -------------------------------------------------------
    Irrep   Nso     Nmo     Nalpha   Nbeta   Ndocc  Nsocc
   -------------------------------------------------------
     A        299     299       0       0       0       0
   -------------------------------------------------------
    Total     299     299      19      19      19       0
   -------------------------------------------------------

  ==> Integral Setup <==

  DFHelper Memory: AOs need 0.459 GiB; user supplied 22.352 GiB. Using in-core AOs.

  ==> MemDFJK: Density-Fitted J/K Matrices <==

    J tasked:                   Yes
    K tasked:                   Yes
    wK tasked:                   No
    OpenMP threads:               8
    Memory [MiB]:             22888
    Algorithm:                 Core
    Schwarz Cutoff:           1E-12
    Mask sparsity (%):       1.2528
    Fitting Condition:        1E-10

   => Auxiliary Basis Set <=

  Basis Set: (AUG-CC-PVTZ AUX)
    Blend: AUG-CC-PVTZ-JKFIT
    Number of shells: 192
    Number of basis function: 658
    Number of Cartesian functions: 820
    Spherical Harmonics?: true
    Max angular momentum: 4

  Minimum eigenvalue in the overlap matrix is 9.5858682777E-06.
  Using Symmetric Orthogonalization.

  SCF Guess: Superposition of Atomic Densities via on-the-fly atomic UHF.

  ==> Iterations <==

                           Total Energy        Delta E     RMS |[F,P]|

   @DF-RHF iter SAD:  -263.83776055904809   -2.63838e+02   0.00000e+00 
   @DF-RHF iter   1:  -264.89577223808612   -1.05801e+00   2.36482e-03 DIIS
   @DF-RHF iter   2:  -265.03743695673069   -1.41665e-01   1.59294e-03 DIIS
   @DF-RHF iter   3:  -265.11215171443104   -7.47148e-02   2.57571e-04 DIIS
   @DF-RHF iter   4:  -265.11476795066079   -2.61624e-03   9.76620e-05 DIIS
   @DF-RHF iter   5:  -265.11531393963793   -5.45989e-04   2.46270e-05 DIIS
   @DF-RHF iter   6:  -265.11535889618784   -4.49565e-05   1.05223e-05 DIIS
   @DF-RHF iter   7:  -265.11537294180403   -1.40456e-05   3.90018e-06 DIIS
   @DF-RHF iter   8:  -265.11537527944944   -2.33765e-06   1.39269e-06 DIIS
   @DF-RHF iter   9:  -265.11537549607522   -2.16626e-07   4.45567e-07 DIIS
   @DF-RHF iter  10:  -265.11537552266600   -2.65908e-08   1.36416e-07 DIIS
   @DF-RHF iter  11:  -265.11537552574822   -3.08222e-09   4.67137e-08 DIIS
   @DF-RHF iter  12:  -265.11537552608064   -3.32420e-10   1.62238e-08 DIIS
   @DF-RHF iter  13:  -265.11537552611674   -3.60956e-11   5.71139e-09 DIIS
   @DF-RHF iter  14:  -265.11537552612151   -4.77485e-12   1.93377e-09 DIIS
   @DF-RHF iter  15:  -265.11537552612248   -9.66338e-13   6.00192e-10 DIIS
   @DF-RHF iter  16:  -265.11537552612219    2.84217e-13   1.76143e-10 DIIS
   @DF-RHF iter  17:  -265.11537552612259   -3.97904e-13   7.11038e-11 DIIS
  Energy and wave function converged.


  ==> Post-Iterations <==

    Orbital Energies [Eh]
    ---------------------

    Doubly Occupied:                                                      

       1A    -20.346551     2A    -20.265312     3A    -11.142266  
       4A    -11.065695     5A    -11.064024     6A     -1.303832  
       7A     -1.015609     8A     -0.866354     9A     -0.631258  
      10A     -0.540805    11A     -0.504303    12A     -0.434759  
      13A     -0.430658    14A     -0.416529    15A     -0.367415  
      16A     -0.213807    17A     -0.211414    18A     -0.179973  
      19A     -0.168868  

    Virtual:                                                              

      20A      0.118218    21A      0.135959    22A      0.143175  
      23A      0.190203    24A      0.198564    25A      0.205510  
      26A      0.226884    27A      0.227243    28A      0.237067  
      29A      0.244698    30A      0.247631    31A      0.258622  
      32A      0.274028    33A      0.305696    34A      0.310812  
      35A      0.325993    36A      0.338258    37A      0.348353  
      38A      0.365466    39A      0.379896    40A      0.396129  
      41A      0.399669    42A      0.403288    43A      0.421181  
      44A      0.424544    45A      0.439068    46A      0.447740  
      47A      0.459599    48A      0.462679    49A      0.481088  
      50A      0.490412    51A      0.519604    52A      0.528397  
      53A      0.537746    54A      0.543179    55A      0.559572  
      56A      0.567163    57A      0.572566    58A      0.587390  
      59A      0.589558    60A      0.601205    61A      0.619680  
      62A      0.622486    63A      0.638172    64A      0.653638  
      65A      0.674431    66A      0.685039    67A      0.709619  
      68A      0.719949    69A      0.735412    70A      0.741833  
      71A      0.756626    72A      0.764427    73A      0.792496  
      74A      0.799858    75A      0.837386    76A      0.842023  
      77A      0.892045    78A      0.904257    79A      0.927926  
      80A      0.929094    81A      0.945775    82A      0.983419  
      83A      0.986415    84A      0.999131    85A      1.008374  
      86A      1.008752    87A      1.043647    88A      1.046003  
      89A      1.050493    90A      1.070006    91A      1.079572  
      92A      1.087177    93A      1.093306    94A      1.111980  
      95A      1.126262    96A      1.134531    97A      1.140317  
      98A      1.154401    99A      1.159996   100A      1.166657  
     101A      1.191061   102A      1.197049   103A      1.205107  
     104A      1.219735   105A      1.232222   106A      1.234643  
     107A      1.266320   108A      1.267967   109A      1.276914  
     110A      1.278532   111A      1.302449   112A      1.334857  
     113A      1.344246   114A      1.361485   115A      1.377941  
     116A      1.379790   117A      1.405933   118A      1.408209  
     119A      1.455273   120A      1.464274   121A      1.475527  
     122A      1.491413   123A      1.531425   124A      1.558672  
     125A      1.629655   126A      1.634941   127A      1.643753  
     128A      1.656581   129A      1.665528   130A      1.687898  
     131A      1.698217   132A      1.732377   133A      1.759770  
     134A      1.796107   135A      1.799283   136A      1.816889  
     137A      1.834532   138A      1.860481   139A      1.875936  
     140A      1.896733   141A      1.901452   142A      1.928016  
     143A      1.953282   144A      1.982117   145A      2.004568  
     146A      2.011177   147A      2.039287   148A      2.075538  
     149A      2.088464   150A      2.094510   151A      2.111890  
     152A      2.170976   153A      2.213062   154A      2.222721  
     155A      2.238117   156A      2.282806   157A      2.308915  
     158A      2.327678   159A      2.373895   160A      2.418908  
     161A      2.450105   162A      2.456464   163A      2.470862  
     164A      2.551557   165A      2.581262   166A      2.598619  
     167A      2.622243   168A      2.649986   169A      2.656380  
     170A      2.685794   171A      2.734779   172A      2.740733  
     173A      2.741659   174A      2.769660   175A      2.798088  
     176A      2.801353   177A      2.831760   178A      2.876437  
     179A      2.898845   180A      2.917312   181A      2.987839  
     182A      3.059482   183A      3.059852   184A      3.074880  
     185A      3.089054   186A      3.142287   187A      3.157947  
     188A      3.227123   189A      3.230960   190A      3.285852  
     191A      3.353965   192A      3.381265   193A      3.397121  
     194A      3.412913   195A      3.454692   196A      3.490148  
     197A      3.527940   198A      3.563149   199A      3.563453  
     200A      3.570372   201A      3.607323   202A      3.646813  
     203A      3.681874   204A      3.697554   205A      3.760446  
     206A      3.774626   207A      3.814527   208A      3.833738  
     209A      3.876419   210A      3.883197   211A      3.901942  
     212A      3.932681   213A      3.984394   214A      3.996283  
     215A      4.029765   216A      4.055455   217A      4.084717  
     218A      4.112862   219A      4.159628   220A      4.203470  
     221A      4.208529   222A      4.210906   223A      4.277103  
     224A      4.301216   225A      4.331437   226A      4.354099  
     227A      4.372478   228A      4.379722   229A      4.414565  
     230A      4.430363   231A      4.482219   232A      4.567351  
     233A      4.621370   234A      4.632404   235A      4.644676  
     236A      4.723068   237A      4.724818   238A      4.782033  
     239A      4.842947   240A      4.936396   241A      4.952852  
     242A      5.012470   243A      5.024813   244A      5.029314  
     245A      5.070571   246A      5.134341   247A      5.154594  
     248A      5.191392   249A      5.193601   250A      5.274204  
     251A      5.303542   252A      5.388196   253A      5.476372  
     254A      5.506978   255A      5.539938   256A      5.573051  
     257A      5.607399   258A      5.651638   259A      5.683011  
     260A      5.780333   261A      5.847487   262A      5.924044  
     263A      6.092892   264A      6.229219   265A      6.341093  
     266A      6.499920   267A      6.603579   268A      6.746085  
     269A      6.837266   270A      6.849740   271A      6.909055  
     272A      6.939973   273A      6.948054   274A      6.988840  
     275A      7.121207   276A      7.124964   277A      7.135213  
     278A      7.283582   279A      7.342733   280A      7.361462  
     281A      7.483465   282A      7.531634   283A      7.588356  
     284A      7.635804   285A      7.683893   286A      7.760849  
     287A      7.797816   288A      7.895177   289A      7.947112  
     290A      8.022191   291A      8.110882   292A      8.175901  
     293A      8.266161   294A      8.402933   295A     13.449553  
     296A     16.310704   297A     17.193240   298A     18.124498  
     299A     20.331505  

    Final Occupation by Irrep:
              A 
    DOCC [    19 ]

  @DF-RHF Final Energy:  -265.11537552612259

   => Energetics <=

    Nuclear Repulsion Energy =            152.6480141808695237
    One-Electron Energy =                -673.1879138755174381
    Two-Electron Energy =                 255.4245241685253518
    Total Energy =                       -265.1153755261225911

Computation Completed

*** tstop() called on node97.bme.utexas.edu at Wed Nov  4 02:39:10 2020
Module time:
	user time   =      27.53 seconds =       0.46 minutes
	system time =       0.78 seconds =       0.01 minutes
	total time  =          5 seconds =       0.08 minutes
Total time:
	user time   =      27.53 seconds =       0.46 minutes
	system time =       0.78 seconds =       0.01 minutes
	total time  =          5 seconds =       0.08 minutes
   => Loading Basis Set <=

    Name: (AUG-CC-PVTZ AUX)
    Role: RIFIT
    Keyword: DF_BASIS_MP2
    atoms 1-2 entry O          line   264 file /home/xy3866/psi4conda/share/psi4/basis/aug-cc-pvtz-ri.gbs 
    atoms 3-5 entry C          line   148 file /home/xy3866/psi4conda/share/psi4/basis/aug-cc-pvtz-ri.gbs 
    atoms 6-8 entry H          line    30 file /home/xy3866/psi4conda/share/psi4/basis/aug-cc-pvtz-ri.gbs 


*** tstart() called on node97.bme.utexas.edu
*** at Wed Nov  4 02:39:10 2020


  //>>>>>>>>>>>>>>>>>>>>>>>>>>>>>>>>>>>//
  //               DFMP2               //
  //<<<<<<<<<<<<<<<<<<<<<<<<<<<<<<<<<<<//

	 --------------------------------------------------------
	                          DF-MP2                         
	      2nd-Order Density-Fitted Moller-Plesset Theory     
	              RMP2 Wavefunction,   8 Threads             
	                                                         
	        Rob Parrish, Justin Turney, Andy Simmonett,      
	           Ed Hohenstein, and C. David Sherrill          
	 --------------------------------------------------------

   => Auxiliary Basis Set <=

  Basis Set: (AUG-CC-PVTZ AUX)
    Blend: AUG-CC-PVTZ-RI
    Number of shells: 182
    Number of basis function: 668
    Number of Cartesian functions: 845
    Spherical Harmonics?: true
    Max angular momentum: 4

	 --------------------------------------------------------
	                 NBF =   299, NAUX =   668
	 --------------------------------------------------------
	   CLASS    FOCC     OCC    AOCC    AVIR     VIR    FVIR
	   PAIRS       0      19      19     280     280       0
	 --------------------------------------------------------

  DFHelper Memory: AOs need 0.459 GiB; user supplied 22.352 GiB. Using in-core AOs.


         ------------------------------------------------------------
                                     CPHF                           
                                  Rob Parrish                       
         ------------------------------------------------------------

  ==> Geometry <==

    Molecular point group: c1
    Full point group: C1

    Geometry (in Angstrom), charge = -1, multiplicity = 1:

       Center              X                  Y                   Z               Mass       
    ------------   -----------------  -----------------  -----------------  -----------------
         O           -1.525793888331    -0.804305339603    -0.000172838234    15.994914619570
         O           -0.535334888331     1.264159660397     0.000144161766    15.994914619570
         C            0.824998111669    -0.688777339603     0.000106161766    12.000000000000
         C           -0.546202988331     0.200234260397     0.000054061766    12.000000000000
         C            1.987114111669    -0.020951339603    -0.000138838234    12.000000000000
         H            0.811838111669    -1.780583339603     0.000720161766     1.007825032230
         H            2.957429111669    -0.516026339603     0.000195161766     1.007825032230
         H            1.962549111669     1.064850660397    -0.000714838234     1.007825032230

  Nuclear repulsion =  152.648014180869524
  Reference energy  = -265.115375526122591

  ==> Basis Set <==

  Basis Set: AUG-CC-PVTZ
    Blend: AUG-CC-PVTZ
    Number of shells: 97
    Number of basis function: 299
    Number of Cartesian functions: 350
    Spherical Harmonics?: true
    Max angular momentum: 3

  ==> CGRSolver (by Rob Parrish) <==

   Number of roots    =         1
   Preconditioning    =    JACOBI
   Convergence cutoff =     1E-06
   Maximum iterations =       100

  ==> CPHFRHamiltonian (by Rob Parrish) <== 

  ==> MemDFJK: Density-Fitted J/K Matrices <==

    J tasked:                   Yes
    K tasked:                   Yes
    wK tasked:                   No
    OpenMP threads:               8
    Memory [MiB]:             22888
    Algorithm:                 Core
    Schwarz Cutoff:           1E-12
    Mask sparsity (%):       1.2528
    Fitting Condition:        1E-10

   => Auxiliary Basis Set <=

  Basis Set: (AUG-CC-PVTZ AUX)
    Blend: AUG-CC-PVTZ-JKFIT
    Number of shells: 192
    Number of basis function: 658
    Number of Cartesian functions: 820
    Spherical Harmonics?: true
    Max angular momentum: 4

  ==> CPHF Iterations <==

  => Iterations <=

             Iter  Converged  Remaining    Residual
  CGR           1          0          1   1.309E-01
  CGR           2          0          1   4.716E-02
  CGR           3          0          1   2.208E-02
  CGR           4          0          1   8.646E-03
  CGR           5          0          1   3.314E-03
  CGR           6          0          1   9.939E-04
  CGR           7          0          1   2.781E-04
  CGR           8          0          1   1.169E-04
  CGR           9          0          1   2.886E-05
  CGR          10          0          1   9.500E-06
  CGR          11          0          1   2.356E-06
  CGR          12          1          0   7.459E-07

    CGRSolver converged.

	-----------------------------------------------------------
	 ==================> DF-MP2 Energies <==================== 
	-----------------------------------------------------------
	 Reference Energy          =    -265.1153755261225911 [Eh]
	 Singles Energy            =      -0.0000000000000000 [Eh]
	 Same-Spin Energy          =      -0.2613846112137899 [Eh]
	 Opposite-Spin Energy      =      -0.7940838107646873 [Eh]
	 Correlation Energy        =      -1.0554684219784771 [Eh]
	 Total Energy              =    -266.1708439481010942 [Eh]
	-----------------------------------------------------------
	 ================> DF-SCS-MP2 Energies <================== 
	-----------------------------------------------------------
	 SCS Same-Spin Scale       =       0.3333333333333333 [-]
	 SCS Opposite-Spin Scale   =       1.2000000000000000 [-]
	 SCS Same-Spin Energy      =      -0.0871282037379300 [Eh]
	 SCS Opposite-Spin Energy  =      -0.9529005729176246 [Eh]
	 SCS Correlation Energy    =      -1.0400287766555545 [Eh]
	 SCS Total Energy          =    -266.1554043027781518 [Eh]
	-----------------------------------------------------------



Properties will be evaluated at  -0.000000,  -0.000000,   0.000000 [a0]

Properties computed using the MP2 density matrix

  Nuclear Dipole Moment: [e a0]
     X:     5.3635      Y:    -1.1525      Z:     0.0002

  Electronic Dipole Moment: [e a0]
     X:    -3.5632      Y:     1.4502      Z:     0.0001

  Dipole Moment: [e a0]
     X:     1.8003      Y:     0.2977      Z:     0.0003     Total:     1.8248

  Dipole Moment: [D]
     X:     4.5759      Y:     0.7567      Z:     0.0007     Total:     4.6381


*** tstop() called on node97.bme.utexas.edu at Wed Nov  4 02:39:20 2020
Module time:
	user time   =      67.29 seconds =       1.12 minutes
	system time =       1.51 seconds =       0.03 minutes
	total time  =         10 seconds =       0.17 minutes
Total time:
	user time   =      95.47 seconds =       1.59 minutes
	system time =       2.30 seconds =       0.04 minutes
	total time  =         15 seconds =       0.25 minutes

    Psi4 stopped on: Wednesday, 04 November 2020 02:39AM
    Psi4 wall time for execution: 0:00:14.58

*** Psi4 exiting successfully. Buy a developer a beer!
