
    -----------------------------------------------------------------------
          Psi4: An Open-Source Ab Initio Electronic Structure Package
                               Psi4 1.4a3.dev225 

                         Git: Rev {master} 7105e37 


    D. G. A. Smith, L. A. Burns, A. C. Simmonett, R. M. Parrish,
    M. C. Schieber, R. Galvelis, P. Kraus, H. Kruse, R. Di Remigio,
    A. Alenaizan, A. M. James, S. Lehtola, J. P. Misiewicz, M. Scheurer,
    R. A. Shaw, J. B. Schriber, Y. Xie, Z. L. Glick, D. A. Sirianni,
    J. S. O'Brien, J. M. Waldrop, A. Kumar, E. G. Hohenstein,
    B. P. Pritchard, B. R. Brooks, H. F. Schaefer III, A. Yu. Sokolov,
    K. Patkowski, A. E. DePrince III, U. Bozkaya, R. A. King,
    F. A. Evangelista, J. M. Turney, T. D. Crawford, C. D. Sherrill,
    J. Chem. Phys. 152(18) 184108 (2020). https://doi.org/10.1063/5.0006002

                            Additional Code Authors
    E. T. Seidl, C. L. Janssen, E. F. Valeev, M. L. Leininger,
    J. F. Gonthier, R. M. Richard, H. R. McAlexander, M. Saitow, X. Wang,
    P. Verma, and M. H. Lechner

             Previous Authors, Complete List of Code Contributors,
                       and Citations for Specific Modules
    https://github.com/psi4/psi4/blob/master/codemeta.json
    https://github.com/psi4/psi4/graphs/contributors
    http://psicode.org/psi4manual/master/introduction.html#citing-psifour

    -----------------------------------------------------------------------


    Psi4 started on: Friday, 19 March 2021 05:01AM

    Process ID: 244501
    Host:       c452-002.stampede2.tacc.utexas.edu
    PSIDATADIR: /home1/07844/xy3866/miniconda3/envs/p4env/share/psi4
    Memory:     500.0 MiB
    Threads:    32
    
  ==> Input File <==

--------------------------------------------------------------------------
#psi4
#
memory 32 gb

molecule  {
0 1
  O        1.8229650    -0.1562770     0.0000010
  N        0.6307432    -0.8336522    -0.0000019
  C       -0.3975690    -0.0229950    -0.0000020
  C       -1.7709740    -0.6228220     0.0000010
  C       -0.2171790     1.4669690     0.0000000
  H       -1.7049630    -1.7123800    -0.0000360
  H       -2.3324870    -0.2984810     0.8827490
  H       -2.3325170    -0.2984190    -0.8827050
  H       -1.1820940     1.9775330     0.0000190
  H        0.3565930     1.7783450     0.8777860
  H        0.3565600     1.7783500    -0.8778050
  H        2.4586350    -0.8931860     0.0000030
units angstrom
no_reorient  #important for SAPT in psi4, default
symmetry c1  #important for SAPT in psi4, default
}

set PROPERTIES_ORIGIN ["COM"]
properties('MP2/aug-cc-pvtz', properties = ['dipole'])
--------------------------------------------------------------------------

  Memory set to  29.802 GiB by Python driver.
    SCF Algorithm Type (re)set to DF.

*** tstart() called on c452-002.stampede2.tacc.utexas.edu
*** at Fri Mar 19 05:06:58 2021

   => Loading Basis Set <=

    Name: AUG-CC-PVTZ
    Role: ORBITAL
    Keyword: BASIS
    atoms 1    entry O          line   331 file /home1/07844/xy3866/miniconda3/envs/p4env/share/psi4/basis/aug-cc-pvtz.gbs 
    atoms 2    entry N          line   285 file /home1/07844/xy3866/miniconda3/envs/p4env/share/psi4/basis/aug-cc-pvtz.gbs 
    atoms 3-5  entry C          line   239 file /home1/07844/xy3866/miniconda3/envs/p4env/share/psi4/basis/aug-cc-pvtz.gbs 
    atoms 6-12 entry H          line    40 file /home1/07844/xy3866/miniconda3/envs/p4env/share/psi4/basis/aug-cc-pvtz.gbs 


         ---------------------------------------------------------
                                   SCF
               by Justin Turney, Rob Parrish, Andy Simmonett
                          and Daniel G. A. Smith
                              RHF Reference
                       32 Threads,  30517 MiB Core
         ---------------------------------------------------------

  ==> Geometry <==

    Molecular point group: c1
    Full point group: C1

    Geometry (in Angstrom), charge = 0, multiplicity = 1:

       Center              X                  Y                   Z               Mass       
    ------------   -----------------  -----------------  -----------------  -----------------
         O            1.755242709990    -0.129317053436     0.000001157761    15.994914619570
         N            0.563020909990    -0.806692253436    -0.000001742239    14.003074004430
         C           -0.465291290010     0.003964946564    -0.000001842239    12.000000000000
         C           -1.838696290010    -0.595862053436     0.000001157761    12.000000000000
         C           -0.284901290010     1.493928946564     0.000000157761    12.000000000000
         H           -1.772685290010    -1.685420053436    -0.000035842239     1.007825032230
         H           -2.400209290010    -0.271521053436     0.882749157761     1.007825032230
         H           -2.400239290010    -0.271459053436    -0.882704842239     1.007825032230
         H           -1.249816290010     2.004492946564     0.000019157761     1.007825032230
         H            0.288870709990     1.805304946564     0.877786157761     1.007825032230
         H            0.288837709990     1.805309946564    -0.877804842239     1.007825032230
         H            2.390912709990    -0.866226053436     0.000003157761     1.007825032230

  Running in c1 symmetry.

  Rotational constants: A =      0.29110  B =      0.13673  C =      0.09636 [cm^-1]
  Rotational constants: A =   8726.91098  B =   4099.17741  C =   2888.69077 [MHz]
  Nuclear repulsion =  178.414491226743593

  Charge       = 0
  Multiplicity = 1
  Electrons    = 40
  Nalpha       = 20
  Nbeta        = 20

  ==> Algorithm <==

  SCF Algorithm Type is DF.
  DIIS enabled.
  MOM disabled.
  Fractional occupation disabled.
  Guess Type is SAD.
  Energy threshold   = 1.00e-10
  Density threshold  = 1.00e-10
  Integral threshold = 1.00e-12

  ==> Primary Basis <==

  Basis Set: AUG-CC-PVTZ
    Blend: AUG-CC-PVTZ
    Number of shells: 133
    Number of basis functions: 391
    Number of Cartesian functions: 450
    Spherical Harmonics?: true
    Max angular momentum: 3

   => Loading Basis Set <=

    Name: (AUG-CC-PVTZ AUX)
    Role: JKFIT
    Keyword: DF_BASIS_SCF
    atoms 1    entry O          line   286 file /home1/07844/xy3866/miniconda3/envs/p4env/share/psi4/basis/aug-cc-pvtz-jkfit.gbs 
    atoms 2    entry N          line   224 file /home1/07844/xy3866/miniconda3/envs/p4env/share/psi4/basis/aug-cc-pvtz-jkfit.gbs 
    atoms 3-5  entry C          line   162 file /home1/07844/xy3866/miniconda3/envs/p4env/share/psi4/basis/aug-cc-pvtz-jkfit.gbs 
    atoms 6-12 entry H          line    70 file /home1/07844/xy3866/miniconda3/envs/p4env/share/psi4/basis/aug-cc-pvtz-jkfit.gbs 

  ==> Integral Setup <==

  DFHelper Memory: AOs need 1.003 GiB; user supplied 22.352 GiB. Using in-core AOs.

  ==> MemDFJK: Density-Fitted J/K Matrices <==

    J tasked:                   Yes
    K tasked:                   Yes
    wK tasked:                   No
    OpenMP threads:              32
    Memory [MiB]:             22888
    Algorithm:                 Core
    Schwarz Cutoff:           1E-12
    Mask sparsity (%):       2.9762
    Fitting Condition:        1E-10

   => Auxiliary Basis Set <=

  Basis Set: (AUG-CC-PVTZ AUX)
    Blend: AUG-CC-PVTZ-JKFIT
    Number of shells: 248
    Number of basis functions: 842
    Number of Cartesian functions: 1040
    Spherical Harmonics?: true
    Max angular momentum: 4

  Minimum eigenvalue in the overlap matrix is 9.4592306319E-06.
  Reciprocal condition number of the overlap matrix is 5.9504608748E-07.
    Using symmetric orthogonalization.

  ==> Pre-Iterations <==

  SCF Guess: Superposition of Atomic Densities via on-the-fly atomic UHF (no occupation information).

   -------------------------
    Irrep   Nso     Nmo    
   -------------------------
     A        391     391 
   -------------------------
    Total     391     391
   -------------------------

  ==> Iterations <==

                           Total Energy        Delta E     RMS |[F,P]|

   @DF-RHF iter SAD:  -246.09283658089316   -2.46093e+02   0.00000e+00 
   @DF-RHF iter   1:  -246.84164356781878   -7.48807e-01   1.39801e-03 DIIS
   @DF-RHF iter   2:  -246.99302641954972   -1.51383e-01   5.88182e-04 DIIS
   @DF-RHF iter   3:  -247.01723078931786   -2.42044e-02   1.41951e-04 DIIS
   @DF-RHF iter   4:  -247.01955585755587   -2.32507e-03   6.69337e-05 DIIS
   @DF-RHF iter   5:  -247.01991952638326   -3.63669e-04   1.40545e-05 DIIS
   @DF-RHF iter   6:  -247.01994406118226   -2.45348e-05   3.84365e-06 DIIS
   @DF-RHF iter   7:  -247.01994632964434   -2.26846e-06   1.34166e-06 DIIS
   @DF-RHF iter   8:  -247.01994655217482   -2.22530e-07   4.67158e-07 DIIS
   @DF-RHF iter   9:  -247.01994658186254   -2.96877e-08   1.40239e-07 DIIS
   @DF-RHF iter  10:  -247.01994658433799   -2.47545e-09   3.92798e-08 DIIS
   @DF-RHF iter  11:  -247.01994658457406   -2.36071e-10   7.10821e-09 DIIS
   @DF-RHF iter  12:  -247.01994658458378   -9.72022e-12   2.00798e-09 DIIS
   @DF-RHF iter  13:  -247.01994658458469   -9.09495e-13   7.83518e-10 DIIS
   @DF-RHF iter  14:  -247.01994658458503   -3.41061e-13   3.32803e-10 DIIS
   @DF-RHF iter  15:  -247.01994658458472    3.12639e-13   1.00162e-10 DIIS
   @DF-RHF iter  16:  -247.01994658458511   -3.97904e-13   5.67558e-11 DIIS
  Energy and wave function converged.


  ==> Post-Iterations <==

    Orbital Energies [Eh]
    ---------------------

    Doubly Occupied:                                                      

       1A    -20.592615     2A    -15.607887     3A    -11.280401  
       4A    -11.231744     5A    -11.227728     6A     -1.427956  
       7A     -1.151318     8A     -0.989803     9A     -0.957453  
      10A     -0.738115    11A     -0.695212    12A     -0.649969  
      13A     -0.620356    14A     -0.570437    15A     -0.565300  
      16A     -0.548777    17A     -0.547515    18A     -0.518532  
      19A     -0.427570    20A     -0.363075  

    Virtual:                                                              

      21A      0.029667    22A      0.037296    23A      0.039530  
      24A      0.042720    25A      0.057259    26A      0.064179  
      27A      0.064188    28A      0.086973    29A      0.112804  
      30A      0.119514    31A      0.122096    32A      0.131011  
      33A      0.135338    34A      0.136744    35A      0.137255  
      36A      0.141195    37A      0.144171    38A      0.162089  
      39A      0.168233    40A      0.172876    41A      0.187437  
      42A      0.197120    43A      0.210042    44A      0.214105  
      45A      0.218297    46A      0.225024    47A      0.242740  
      48A      0.246018    49A      0.282943    50A      0.287031  
      51A      0.301243    52A      0.309830    53A      0.315428  
      54A      0.318953    55A      0.327664    56A      0.331394  
      57A      0.344616    58A      0.349903    59A      0.357419  
      60A      0.360037    61A      0.361434    62A      0.367249  
      63A      0.367962    64A      0.386823    65A      0.388607  
      66A      0.391235    67A      0.409480    68A      0.423148  
      69A      0.428897    70A      0.430975    71A      0.440197  
      72A      0.440365    73A      0.449456    74A      0.455447  
      75A      0.462562    76A      0.463658    77A      0.471041  
      78A      0.480879    79A      0.488543    80A      0.498457  
      81A      0.505873    82A      0.518544    83A      0.525343  
      84A      0.527932    85A      0.546879    86A      0.549107  
      87A      0.558201    88A      0.577371    89A      0.584381  
      90A      0.601296    91A      0.601750    92A      0.615180  
      93A      0.626595    94A      0.662069    95A      0.674664  
      96A      0.683029    97A      0.704377    98A      0.718351  
      99A      0.734348   100A      0.754462   101A      0.766449  
     102A      0.777975   103A      0.789952   104A      0.794529  
     105A      0.804655   106A      0.817006   107A      0.829709  
     108A      0.836310   109A      0.838182   110A      0.855120  
     111A      0.862734   112A      0.867551   113A      0.895102  
     114A      0.899560   115A      0.911244   116A      0.912828  
     117A      0.921271   118A      0.926655   119A      0.933110  
     120A      0.943311   121A      0.949489   122A      0.954657  
     123A      0.963433   124A      0.965684   125A      0.981843  
     126A      1.005326   127A      1.016548   128A      1.025710  
     129A      1.038419   130A      1.040754   131A      1.048710  
     132A      1.054796   133A      1.070930   134A      1.076470  
     135A      1.087376   136A      1.107642   137A      1.114162  
     138A      1.118722   139A      1.124777   140A      1.143309  
     141A      1.153160   142A      1.158816   143A      1.175779  
     144A      1.197610   145A      1.209883   146A      1.214480  
     147A      1.226905   148A      1.234421   149A      1.245832  
     150A      1.256882   151A      1.274304   152A      1.277756  
     153A      1.299767   154A      1.305130   155A      1.317636  
     156A      1.329799   157A      1.341178   158A      1.347216  
     159A      1.369938   160A      1.386586   161A      1.404276  
     162A      1.415529   163A      1.422361   164A      1.433118  
     165A      1.442298   166A      1.467195   167A      1.469542  
     168A      1.487280   169A      1.527264   170A      1.539487  
     171A      1.544674   172A      1.557588   173A      1.575415  
     174A      1.621765   175A      1.629935   176A      1.632106  
     177A      1.652356   178A      1.666666   179A      1.670106  
     180A      1.676751   181A      1.684339   182A      1.690017  
     183A      1.705601   184A      1.711741   185A      1.720861  
     186A      1.743630   187A      1.755737   188A      1.757312  
     189A      1.793100   190A      1.808741   191A      1.828811  
     192A      1.839988   193A      1.848314   194A      1.877668  
     195A      1.889332   196A      1.914064   197A      1.916506  
     198A      1.931648   199A      1.940167   200A      1.953067  
     201A      1.978563   202A      2.011349   203A      2.012259  
     204A      2.023050   205A      2.046583   206A      2.063680  
     207A      2.106640   208A      2.123676   209A      2.136240  
     210A      2.153189   211A      2.159387   212A      2.207754  
     213A      2.212879   214A      2.215927   215A      2.249078  
     216A      2.249524   217A      2.256937   218A      2.269942  
     219A      2.292347   220A      2.317755   221A      2.335567  
     222A      2.346893   223A      2.388026   224A      2.398398  
     225A      2.407299   226A      2.431047   227A      2.438219  
     228A      2.494231   229A      2.495958   230A      2.510033  
     231A      2.576550   232A      2.604263   233A      2.622103  
     234A      2.636367   235A      2.670879   236A      2.736103  
     237A      2.795574   238A      2.832468   239A      2.870999  
     240A      2.902965   241A      2.918452   242A      2.996173  
     243A      3.062216   244A      3.140111   245A      3.193389  
     246A      3.230873   247A      3.243012   248A      3.296303  
     249A      3.302183   250A      3.344465   251A      3.364596  
     252A      3.369948   253A      3.381018   254A      3.454393  
     255A      3.483153   256A      3.510454   257A      3.534354  
     258A      3.560262   259A      3.561127   260A      3.585228  
     261A      3.606545   262A      3.638232   263A      3.659247  
     264A      3.669630   265A      3.713467   266A      3.718250  
     267A      3.732777   268A      3.749541   269A      3.770470  
     270A      3.788104   271A      3.813607   272A      3.867576  
     273A      3.887951   274A      3.894990   275A      3.903750  
     276A      3.907724   277A      3.939365   278A      3.952286  
     279A      3.964730   280A      3.979002   281A      3.989323  
     282A      4.057474   283A      4.072409   284A      4.073604  
     285A      4.080558   286A      4.101667   287A      4.112580  
     288A      4.168888   289A      4.182713   290A      4.190861  
     291A      4.221408   292A      4.253443   293A      4.253810  
     294A      4.308425   295A      4.310516   296A      4.323343  
     297A      4.336106   298A      4.347788   299A      4.360846  
     300A      4.420467   301A      4.432798   302A      4.455109  
     303A      4.492270   304A      4.523453   305A      4.549028  
     306A      4.555629   307A      4.605190   308A      4.644257  
     309A      4.645130   310A      4.666943   311A      4.677855  
     312A      4.700329   313A      4.739393   314A      4.746888  
     315A      4.814877   316A      4.820383   317A      4.839401  
     318A      4.859812   319A      4.868564   320A      4.903800  
     321A      4.958197   322A      5.015708   323A      5.034528  
     324A      5.044570   325A      5.066680   326A      5.091552  
     327A      5.115389   328A      5.133808   329A      5.144932  
     330A      5.162044   331A      5.215298   332A      5.261189  
     333A      5.264088   334A      5.292004   335A      5.297604  
     336A      5.343381   337A      5.385605   338A      5.394541  
     339A      5.418727   340A      5.451905   341A      5.468243  
     342A      5.489675   343A      5.517814   344A      5.542829  
     345A      5.565276   346A      5.591732   347A      5.614961  
     348A      5.695609   349A      5.695797   350A      5.716292  
     351A      5.721182   352A      5.740045   353A      5.811947  
     354A      5.857223   355A      5.934356   356A      5.958182  
     357A      5.983486   358A      6.011511   359A      6.090329  
     360A      6.107733   361A      6.141277   362A      6.197817  
     363A      6.198490   364A      6.233858   365A      6.261087  
     366A      6.362526   367A      6.415220   368A      6.527757  
     369A      6.708026   370A      6.720618   371A      6.771164  
     372A      6.794216   373A      6.813390   374A      6.818775  
     375A      6.881704   376A      7.040795   377A      7.074243  
     378A      7.291530   379A      7.378820   380A      7.407893  
     381A      7.581391   382A      7.589224   383A      7.806111  
     384A      8.167665   385A      8.349755   386A      8.593882  
     387A     15.366355   388A     16.273608   389A     16.685199  
     390A     17.810328   391A     20.390833  

    Final Occupation by Irrep:
              A 
    DOCC [    20 ]

  @DF-RHF Final Energy:  -247.01994658458511

   => Energetics <=

    Nuclear Repulsion Energy =            178.4144912267435927
    One-Electron Energy =                -689.4453482299259122
    Two-Electron Energy =                 264.0109104185971773
    Total Energy =                       -247.0199465845851137

Computation Completed

*** tstop() called on c452-002.stampede2.tacc.utexas.edu at Fri Mar 19 05:07:11 2021
Module time:
	user time   =     188.39 seconds =       3.14 minutes
	system time =      15.85 seconds =       0.26 minutes
	total time  =         13 seconds =       0.22 minutes
Total time:
	user time   =     188.39 seconds =       3.14 minutes
	system time =      15.85 seconds =       0.26 minutes
	total time  =         13 seconds =       0.22 minutes
   => Loading Basis Set <=

    Name: (AUG-CC-PVTZ AUX)
    Role: RIFIT
    Keyword: DF_BASIS_MP2
    atoms 1    entry O          line   264 file /home1/07844/xy3866/miniconda3/envs/p4env/share/psi4/basis/aug-cc-pvtz-ri.gbs 
    atoms 2    entry N          line   206 file /home1/07844/xy3866/miniconda3/envs/p4env/share/psi4/basis/aug-cc-pvtz-ri.gbs 
    atoms 3-5  entry C          line   148 file /home1/07844/xy3866/miniconda3/envs/p4env/share/psi4/basis/aug-cc-pvtz-ri.gbs 
    atoms 6-12 entry H          line    30 file /home1/07844/xy3866/miniconda3/envs/p4env/share/psi4/basis/aug-cc-pvtz-ri.gbs 


*** tstart() called on c452-002.stampede2.tacc.utexas.edu
*** at Fri Mar 19 05:07:12 2021


  //>>>>>>>>>>>>>>>>>>>>>>>>>>>>>>>>>>>//
  //               DFMP2               //
  //<<<<<<<<<<<<<<<<<<<<<<<<<<<<<<<<<<<//

	 --------------------------------------------------------
	                          DF-MP2                         
	      2nd-Order Density-Fitted Moller-Plesset Theory     
	              RMP2 Wavefunction,  32 Threads             
	                                                         
	        Rob Parrish, Justin Turney, Andy Simmonett,      
	           Ed Hohenstein, and C. David Sherrill          
	 --------------------------------------------------------

   => Auxiliary Basis Set <=

  Basis Set: (AUG-CC-PVTZ AUX)
    Blend: AUG-CC-PVTZ-RI
    Number of shells: 238
    Number of basis functions: 852
    Number of Cartesian functions: 1065
    Spherical Harmonics?: true
    Max angular momentum: 4

	 --------------------------------------------------------
	                 NBF =   391, NAUX =   852
	 --------------------------------------------------------
	   CLASS    FOCC     OCC    AOCC    AVIR     VIR    FVIR
	   PAIRS       0      20      20     371     371       0
	 --------------------------------------------------------

  DFHelper Memory: AOs need 1.016 GiB; user supplied 22.352 GiB. Using in-core AOs.


         ------------------------------------------------------------
                                     CPHF                           
                                  Rob Parrish                       
         ------------------------------------------------------------

  ==> Geometry <==

    Molecular point group: c1
    Full point group: C1

    Geometry (in Angstrom), charge = 0, multiplicity = 1:

       Center              X                  Y                   Z               Mass       
    ------------   -----------------  -----------------  -----------------  -----------------
         O            1.755242709990    -0.129317053436     0.000001157761    15.994914619570
         N            0.563020909990    -0.806692253436    -0.000001742239    14.003074004430
         C           -0.465291290010     0.003964946564    -0.000001842239    12.000000000000
         C           -1.838696290010    -0.595862053436     0.000001157761    12.000000000000
         C           -0.284901290010     1.493928946564     0.000000157761    12.000000000000
         H           -1.772685290010    -1.685420053436    -0.000035842239     1.007825032230
         H           -2.400209290010    -0.271521053436     0.882749157761     1.007825032230
         H           -2.400239290010    -0.271459053436    -0.882704842239     1.007825032230
         H           -1.249816290010     2.004492946564     0.000019157761     1.007825032230
         H            0.288870709990     1.805304946564     0.877786157761     1.007825032230
         H            0.288837709990     1.805309946564    -0.877804842239     1.007825032230
         H            2.390912709990    -0.866226053436     0.000003157761     1.007825032230

  Nuclear repulsion =  178.414491226743593
  Reference energy  = -247.019946584585114

  ==> Basis Set <==

  Basis Set: AUG-CC-PVTZ
    Blend: AUG-CC-PVTZ
    Number of shells: 133
    Number of basis functions: 391
    Number of Cartesian functions: 450
    Spherical Harmonics?: true
    Max angular momentum: 3

  ==> CGRSolver (by Rob Parrish) <==

   Number of roots    =         1
   Preconditioning    =    JACOBI
   Convergence cutoff =     1E-06
   Maximum iterations =       100

  ==> CPHFRHamiltonian (by Rob Parrish) <== 

  ==> MemDFJK: Density-Fitted J/K Matrices <==

    J tasked:                   Yes
    K tasked:                   Yes
    wK tasked:                   No
    OpenMP threads:              32
    Memory [MiB]:             22888
    Algorithm:                 Core
    Schwarz Cutoff:           1E-12
    Mask sparsity (%):       1.5855
    Fitting Condition:        1E-10

   => Auxiliary Basis Set <=

  Basis Set: (AUG-CC-PVTZ AUX)
    Blend: AUG-CC-PVTZ-JKFIT
    Number of shells: 248
    Number of basis functions: 842
    Number of Cartesian functions: 1040
    Spherical Harmonics?: true
    Max angular momentum: 4

  ==> CPHF Iterations <==

  => Iterations <=

             Iter  Converged  Remaining    Residual
  CGR           1          0          1   1.021E-01
  CGR           2          0          1   3.315E-02
  CGR           3          0          1   1.365E-02
  CGR           4          0          1   4.977E-03
  CGR           5          0          1   2.066E-03
  CGR           6          0          1   7.839E-04
  CGR           7          0          1   2.492E-04
  CGR           8          0          1   8.778E-05
  CGR           9          0          1   2.545E-05
  CGR          10          0          1   7.101E-06
  CGR          11          0          1   1.602E-06
  CGR          12          1          0   4.587E-07

    CGRSolver converged.

	-----------------------------------------------------------
	 ==================> DF-MP2 Energies <==================== 
	-----------------------------------------------------------
	 Reference Energy          =    -247.0199465845851137 [Eh]
	 Singles Energy            =      -0.0000000000000000 [Eh]
	 Same-Spin Energy          =      -0.2475285723100927 [Eh]
	 Opposite-Spin Energy      =      -0.8195561977704385 [Eh]
	 Correlation Energy        =      -1.0670847700805313 [Eh]
	 Total Energy              =    -248.0870313546656405 [Eh]
	-----------------------------------------------------------
	 ================> DF-SCS-MP2 Energies <================== 
	-----------------------------------------------------------
	 SCS Same-Spin Scale       =       0.3333333333333333 [-]
	 SCS Opposite-Spin Scale   =       1.2000000000000000 [-]
	 SCS Same-Spin Energy      =      -0.0825095241033642 [Eh]
	 SCS Opposite-Spin Energy  =      -0.9834674373245262 [Eh]
	 SCS Correlation Energy    =      -1.0659769614278904 [Eh]
	 SCS Total Energy          =    -248.0859235460129923 [Eh]
	-----------------------------------------------------------



Properties will be evaluated at  -0.000000,  -0.000000,   0.000000 [a0]

Properties computed using the MP2 density matrix

  Nuclear Dipole Moment: [e a0]
     X:    -4.5440      Y:     2.3646      Z:     0.0000

  Electronic Dipole Moment: [e a0]
     X:     4.3241      Y:    -2.1646      Z:    -0.0000

  Dipole Moment: [e a0]
     X:    -0.2199      Y:     0.2000      Z:     0.0000     Total:     0.2972

  Dipole Moment: [D]
     X:    -0.5589      Y:     0.5083      Z:     0.0000     Total:     0.7555


*** tstop() called on c452-002.stampede2.tacc.utexas.edu at Fri Mar 19 05:08:08 2021
Module time:
	user time   =     408.66 seconds =       6.81 minutes
	system time =      15.89 seconds =       0.26 minutes
	total time  =         56 seconds =       0.93 minutes
Total time:
	user time   =     598.21 seconds =       9.97 minutes
	system time =      31.82 seconds =       0.53 minutes
	total time  =         70 seconds =       1.17 minutes

    Psi4 stopped on: Friday, 19 March 2021 05:08AM
    Psi4 wall time for execution: 0:01:10.74

*** Psi4 exiting successfully. Buy a developer a beer!
