007_AcNH2 Gaussian SP Calculation on node35.bme.utexas.edu              
Freq      RMP2-FC                                                     6-31G(d)            
Number of atoms                            I                9
Info1-9                                    I   N=           9
          20          19        1002           0           0         100
           6           2           1
Charge                                     I                0
Multiplicity                               I                1
Number of electrons                        I               32
Number of alpha electrons                  I               16
Number of beta electrons                   I               16
Number of basis functions                  I               70
Number of independent functions            I               70
Number of point charges in /Mol/           I                0
Number of translation vectors              I                0
Atomic numbers                             I   N=           9
           6           8           7           1           1           6
           1           1           1
Nuclear charges                            R   N=           9
  6.00000000E+00  8.00000000E+00  7.00000000E+00  1.00000000E+00  1.00000000E+00
  6.00000000E+00  1.00000000E+00  1.00000000E+00  1.00000000E+00
Current cartesian coordinates              R   N=          27
 -1.45604597E-01  2.83187951E-01 -6.74061478E-03 -8.09189586E-01  2.50795886E+00
 -1.45417092E-02 -1.85999170E+00 -1.66602861E+00  9.78999571E-02 -3.69150290E+00
 -1.19601242E+00 -1.85361772E-01 -1.34005343E+00 -3.44467889E+00 -3.58192301E-01
  2.59666509E+00 -5.40433884E-01  8.61390383E-04  3.01781557E+00 -1.71911200E+00
 -1.64548515E+00  3.01843908E+00 -1.63917072E+00  1.69965966E+00  3.78239737E+00
  1.14097906E+00 -4.43111201E-02
Force Field                                I                0
Int Atom Types                             I   N=           9
           0           0           0           0           0           0
           0           0           0
MM charges                                 R   N=           9
  0.00000000E+00  0.00000000E+00  0.00000000E+00  0.00000000E+00  0.00000000E+00
  0.00000000E+00  0.00000000E+00  0.00000000E+00  0.00000000E+00
Integer atomic weights                     I   N=           9
          12          16          14           1           1          12
           1           1           1
Real atomic weights                        R   N=           9
  1.20000000E+01  1.59949146E+01  1.40030740E+01  1.00782504E+00  1.00782504E+00
  1.20000000E+01  1.00782504E+00  1.00782504E+00  1.00782504E+00
Atom fragment info                         I   N=           9
           0           0           0           0           0           0
           0           0           0
Atom residue num                           I   N=           9
           0           0           0           0           0           0
           0           0           0
Nuclear spins                              I   N=           9
           0           0           2           1           1           0
           1           1           1
Nuclear ZEff                               R   N=           9
 -3.60000000E+00 -5.60000000E+00 -4.55000000E+00 -1.00000000E+00 -1.00000000E+00
 -3.60000000E+00 -1.00000000E+00 -1.00000000E+00 -1.00000000E+00
Nuclear QMom                               R   N=           9
  0.00000000E+00  0.00000000E+00  2.04400000E+00  0.00000000E+00  0.00000000E+00
  0.00000000E+00  0.00000000E+00  0.00000000E+00  0.00000000E+00
Nuclear GFac                               R   N=           9
  0.00000000E+00  0.00000000E+00  4.03761000E-01  2.79284600E+00  2.79284600E+00
  0.00000000E+00  2.79284600E+00  2.79284600E+00  2.79284600E+00
MicOpt                                     I   N=           9
          -1          -1          -1          -1          -1          -1
          -1          -1          -1
Number of contracted shells                I               26
Number of primitive shells                 I               64
Pure/Cartesian d shells                    I                1
Pure/Cartesian f shells                    I                0
Highest angular momentum                   I                2
Largest degree of contraction              I                6
Shell types                                I   N=          26
           0          -1          -1           2           0          -1
          -1           2           0          -1          -1           2
           0           0           0           0           0          -1
          -1           2           0           0           0           0
           0           0
Number of primitives per shell             I   N=          26
           6           3           1           1           6           3
           1           1           6           3           1           1
           3           1           3           1           6           3
           1           1           3           1           3           1
           3           1
Shell to atom map                          I   N=          26
           1           1           1           1           2           2
           2           2           3           3           3           3
           4           4           5           5           6           6
           6           6           7           7           8           8
           9           9
Primitive exponents                        R   N=          64
  3.04752488E+03  4.57369518E+02  1.03948685E+02  2.92101553E+01  9.28666296E+00
  3.16392696E+00  7.86827235E+00  1.88128854E+00  5.44249258E-01  1.68714478E-01
  8.00000000E-01  5.48467166E+03  8.25234946E+02  1.88046958E+02  5.29645000E+01
  1.68975704E+01  5.79963534E+00  1.55396162E+01  3.59993359E+00  1.01376175E+00
  2.70005823E-01  8.00000000E-01  4.17351146E+03  6.27457911E+02  1.42902093E+02
  4.02343293E+01  1.28202129E+01  4.39043701E+00  1.16263619E+01  2.71627981E+00
  7.72218397E-01  2.12031498E-01  8.00000000E-01  1.87311370E+01  2.82539436E+00
  6.40121692E-01  1.61277759E-01  1.87311370E+01  2.82539436E+00  6.40121692E-01
  1.61277759E-01  3.04752488E+03  4.57369518E+02  1.03948685E+02  2.92101553E+01
  9.28666296E+00  3.16392696E+00  7.86827235E+00  1.88128854E+00  5.44249258E-01
  1.68714478E-01  8.00000000E-01  1.87311370E+01  2.82539436E+00  6.40121692E-01
  1.61277759E-01  1.87311370E+01  2.82539436E+00  6.40121692E-01  1.61277759E-01
  1.87311370E+01  2.82539436E+00  6.40121692E-01  1.61277759E-01
Contraction coefficients                   R   N=          64
  1.83473713E-03  1.40373228E-02  6.88426223E-02  2.32184443E-01  4.67941348E-01
  3.62311985E-01 -1.19332420E-01 -1.60854152E-01  1.14345644E+00  1.00000000E+00
  1.00000000E+00  1.83107443E-03  1.39501722E-02  6.84450781E-02  2.32714336E-01
  4.70192898E-01  3.58520853E-01 -1.10777550E-01 -1.48026263E-01  1.13076702E+00
  1.00000000E+00  1.00000000E+00  1.83477216E-03  1.39946270E-02  6.85865518E-02
  2.32240873E-01  4.69069948E-01  3.60455199E-01 -1.14961182E-01 -1.69117479E-01
  1.14585195E+00  1.00000000E+00  1.00000000E+00  3.34946043E-02  2.34726953E-01
  8.13757326E-01  1.00000000E+00  3.34946043E-02  2.34726953E-01  8.13757326E-01
  1.00000000E+00  1.83473713E-03  1.40373228E-02  6.88426223E-02  2.32184443E-01
  4.67941348E-01  3.62311985E-01 -1.19332420E-01 -1.60854152E-01  1.14345644E+00
  1.00000000E+00  1.00000000E+00  3.34946043E-02  2.34726953E-01  8.13757326E-01
  1.00000000E+00  3.34946043E-02  2.34726953E-01  8.13757326E-01  1.00000000E+00
  3.34946043E-02  2.34726953E-01  8.13757326E-01  1.00000000E+00
P(S=P) Contraction coefficients            R   N=          64
  0.00000000E+00  0.00000000E+00  0.00000000E+00  0.00000000E+00  0.00000000E+00
  0.00000000E+00  6.89990666E-02  3.16423961E-01  7.44308291E-01  1.00000000E+00
  0.00000000E+00  0.00000000E+00  0.00000000E+00  0.00000000E+00  0.00000000E+00
  0.00000000E+00  0.00000000E+00  7.08742682E-02  3.39752839E-01  7.27158577E-01
  1.00000000E+00  0.00000000E+00  0.00000000E+00  0.00000000E+00  0.00000000E+00
  0.00000000E+00  0.00000000E+00  0.00000000E+00  6.75797439E-02  3.23907296E-01
  7.40895140E-01  1.00000000E+00  0.00000000E+00  0.00000000E+00  0.00000000E+00
  0.00000000E+00  0.00000000E+00  0.00000000E+00  0.00000000E+00  0.00000000E+00
  0.00000000E+00  0.00000000E+00  0.00000000E+00  0.00000000E+00  0.00000000E+00
  0.00000000E+00  0.00000000E+00  6.89990666E-02  3.16423961E-01  7.44308291E-01
  1.00000000E+00  0.00000000E+00  0.00000000E+00  0.00000000E+00  0.00000000E+00
  0.00000000E+00  0.00000000E+00  0.00000000E+00  0.00000000E+00  0.00000000E+00
  0.00000000E+00  0.00000000E+00  0.00000000E+00  0.00000000E+00
Coordinates of each shell                  R   N=          78
 -1.45604597E-01  2.83187951E-01 -6.74061478E-03 -1.45604597E-01  2.83187951E-01
 -6.74061478E-03 -1.45604597E-01  2.83187951E-01 -6.74061478E-03 -1.45604597E-01
  2.83187951E-01 -6.74061478E-03 -8.09189586E-01  2.50795886E+00 -1.45417092E-02
 -8.09189586E-01  2.50795886E+00 -1.45417092E-02 -8.09189586E-01  2.50795886E+00
 -1.45417092E-02 -8.09189586E-01  2.50795886E+00 -1.45417092E-02 -1.85999170E+00
 -1.66602861E+00  9.78999571E-02 -1.85999170E+00 -1.66602861E+00  9.78999571E-02
 -1.85999170E+00 -1.66602861E+00  9.78999571E-02 -1.85999170E+00 -1.66602861E+00
  9.78999571E-02 -3.69150290E+00 -1.19601242E+00 -1.85361772E-01 -3.69150290E+00
 -1.19601242E+00 -1.85361772E-01 -1.34005343E+00 -3.44467889E+00 -3.58192301E-01
 -1.34005343E+00 -3.44467889E+00 -3.58192301E-01  2.59666509E+00 -5.40433884E-01
  8.61390383E-04  2.59666509E+00 -5.40433884E-01  8.61390383E-04  2.59666509E+00
 -5.40433884E-01  8.61390383E-04  2.59666509E+00 -5.40433884E-01  8.61390383E-04
  3.01781557E+00 -1.71911200E+00 -1.64548515E+00  3.01781557E+00 -1.71911200E+00
 -1.64548515E+00  3.01843908E+00 -1.63917072E+00  1.69965966E+00  3.01843908E+00
 -1.63917072E+00  1.69965966E+00  3.78239737E+00  1.14097906E+00 -4.43111201E-02
  3.78239737E+00  1.14097906E+00 -4.43111201E-02
Constraint Structure                       R   N=          27
 -1.45604597E-01  2.83187951E-01 -6.74061478E-03 -8.09189586E-01  2.50795886E+00
 -1.45417092E-02 -1.85999170E+00 -1.66602861E+00  9.78999571E-02 -3.69150290E+00
 -1.19601242E+00 -1.85361772E-01 -1.34005343E+00 -3.44467889E+00 -3.58192301E-01
  2.59666509E+00 -5.40433884E-01  8.61390383E-04  3.01781557E+00 -1.71911200E+00
 -1.64548515E+00  3.01843908E+00 -1.63917072E+00  1.69965966E+00  3.78239737E+00
  1.14097906E+00 -4.43111201E-02
Num ILSW                                   I              100
ILSW                                       I   N=         100
           0           1           0           0           2           0
           0           0           0           0           0          -1
           0           0           0           0           0           0
           0           0           0           0           1           0
           1           0           0           0           0           0
           0           0      100000           0          -1           0
           0           0           0           0           0           0
           0           0           0           1           1           0
           0           0           1           0           0           0
           0           0           4          40           0           0
           0           0           0           0           0           0
           0           0           0           0           0           0
           0           0           0           0           0           0
           0           0           0           0           0           0
           0           0           0           0           0           0
           0           0           0           0           0           0
           0           0           0           0
Num RLSW                                   I               40
RLSW                                       R   N=          40
  1.00000000E+00  1.00000000E+00  1.00000000E+00  1.00000000E+00  1.00000000E+00
  0.00000000E+00  0.00000000E+00  1.00000000E+00  0.00000000E+00  0.00000000E+00
  0.00000000E+00  0.00000000E+00  1.00000000E+00  0.00000000E+00  0.00000000E+00
  0.00000000E+00  0.00000000E+00  1.00000000E+00  0.00000000E+00  0.00000000E+00
  0.00000000E+00  0.00000000E+00  1.00000000E+00  0.00000000E+00  0.00000000E+00
  0.00000000E+00  0.00000000E+00  1.00000000E+00  0.00000000E+00  0.00000000E+00
  0.00000000E+00  0.00000000E+00  0.00000000E+00  0.00000000E+00  0.00000000E+00
  0.00000000E+00  0.00000000E+00  0.00000000E+00  1.00000000E+00  1.00000000E+00
MxBond                                     I                4
NBond                                      I   N=           9
           3           1           3           1           1           4
           1           1           1
IBond                                      I   N=          36
           2           3           6           0           1           0
           0           0           1           4           5           0
           3           0           0           0           3           0
           0           0           1           7           8           9
           6           0           0           0           6           0
           0           0           6           0           0           0
RBond                                      R   N=          36
  2.00000000E+00  1.00000000E+00  1.00000000E+00  0.00000000E+00  2.00000000E+00
  0.00000000E+00  0.00000000E+00  0.00000000E+00  1.00000000E+00  1.00000000E+00
  1.00000000E+00  0.00000000E+00  1.00000000E+00  0.00000000E+00  0.00000000E+00
  0.00000000E+00  1.00000000E+00  0.00000000E+00  0.00000000E+00  0.00000000E+00
  1.00000000E+00  1.00000000E+00  1.00000000E+00  1.00000000E+00  1.00000000E+00
  0.00000000E+00  0.00000000E+00  0.00000000E+00  1.00000000E+00  0.00000000E+00
  0.00000000E+00  0.00000000E+00  1.00000000E+00  0.00000000E+00  0.00000000E+00
  0.00000000E+00
Virial Ratio                               R      2.002966929393178E+00
SCF Energy                                 R     -2.079732749590462E+02
MP2 Energy                                 R     -2.085691487033971E+02
Total Energy                               R     -2.085691487033971E+02
Post-SCF wavefunction norm                 R      1.539067009748535E+00
RMS Force                                  R      2.645735335873963E-08
RMS Density                                R      3.444155610606307E-09
External E-field                           R   N=          35
  0.00000000E+00  0.00000000E+00  0.00000000E+00  0.00000000E+00  0.00000000E+00
  0.00000000E+00  0.00000000E+00  0.00000000E+00  0.00000000E+00  0.00000000E+00
  0.00000000E+00  0.00000000E+00  0.00000000E+00  0.00000000E+00  0.00000000E+00
  0.00000000E+00  0.00000000E+00  0.00000000E+00  0.00000000E+00  0.00000000E+00
  0.00000000E+00  0.00000000E+00  0.00000000E+00  0.00000000E+00  0.00000000E+00
  0.00000000E+00  0.00000000E+00  0.00000000E+00  0.00000000E+00  0.00000000E+00
  0.00000000E+00  0.00000000E+00  0.00000000E+00  0.00000000E+00  0.00000000E+00
IOpCl                                      I                0
IROHF                                      I                0
Alpha Orbital Energies                     R   N=          70
 -2.05245491E+01 -1.55869654E+01 -1.13564173E+01 -1.12391252E+01 -1.36939626E+00
 -1.20466106E+00 -1.00357008E+00 -7.91312123E-01 -7.16228425E-01 -6.57825388E-01
 -6.12226341E-01 -5.78693877E-01 -5.59151648E-01 -5.20478715E-01 -4.20806206E-01
 -4.07881032E-01  1.90966576E-01  2.14275014E-01  2.63330584E-01  2.87841892E-01
  3.10787662E-01  3.29608080E-01  3.98817547E-01  4.86846095E-01  5.46517311E-01
  7.43491927E-01  7.50116456E-01  8.04180622E-01  8.31719315E-01  8.52876287E-01
  9.36729714E-01  9.48777382E-01  9.91418430E-01  1.01307736E+00  1.12174082E+00
  1.12524701E+00  1.15116969E+00  1.17481091E+00  1.20057698E+00  1.21629408E+00
  1.33670165E+00  1.35263422E+00  1.42762951E+00  1.45829354E+00  1.61311875E+00
  1.65517130E+00  1.68953247E+00  1.85275178E+00  2.01206314E+00  2.06550359E+00
  2.11017196E+00  2.12086540E+00  2.19404730E+00  2.27349753E+00  2.34374664E+00
  2.46279835E+00  2.48428478E+00  2.54878666E+00  2.61231560E+00  2.73925218E+00
  2.78577074E+00  2.91961251E+00  2.97180540E+00  3.15930077E+00  3.33492952E+00
  3.42069033E+00  4.20732491E+00  4.41443717E+00  4.59411777E+00  4.84852681E+00
Alpha MO coefficients                      R   N=        4900
 -3.87463671E-06  4.91859008E-04 -3.07035088E-06 -2.71911122E-05  1.15013545E-06
 -2.23392367E-04  3.19789252E-04 -5.85055117E-04  6.54988573E-06 -9.63209010E-05
 -7.15548724E-04 -4.23861284E-05  2.20880961E-04 -2.78535919E-06  2.86412365E-06
  9.94691038E-01  2.09667799E-02  4.13950263E-04 -1.48397804E-03  3.96789120E-06
  4.54272791E-03 -2.28246609E-05  3.53949650E-05 -2.77795295E-06 -3.87935632E-03
 -3.66240982E-03 -4.11973009E-03 -8.47131332E-05  1.66775548E-07  5.24993992E-07
 -4.65535432E-06 -1.88608352E-05  1.07503025E-05 -3.58280639E-05  1.94285859E-06
 -3.81795804E-06 -8.72283359E-05  6.16046437E-05 -4.46414984E-06  6.57097978E-05
 -7.93273735E-05 -3.88335455E-05  1.53432994E-05 -4.42333672E-07 -5.33500683E-06
 -2.98822393E-05 -4.29560929E-05  3.56782523E-05 -1.23315069E-05  8.19905926E-07
  1.80059072E-05  8.37851329E-06 -2.49517865E-05  4.72334422E-07 -2.02293319E-04
  1.76871164E-04  1.19645773E-05 -1.98057256E-06  8.85202323E-06 -3.33337397E-05
 -1.58511735E-05  4.68583401E-05 -3.11955003E-07  1.23376449E-07  1.52226521E-05
 -2.99604289E-05  1.48947482E-05 -2.74186173E-05  8.79966818E-06 -6.45744043E-05
  1.46805896E-05  1.98233253E-04 -1.31824060E-04 -1.62594109E-04  5.12543476E-06
  1.09781127E-03 -8.33097909E-04 -9.86175896E-04 -8.03575318E-05 -8.86462987E-05
 -1.33037515E-04 -7.15433681E-05 -3.44177393E-05  6.96077991E-06  2.11241453E-06
 -9.21654275E-06 -7.86735924E-05 -8.42434019E-06  1.94322309E-05 -5.71473989E-07
  3.76982195E-04  2.89790155E-04 -1.78815081E-05  2.67806359E-05 -3.20122137E-06
 -5.01173984E-05 -8.16501743E-05 -6.11339831E-05  2.88398242E-06 -5.99142071E-06
  9.94910842E-01  2.51897945E-02  8.78497462E-05  5.22440724E-05 -5.64083538E-04
 -2.28485700E-03 -4.23350208E-04 -4.59321549E-04  3.78485828E-04 -3.56674896E-03
 -3.56407678E-03 -3.44884708E-03 -1.17687047E-06  6.43196874E-06 -6.44742830E-06
  2.72843640E-04  3.06893477E-04  2.46541452E-04  3.64715301E-04 -1.15748746E-05
 -5.01549438E-05  4.16013657E-05  1.56880870E-05 -4.07869015E-06  2.63482123E-04
 -1.37081569E-05  2.34088101E-04  4.43456772E-05 -4.77793411E-05  2.11073355E-05
 -4.91687862E-05 -3.80721911E-05 -3.86184983E-06 -1.77796070E-06  4.32727102E-06
 -4.55389992E-06 -1.35894361E-06 -4.20238076E-05 -3.09550870E-05 -2.52106677E-05
  9.95851192E-01  2.61856869E-02 -4.21588078E-04 -1.24986042E-04  5.89021896E-05
 -7.63492969E-03 -3.71795251E-03  3.81036032E-03 -5.94160736E-05 -1.39041832E-03
 -6.83400362E-04 -2.29856784E-03 -7.90067962E-05 -2.54510417E-05 -2.36575117E-05
 -2.26760839E-04  7.57481147E-04  5.15580435E-05 -3.06521604E-04 -6.07351040E-06
 -3.95452422E-03 -4.75341264E-05  1.90250383E-03  1.87784399E-05  3.01104313E-04
  7.87686867E-05  4.87079362E-04 -4.08807693E-05  5.48976148E-07 -1.42110901E-06
 -2.90189264E-04  1.65050070E-04 -1.42422264E-04 -2.19930217E-05  7.71028276E-06
  1.51776204E-03  1.04697658E-03 -1.24346909E-03 -4.42401754E-05 -3.81570052E-04
 -5.45347479E-04  4.27692897E-05 -3.52549956E-04 -2.52895975E-05  7.33784304E-05
  2.16985859E-04  3.06816928E-04 -2.22888673E-04 -5.15067035E-04  2.50814281E-03
  6.29193388E-05  4.19983841E-05 -5.44066087E-05  1.77064770E-06  4.64228044E-03
 -2.50401266E-03  3.14720906E-04  3.79763289E-07 -4.46767664E-04 -2.42423282E-04
 -8.56427553E-05  1.48847414E-04  8.11989646E-08  7.16025181E-06 -2.23353035E-04
  2.99289931E-04 -2.03595356E-04  2.53561978E-04 -1.05170107E-04  1.71021462E-04
 -2.83741498E-03  5.62085814E-05  5.54084780E-05 -3.76143704E-05 -5.93172387E-06
  3.04526319E-03  2.84545871E-03  9.95841351E-05 -4.60806420E-05 -5.65312935E-04
 -2.87193992E-04 -1.35781012E-04  9.60789676E-05  5.17371535E-06  7.28907413E-06
 -1.32775406E-05 -1.22640356E-04 -1.52845926E-05  1.71986489E-05 -2.09479148E-06
  2.09523456E-04 -3.56713933E-04 -2.85871260E-04  1.64594333E-05 -5.16803364E-05
  8.65616932E-05 -1.45503110E-04  2.09639710E-05  2.11511445E-06 -2.62229801E-06
 -4.07463356E-05 -2.85768297E-04 -1.09434281E-04 -1.94586841E-05 -7.19582546E-06
  1.23549819E-03  6.96204197E-04  5.67045551E-04  6.04030001E-06  1.00315878E-05
  1.78482115E-05 -2.01195910E-04  5.30821319E-05 -1.28822930E-05  1.86080906E-06
  9.26253241E-06  3.22683684E-04 -1.08881987E-04  1.73196203E-04  9.95708048E-01
  2.87655488E-02 -2.53686524E-04 -1.18574497E-04 -1.79099894E-05 -1.56855708E-02
  1.08246097E-03 -2.98618387E-04  2.31989898E-05 -1.89477563E-03 -1.89466073E-03
 -1.87058746E-03  4.48129397E-05 -1.73580911E-06 -9.59781398E-07  1.43406608E-04
  2.58944752E-03  1.48284133E-04  2.57429712E-03  1.84130527E-04  2.45437733E-03
 -1.24293846E-01  2.42384374E-01 -6.32968775E-02  1.27966914E-01  2.71951771E-04
  6.83096341E-02  2.41132630E-02 -2.83213869E-02 -7.70286542E-04 -9.74448838E-03
  2.59437010E-02 -1.88818712E-02 -1.04720189E-02 -3.31017932E-05 -1.66486448E-04
 -1.80681534E-01  3.94382544E-01  3.34841340E-02 -1.23571837E-01  4.25944196E-04
  3.78060869E-01  1.14061712E-02 -5.42333593E-02  9.07170661E-05 -2.36720432E-03
  1.57543337E-02 -3.10349046E-03 -5.66798609E-03  5.37956476E-05 -7.20072928E-05
 -5.53778967E-02  1.16473948E-01  2.16375236E-02  3.78845218E-02 -7.62938085E-03
  9.79282281E-02  5.86172603E-04  1.96115770E-02 -3.68805269E-03  4.92929995E-03
  8.96121009E-03 -2.25584490E-03  4.11875302E-03  8.38117730E-05 -1.83142503E-04
  2.68623072E-02 -1.35067087E-03  2.36372219E-02  8.68718761E-04 -2.00148188E-02
  3.83736796E-02 -2.65624293E-02  1.17166075E-02 -1.24060811E-04  4.12794123E-03
  6.49271634E-03  5.62245492E-03  3.85978805E-04  6.72376771E-03  1.19142886E-03
 -3.82079719E-04 -3.78840689E-03  1.42425940E-05 -4.52379369E-05  7.29241757E-03
  7.43796807E-04  7.23406084E-03  4.08376140E-04  9.03128784E-03 -1.67925002E-03
 -3.93119197E-02  8.34380063E-02 -4.95469090E-02 -1.92199096E-01  2.06955070E-03
  2.04812751E-02  1.54226620E-02  2.88872778E-03  5.14020351E-04  1.14393258E-02
 -2.45476632E-03 -3.64803236E-03  2.28101513E-02 -2.28605515E-04 -1.43091318E-04
  8.39618014E-02 -1.84669958E-01 -2.37998877E-02  2.31003202E-02  3.42860920E-04
 -1.88514779E-01 -1.33463138E-02  8.15722831E-03  1.55499756E-04 -1.47741427E-03
 -2.41136498E-03  1.38489754E-03  3.61846675E-03 -5.05590299E-05 -6.04664491E-06
 -1.83254291E-01  3.79477291E-01  2.64594349E-02  1.48409139E-02 -2.98264327E-02
  4.09654750E-01  1.44502585E-02  5.34783770E-03 -1.82676580E-02  1.56420092E-02
  1.37481182E-02 -8.77000575E-03 -2.61308626E-03  6.46499084E-04  3.73596920E-03
  1.05643078E-01  1.23818435E-03  1.14832023E-01  2.08321477E-03 -2.01894356E-02
  3.79931421E-02 -2.17795769E-02 -8.77510207E-03  5.99201745E-05  2.34094698E-02
 -3.59725103E-03 -1.07095217E-02 -2.14029772E-04  3.92824252E-03 -1.26030308E-03
  7.23561005E-04  6.95535935E-04  6.93133898E-05  7.01674934E-05  1.18110525E-02
  1.56776065E-03  1.18546361E-02  8.98159251E-04  4.89893758E-03  4.82397112E-04
 -5.72739348E-02  1.21289448E-01  1.68581147E-01 -6.55945712E-02  7.60043705E-04
  7.76924804E-02  2.29259199E-02 -3.04777338E-02 -1.12295470E-03  1.59809447E-02
 -6.63122431E-03 -4.29543994E-03 -8.08289775E-03 -1.66156681E-04 -2.13864359E-04
  3.64018926E-02 -8.39521430E-02  3.88764909E-02 -1.16319117E-03  1.89727471E-04
 -8.25617510E-02  1.91295004E-02 -3.75636236E-03  6.10093932E-04  4.79876615E-04
 -2.83699763E-03 -3.93235556E-04 -3.96127930E-03  6.05493533E-05 -8.71740664E-05
  4.70593761E-02 -9.76006825E-02  7.00565676E-02  1.42818628E-02  1.16526039E-02
 -1.35557525E-01  2.41177973E-02  5.29178869E-03  7.54092063E-03 -2.96213141E-03
 -4.16229644E-03  2.23346859E-03  5.37820158E-03 -2.20873301E-03 -1.30297748E-03
 -6.19463921E-02 -1.04169096E-02 -3.16999185E-02 -3.57681687E-03 -1.79138437E-01
  3.32676427E-01 -3.34651913E-02  5.35925003E-03 -2.99023254E-04  3.34257845E-01
 -5.49651374E-03 -1.73259079E-03 -8.37028963E-05  8.09624497E-03  8.30848253E-03
  8.35842131E-03 -3.33077122E-05  5.22750278E-06  2.45252717E-05  1.15593831E-01
  2.48533444E-02  1.15100061E-01  2.30155986E-02  1.11284559E-01  2.09225712E-02
 -1.17028523E-01  2.59382092E-01 -8.86246779E-02 -1.39535622E-01  1.47495317E-02
  1.76433333E-01  3.01322874E-02 -5.25998483E-02 -3.22318305E-03  3.36146814E-03
  2.84779016E-03 -1.09786709E-02  1.07181914E-02 -1.80564031E-03 -1.86086307E-03
  5.79637701E-02 -1.33512137E-01 -1.09301581E-02 -1.30284815E-01  6.50080637E-03
 -1.70700983E-01 -9.63629193E-03 -7.42225275E-02  5.46360902E-03 -5.64853528E-03
  9.98045552E-03 -1.75291795E-03 -8.95663665E-05  3.79820947E-04 -9.58092293E-04
  3.33026132E-02 -7.03959807E-02  2.36336298E-01  2.72008139E-01  3.86545046E-02
 -1.00679219E-01  1.18748930E-01  1.53825743E-01  2.45840811E-02 -6.05725128E-03
 -5.12493990E-03  2.48071418E-04  2.19457566E-02 -4.86188657E-03 -8.60029100E-03
 -1.19022644E-01 -4.35887900E-02 -1.37371220E-01 -4.87152654E-02  5.53103766E-02
 -9.76998992E-02 -1.38972844E-01  1.14389729E-02  4.30040791E-03 -1.59753946E-01
 -2.87271742E-02  7.02359010E-03  4.74170191E-03  1.17475535E-02 -1.01277574E-02
 -7.78367182E-03 -6.03215486E-03 -1.59947387E-04 -2.41299756E-04 -6.42237611E-02
 -3.04734792E-02 -5.97925904E-02 -2.93959127E-02 -8.01127380E-02 -4.46999980E-02
  8.33262490E-03 -1.51202518E-02 -1.45033873E-01  4.56950894E-02  9.33189975E-03
 -2.70501488E-02 -2.48463667E-02 -3.36629239E-03  1.61527881E-03  1.34448832E-02
 -1.38057356E-02 -8.08883887E-05  2.64177160E-03 -7.44521987E-04 -5.31320462E-04
  2.25211097E-02 -4.97889379E-02 -7.60229582E-02 -8.77891373E-02  6.34183742E-03
 -7.79602133E-02 -4.46126096E-02 -4.58365284E-02  3.41606019E-03 -2.69258349E-03
  7.69937082E-03 -6.16126190E-04  2.85489314E-03  2.45145753E-04 -5.65861503E-04
 -2.05873796E-03  7.27739845E-03 -2.88457273E-01  3.20555183E-01  2.53011342E-02
  4.79567378E-03 -1.88089530E-01  1.93189581E-01  1.54656731E-02  1.85245625E-02
 -1.76487207E-02 -8.25127319E-04  2.31600351E-03  1.13209832E-02 -1.29748802E-02
  1.96225908E-01  6.90836026E-02 -2.17066683E-01 -9.00400240E-02 -3.13581965E-02
  5.66177236E-02  1.27517399E-01 -4.46998528E-03  4.82341700E-03  7.79301502E-02
  5.92313462E-02  1.13222063E-04  3.93634182E-03 -7.76522720E-03  6.78728135E-03
  6.06084975E-03  5.68926069E-03 -3.88934752E-04 -5.52128266E-04  3.98078270E-02
  1.72341493E-02  4.37971632E-02  2.19749849E-02  6.45870690E-02  2.92684838E-02
 -5.71249082E-02  1.31809091E-01  2.03931277E-01  2.17643070E-01 -2.14530855E-02
  1.28095519E-01  7.67460950E-02 -1.14366848E-02 -3.67196313E-03 -7.68482587E-05
 -1.82374978E-03 -4.25145944E-03 -6.83325531E-03  1.29681775E-03  1.01959670E-03
  6.40404467E-02 -1.48581764E-01  2.56770607E-01 -2.18668214E-01 -1.30338174E-02
 -2.31459505E-01  1.54217594E-01 -1.25840284E-01 -9.22804309E-03  1.96296301E-03
  1.13419817E-02 -4.88882368E-03 -1.98814342E-02 -4.61051040E-04  1.43808283E-03
  3.46051258E-03 -7.37778630E-03 -1.89449494E-01 -9.37547832E-02 -2.71129122E-02
 -2.08238390E-02 -1.34790752E-01 -5.39188564E-02 -1.99982603E-02  6.76078654E-03
 -1.32540965E-03  6.63138855E-04 -7.61422945E-03  4.63057173E-03  1.31529703E-03
  9.22441045E-02  3.01058252E-02  2.07552500E-02  1.02292601E-02  1.48177913E-02
 -2.23510396E-02 -1.27041832E-01  2.13388238E-01 -1.49077333E-02 -5.99294106E-02
 -3.37168869E-02  1.15934655E-01 -9.86957798E-03  1.46207186E-02 -8.60546970E-05
 -1.71994294E-02 -2.59795952E-03  2.76813001E-04  1.10085290E-04 -9.45480615E-02
 -6.37526564E-02 -1.03714980E-01 -6.55966635E-02  4.36631255E-02  1.53284334E-02
  3.99722817E-03 -7.78420604E-03  3.45412086E-02  1.69098496E-03  2.17515303E-01
 -3.85840169E-03  9.21556318E-03  4.73604171E-03  9.49541245E-02  3.19111553E-04
 -2.09764266E-04  1.25904590E-03  1.06744708E-03 -7.31615705E-04  1.11178824E-03
 -2.91459439E-03  7.12610314E-03  2.74435559E-02  2.83787900E-02  1.89642009E-01
  9.97564074E-03  1.75577121E-02  1.77561647E-02  1.25048346E-01  1.59343527E-03
 -2.22952595E-03  4.03962800E-04 -1.34679314E-03  5.27738490E-03 -1.74017307E-02
 -9.86442008E-03  2.36021559E-02 -1.11814888E-02 -2.00646889E-02  1.76641751E-01
  3.43885113E-02 -6.56142388E-03 -1.74101114E-02  1.29843650E-01  2.67263858E-03
  1.13238298E-03 -3.75705181E-03 -2.64317103E-04  6.60756053E-03  5.99429378E-03
  9.91883209E-05  2.09260917E-03 -5.97222277E-03 -5.54155596E-03  2.84140604E-05
  4.43168598E-04 -1.12559439E-02  3.25539375E-02  3.44626057E-01  2.27592116E-03
 -4.51579191E-03  1.49191288E-02  1.80640963E-01  1.55230667E-03 -9.22422386E-04
 -9.42340173E-04  4.82017522E-04  1.51311178E-03 -2.53086583E-02 -1.88671025E-01
 -1.44225105E-01  1.66852131E-01  1.23182883E-01  7.90964695E-03  6.62062838E-03
  8.54265819E-03 -2.85756917E-02  2.41840698E-01 -2.59646357E-01 -7.84914436E-03
  3.60720411E-02  7.36061788E-02 -3.52725158E-02 -4.68200003E-03  2.03448483E-02
 -1.56357983E-02  4.36729424E-03  1.38132476E-02 -1.26998110E-03 -6.47552933E-04
 -4.86047951E-02  1.09267150E-01  3.69418479E-02  4.21857425E-01 -1.01698017E-02
  2.20460657E-01  2.92361610E-02  2.59819506E-01 -6.99690721E-03  9.81057969E-03
 -3.09019498E-02  5.56572102E-03  1.13281072E-03 -2.32752096E-04  9.08845783E-04
 -5.43114324E-03  1.10588672E-02 -1.04473118E-01  1.37773872E-01  1.37299632E-02
  2.51184165E-02 -6.56264789E-02  8.24878598E-02  8.00020401E-03  1.64182057E-02
 -1.76543543E-02 -8.42347228E-04  1.58385114E-03  4.04807379E-03 -5.56917484E-03
  9.28636449E-02  5.96660768E-02 -1.08364603E-01 -7.62589557E-02 -6.61852321E-04
  4.25327561E-03 -2.04438468E-01  1.12997428E-01 -3.85235774E-02  4.82998157E-04