
    -----------------------------------------------------------------------
          Psi4: An Open-Source Ab Initio Electronic Structure Package
                               Psi4 1.3.2 release

                         Git: Rev {HEAD} ecbda83 


    R. M. Parrish, L. A. Burns, D. G. A. Smith, A. C. Simmonett,
    A. E. DePrince III, E. G. Hohenstein, U. Bozkaya, A. Yu. Sokolov,
    R. Di Remigio, R. M. Richard, J. F. Gonthier, A. M. James,
    H. R. McAlexander, A. Kumar, M. Saitow, X. Wang, B. P. Pritchard,
    P. Verma, H. F. Schaefer III, K. Patkowski, R. A. King, E. F. Valeev,
    F. A. Evangelista, J. M. Turney, T. D. Crawford, and C. D. Sherrill,
    J. Chem. Theory Comput. 13(7) pp 3185--3197 (2017).
    (doi: 10.1021/acs.jctc.7b00174)


                         Additional Contributions by
    P. Kraus, H. Kruse, M. H. Lechner, M. C. Schieber, R. A. Shaw,
    A. Alenaizan, R. Galvelis, Z. L. Glick, S. Lehtola, and J. P. Misiewicz

    -----------------------------------------------------------------------


    Psi4 started on: Thursday, 05 November 2020 07:12PM

    Process ID: 94992
    Host:       node142.bme.utexas.edu
    PSIDATADIR: /home/xy3866/psi4conda/share/psi4
    Memory:     500.0 MiB
    Threads:    8
    
  ==> Input File <==

--------------------------------------------------------------------------
#psi4
#
memory 32 gb

molecule  {
0 1
  C       -0.5608925     0.0778122     0.0560802
  C        0.8671890     0.8245510    -0.0008470
  C       -0.5186390    -0.8803510    -1.2490450
  C       -1.6124710     0.9760830    -0.0007580
  C       -0.5183990    -0.8781140     1.2506300
  C        2.1754120     0.0349960    -0.0000500
  H        0.8502280     1.4838230    -0.8795210
  H        0.8502290     1.4855890     0.8765000
  H        0.2706380    -1.6377050    -1.2666100
  H       -0.4322060    -0.2762080    -2.1593560
  H       -1.4806460    -1.4035230    -1.2819340
  H       -1.5874350     1.6202330     0.8851840
  H       -1.5876340     1.6186070    -0.8878840
  H       -2.5658430     0.4362680    -0.0001590
  H        0.2708010    -1.6355150     1.2692820
  H       -1.4804630    -1.4011040     1.2847180
  H       -0.4316200    -0.2723440     2.1598230
  H        2.2659520    -0.6017660    -0.8839470
  H        3.0286720     0.7201300    -0.0010770
  H        2.2662480    -0.5994780     0.8854570
units angstrom
no_reorient  #important for SAPT in psi4, default
symmetry c1  #important for SAPT in psi4, default
}

set PROPERTIES_ORIGIN ["COM"]
properties('MP2/aug-cc-pvtz', properties = ['dipole'])
--------------------------------------------------------------------------

  Memory set to  29.802 GiB by Python driver.
    SCF Algorithm Type (re)set to DF.

*** tstart() called on node142.bme.utexas.edu
*** at Thu Nov  5 19:12:18 2020

   => Loading Basis Set <=

    Name: AUG-CC-PVTZ
    Role: ORBITAL
    Keyword: BASIS
    atoms 1-6  entry C          line   235 file /home/xy3866/psi4conda/share/psi4/basis/aug-cc-pvtz.gbs 
    atoms 7-20 entry H          line    36 file /home/xy3866/psi4conda/share/psi4/basis/aug-cc-pvtz.gbs 


         ---------------------------------------------------------
                                   SCF
               by Justin Turney, Rob Parrish, Andy Simmonett
                          and Daniel G. A. Smith
                              RHF Reference
                        8 Threads,  30517 MiB Core
         ---------------------------------------------------------

  ==> Geometry <==

    Molecular point group: c1
    Full point group: C1

    Geometry (in Angstrom), charge = 0, multiplicity = 1:

       Center              X                  Y                   Z               Mass       
    ------------   -----------------  -----------------  -----------------  -----------------
         C           -0.540281184806     0.061633849776     0.048269195051    12.000000000000
         C            0.887800315194     0.808372649776    -0.008658004949    12.000000000000
         C           -0.498027684806    -0.896529350224    -1.256856004949    12.000000000000
         C           -1.591859684806     0.959904649776    -0.008569004949    12.000000000000
         C           -0.497787684806    -0.894292350224     1.242818995051    12.000000000000
         C            2.196023315194     0.018817649776    -0.007861004949    12.000000000000
         H            0.870839315194     1.467644649776    -0.887332004949     1.007825032230
         H            0.870840315194     1.469410649776     0.868688995051     1.007825032230
         H            0.291249315194    -1.653883350224    -1.274421004949     1.007825032230
         H           -0.411594684806    -0.292386350224    -2.167167004949     1.007825032230
         H           -1.460034684806    -1.419701350224    -1.289745004949     1.007825032230
         H           -1.566823684806     1.604054649776     0.877372995051     1.007825032230
         H           -1.567022684806     1.602428649776    -0.895695004949     1.007825032230
         H           -2.545231684806     0.420089649776    -0.007970004949     1.007825032230
         H            0.291412315194    -1.651693350224     1.261470995051     1.007825032230
         H           -1.459851684806    -1.417282350224     1.276906995051     1.007825032230
         H           -0.411008684806    -0.288522350224     2.152011995051     1.007825032230
         H            2.286563315194    -0.617944350224    -0.891758004949     1.007825032230
         H            3.049283315194     0.703951649776    -0.008888004949     1.007825032230
         H            2.286859315194    -0.615656350224     0.877645995051     1.007825032230

  Running in c1 symmetry.

  Rotational constants: A =      0.14397  B =      0.08300  C =      0.08271 [cm^-1]
  Rotational constants: A =   4316.10022  B =   2488.17245  C =   2479.61191 [MHz]
  Nuclear repulsion =  266.201064606145508

  Charge       = 0
  Multiplicity = 1
  Electrons    = 50
  Nalpha       = 25
  Nbeta        = 25

  ==> Algorithm <==

  SCF Algorithm Type is DF.
  DIIS enabled.
  MOM disabled.
  Fractional occupation disabled.
  Guess Type is SAD.
  Energy threshold   = 1.00e-10
  Density threshold  = 1.00e-10
  Integral threshold = 0.00e+00

  ==> Primary Basis <==

  Basis Set: AUG-CC-PVTZ
    Blend: AUG-CC-PVTZ
    Number of shells: 210
    Number of basis function: 598
    Number of Cartesian functions: 680
    Spherical Harmonics?: true
    Max angular momentum: 3

   => Loading Basis Set <=

    Name: (AUG-CC-PVTZ AUX)
    Role: JKFIT
    Keyword: DF_BASIS_SCF
    atoms 1-6  entry C          line   162 file /home/xy3866/psi4conda/share/psi4/basis/aug-cc-pvtz-jkfit.gbs 
    atoms 7-20 entry H          line    70 file /home/xy3866/psi4conda/share/psi4/basis/aug-cc-pvtz-jkfit.gbs 

  ==> Pre-Iterations <==

   -------------------------------------------------------
    Irrep   Nso     Nmo     Nalpha   Nbeta   Ndocc  Nsocc
   -------------------------------------------------------
     A        598     598       0       0       0       0
   -------------------------------------------------------
    Total     598     598      25      25      25       0
   -------------------------------------------------------

  ==> Integral Setup <==

  DFHelper Memory: AOs need 3.425 GiB; user supplied 22.352 GiB. Using in-core AOs.

  ==> MemDFJK: Density-Fitted J/K Matrices <==

    J tasked:                   Yes
    K tasked:                   Yes
    wK tasked:                   No
    OpenMP threads:               8
    Memory [MiB]:             22888
    Algorithm:                 Disk
    Schwarz Cutoff:           1E-12
    Mask sparsity (%):       1.7371
    Fitting Condition:        1E-10

   => Auxiliary Basis Set <=

  Basis Set: (AUG-CC-PVTZ AUX)
    Blend: AUG-CC-PVTZ-JKFIT
    Number of shells: 376
    Number of basis function: 1268
    Number of Cartesian functions: 1556
    Spherical Harmonics?: true
    Max angular momentum: 4

  Minimum eigenvalue in the overlap matrix is 1.3533349030E-06.
  Using Symmetric Orthogonalization.

  SCF Guess: Superposition of Atomic Densities via on-the-fly atomic UHF.

  ==> Iterations <==

                           Total Energy        Delta E     RMS |[F,P]|

   @DF-RHF iter SAD:  -235.17879841990884   -2.35179e+02   0.00000e+00 
   @DF-RHF iter   1:  -235.07030748041981    1.08491e-01   1.24585e-03 DIIS
   @DF-RHF iter   2:  -235.33720085454993   -2.66893e-01   6.45587e-04 DIIS
   @DF-RHF iter   3:  -235.41473604383145   -7.75352e-02   1.18432e-04 DIIS
   @DF-RHF iter   4:  -235.41902400597766   -4.28796e-03   3.82454e-05 DIIS
   @DF-RHF iter   5:  -235.41938437222967   -3.60366e-04   6.57696e-06 DIIS
   @DF-RHF iter   6:  -235.41939788423369   -1.35120e-05   1.79798e-06 DIIS
   @DF-RHF iter   7:  -235.41939869342090   -8.09187e-07   4.07773e-07 DIIS
   @DF-RHF iter   8:  -235.41939875108957   -5.76687e-08   9.68112e-08 DIIS
   @DF-RHF iter   9:  -235.41939875431854   -3.22896e-09   2.55089e-08 DIIS
   @DF-RHF iter  10:  -235.41939875457098   -2.52442e-10   8.01942e-09 DIIS
   @DF-RHF iter  11:  -235.41939875459235   -2.13731e-11   2.20723e-09 DIIS
   @DF-RHF iter  12:  -235.41939875459491   -2.55795e-12   6.12204e-10 DIIS
   @DF-RHF iter  13:  -235.41939875459627   -1.36424e-12   1.72575e-10 DIIS
   @DF-RHF iter  14:  -235.41939875459511    1.16529e-12   4.36310e-11 DIIS
  Energy and wave function converged.


  ==> Post-Iterations <==

    Orbital Energies [Eh]
    ---------------------

    Doubly Occupied:                                                      

       1A    -11.229511     2A    -11.215213     3A    -11.210532  
       4A    -11.208677     5A    -11.207872     6A    -11.204040  
       7A     -1.114772     8A     -1.000054     9A     -0.939998  
      10A     -0.919246    11A     -0.843042    12A     -0.721545  
      13A     -0.625633    14A     -0.623295    15A     -0.598572  
      16A     -0.588291    17A     -0.551498    18A     -0.529462  
      19A     -0.520022    20A     -0.512460    21A     -0.506751  
      22A     -0.484883    23A     -0.478481    24A     -0.428343  
      25A     -0.401425  

    Virtual:                                                              

      26A      0.030007    27A      0.035460    28A      0.036859  
      29A      0.038395    30A      0.053352    31A      0.054478  
      32A      0.055848    33A      0.056788    34A      0.057158  
      35A      0.077217    36A      0.077734    37A      0.079468  
      38A      0.083361    39A      0.083681    40A      0.108987  
      41A      0.116393    42A      0.124287    43A      0.126014  
      44A      0.129013    45A      0.133580    46A      0.140190  
      47A      0.145314    48A      0.146274    49A      0.151808  
      50A      0.156249    51A      0.156853    52A      0.158638  
      53A      0.162050    54A      0.176204    55A      0.176696  
      56A      0.178506    57A      0.186040    58A      0.187014  
      59A      0.203601    60A      0.207723    61A      0.215587  
      62A      0.224022    63A      0.243039    64A      0.249491  
      65A      0.262347    66A      0.263192    67A      0.276214  
      68A      0.281678    69A      0.285027    70A      0.286740  
      71A      0.306784    72A      0.312790    73A      0.316314  
      74A      0.321608    75A      0.322252    76A      0.327207  
      77A      0.337671    78A      0.342042    79A      0.342964  
      80A      0.351552    81A      0.356148    82A      0.369694  
      83A      0.372613    84A      0.374180    85A      0.376205  
      86A      0.378953    87A      0.380670    88A      0.384096  
      89A      0.387158    90A      0.393770    91A      0.398116  
      92A      0.400989    93A      0.408199    94A      0.412136  
      95A      0.417276    96A      0.419338    97A      0.420546  
      98A      0.432005    99A      0.435834   100A      0.443414  
     101A      0.446151   102A      0.451491   103A      0.453139  
     104A      0.470321   105A      0.471243   106A      0.477151  
     107A      0.478862   108A      0.485492   109A      0.492191  
     110A      0.496890   111A      0.501798   112A      0.506545  
     113A      0.509285   114A      0.513560   115A      0.513976  
     116A      0.522695   117A      0.530928   118A      0.536969  
     119A      0.539625   120A      0.543725   121A      0.546507  
     122A      0.554828   123A      0.560745   124A      0.563291  
     125A      0.565387   126A      0.565852   127A      0.575721  
     128A      0.587034   129A      0.589334   130A      0.593205  
     131A      0.610760   132A      0.614953   133A      0.623441  
     134A      0.630588   135A      0.632217   136A      0.644781  
     137A      0.647477   138A      0.649411   139A      0.650376  
     140A      0.659439   141A      0.661119   142A      0.667773  
     143A      0.677927   144A      0.685736   145A      0.700257  
     146A      0.710304   147A      0.716904   148A      0.720704  
     149A      0.728796   150A      0.734928   151A      0.748090  
     152A      0.754650   153A      0.761147   154A      0.766378  
     155A      0.799586   156A      0.813282   157A      0.818432  
     158A      0.822048   159A      0.829993   160A      0.838554  
     161A      0.840828   162A      0.845589   163A      0.854467  
     164A      0.855426   165A      0.869839   166A      0.872313  
     167A      0.872683   168A      0.887696   169A      0.894868  
     170A      0.897083   171A      0.905662   172A      0.909114  
     173A      0.911206   174A      0.924038   175A      0.926520  
     176A      0.938934   177A      0.944422   178A      0.952282  
     179A      0.955349   180A      0.966004   181A      0.968079  
     182A      0.972697   183A      0.987589   184A      0.993374  
     185A      0.997939   186A      1.004707   187A      1.006364  
     188A      1.021087   189A      1.023424   190A      1.025133  
     191A      1.037268   192A      1.039947   193A      1.052765  
     194A      1.056186   195A      1.061323   196A      1.066162  
     197A      1.071103   198A      1.074786   199A      1.080686  
     200A      1.084682   201A      1.089225   202A      1.110823  
     203A      1.119715   204A      1.129724   205A      1.131332  
     206A      1.150558   207A      1.158597   208A      1.171341  
     209A      1.185334   210A      1.188618   211A      1.194757  
     212A      1.202283   213A      1.206053   214A      1.209281  
     215A      1.217069   216A      1.220480   217A      1.221756  
     218A      1.232751   219A      1.251804   220A      1.255016  
     221A      1.267120   222A      1.271013   223A      1.276069  
     224A      1.281624   225A      1.290633   226A      1.298906  
     227A      1.300604   228A      1.307159   229A      1.309536  
     230A      1.328405   231A      1.334076   232A      1.337825  
     233A      1.355839   234A      1.373943   235A      1.391252  
     236A      1.396007   237A      1.399376   238A      1.401264  
     239A      1.419066   240A      1.428452   241A      1.437374  
     242A      1.442527   243A      1.445290   244A      1.464778  
     245A      1.480697   246A      1.486500   247A      1.488701  
     248A      1.502438   249A      1.515511   250A      1.524771  
     251A      1.535034   252A      1.537753   253A      1.540732  
     254A      1.549421   255A      1.557833   256A      1.565715  
     257A      1.574622   258A      1.577679   259A      1.586977  
     260A      1.588520   261A      1.597878   262A      1.607263  
     263A      1.618877   264A      1.631130   265A      1.641671  
     266A      1.650399   267A      1.658971   268A      1.665496  
     269A      1.670807   270A      1.681057   271A      1.685493  
     272A      1.691205   273A      1.695565   274A      1.705457  
     275A      1.713688   276A      1.719998   277A      1.743931  
     278A      1.747599   279A      1.758096   280A      1.762055  
     281A      1.770763   282A      1.776796   283A      1.782097  
     284A      1.791010   285A      1.796880   286A      1.804097  
     287A      1.812912   288A      1.819721   289A      1.824855  
     290A      1.826346   291A      1.829126   292A      1.836076  
     293A      1.849057   294A      1.860178   295A      1.876536  
     296A      1.879747   297A      1.896517   298A      1.906916  
     299A      1.913179   300A      1.921593   301A      1.932095  
     302A      1.957097   303A      1.958901   304A      1.964695  
     305A      1.969173   306A      1.979830   307A      1.983711  
     308A      1.995067   309A      2.005809   310A      2.016007  
     311A      2.037478   312A      2.047541   313A      2.049735  
     314A      2.064608   315A      2.074691   316A      2.089084  
     317A      2.103633   318A      2.109844   319A      2.111669  
     320A      2.118353   321A      2.128953   322A      2.148099  
     323A      2.157412   324A      2.168053   325A      2.170789  
     326A      2.174028   327A      2.177815   328A      2.193143  
     329A      2.213780   330A      2.220357   331A      2.229550  
     332A      2.233507   333A      2.249908   334A      2.257716  
     335A      2.262234   336A      2.268831   337A      2.275364  
     338A      2.300950   339A      2.307412   340A      2.322347  
     341A      2.333953   342A      2.350416   343A      2.355358  
     344A      2.368497   345A      2.380932   346A      2.390260  
     347A      2.406820   348A      2.426565   349A      2.443823  
     350A      2.451736   351A      2.459720   352A      2.472129  
     353A      2.486751   354A      2.508307   355A      2.513499  
     356A      2.534750   357A      2.540107   358A      2.558466  
     359A      2.567218   360A      2.576795   361A      2.591888  
     362A      2.597398   363A      2.619736   364A      2.644258  
     365A      2.671078   366A      2.680799   367A      2.744303  
     368A      2.760697   369A      2.768636   370A      2.851640  
     371A      2.917519   372A      2.958348   373A      3.019484  
     374A      3.075804   375A      3.120741   376A      3.227296  
     377A      3.287021   378A      3.315808   379A      3.357939  
     380A      3.395655   381A      3.444167   382A      3.462156  
     383A      3.502647   384A      3.510622   385A      3.521517  
     386A      3.545495   387A      3.557644   388A      3.565802  
     389A      3.570456   390A      3.588494   391A      3.603708  
     392A      3.615415   393A      3.625629   394A      3.655507  
     395A      3.668152   396A      3.682780   397A      3.686755  
     398A      3.690086   399A      3.715984   400A      3.728690  
     401A      3.747347   402A      3.752010   403A      3.790310  
     404A      3.798317   405A      3.804528   406A      3.822173  
     407A      3.828711   408A      3.832989   409A      3.839058  
     410A      3.846985   411A      3.851914   412A      3.858185  
     413A      3.874226   414A      3.878274   415A      3.887944  
     416A      3.894148   417A      3.900392   418A      3.922214  
     419A      3.929729   420A      3.936924   421A      3.940646  
     422A      3.943388   423A      3.967779   424A      3.975808  
     425A      3.985483   426A      3.995076   427A      4.000636  
     428A      4.010800   429A      4.026595   430A      4.034745  
     431A      4.040525   432A      4.047810   433A      4.053215  
     434A      4.069619   435A      4.080712   436A      4.091994  
     437A      4.103674   438A      4.105375   439A      4.113497  
     440A      4.135439   441A      4.142251   442A      4.161579  
     443A      4.166762   444A      4.177588   445A      4.208938  
     446A      4.221941   447A      4.230898   448A      4.233862  
     449A      4.241083   450A      4.267434   451A      4.268968  
     452A      4.272722   453A      4.291714   454A      4.298592  
     455A      4.313544   456A      4.321394   457A      4.334500  
     458A      4.342599   459A      4.343844   460A      4.351712  
     461A      4.370483   462A      4.385223   463A      4.402438  
     464A      4.418352   465A      4.454867   466A      4.464127  
     467A      4.478211   468A      4.501398   469A      4.519534  
     470A      4.525459   471A      4.530060   472A      4.542230  
     473A      4.547585   474A      4.560719   475A      4.578063  
     476A      4.592827   477A      4.641891   478A      4.643714  
     479A      4.663877   480A      4.679651   481A      4.697832  
     482A      4.704750   483A      4.718794   484A      4.722952  
     485A      4.732159   486A      4.767019   487A      4.788372  
     488A      4.812750   489A      4.819318   490A      4.850468  
     491A      4.866597   492A      4.871164   493A      4.877784  
     494A      4.896827   495A      4.900841   496A      4.919322  
     497A      4.925042   498A      4.936758   499A      4.949349  
     500A      4.954018   501A      4.975212   502A      5.000091  
     503A      5.010291   504A      5.024034   505A      5.031229  
     506A      5.045457   507A      5.054862   508A      5.064949  
     509A      5.078613   510A      5.110051   511A      5.126151  
     512A      5.134002   513A      5.149945   514A      5.184947  
     515A      5.214958   516A      5.228351   517A      5.237364  
     518A      5.242012   519A      5.271559   520A      5.285776  
     521A      5.296292   522A      5.308194   523A      5.330469  
     524A      5.343518   525A      5.360071   526A      5.360948  
     527A      5.375270   528A      5.390603   529A      5.396265  
     530A      5.415670   531A      5.426565   532A      5.435249  
     533A      5.452673   534A      5.464968   535A      5.475411  
     536A      5.483715   537A      5.514108   538A      5.518026  
     539A      5.546148   540A      5.578326   541A      5.588507  
     542A      5.602721   543A      5.618549   544A      5.633730  
     545A      5.645485   546A      5.659681   547A      5.678587  
     548A      5.695426   549A      5.726224   550A      5.740923  
     551A      5.754608   552A      5.782625   553A      5.799821  
     554A      5.804599   555A      5.813289   556A      5.822452  
     557A      5.840402   558A      5.864628   559A      5.896129  
     560A      5.914117   561A      5.934117   562A      5.961783  
     563A      5.975409   564A      6.015330   565A      6.052525  
     566A      6.097292   567A      6.134611   568A      6.150421  
     569A      6.172010   570A      6.181754   571A      6.207995  
     572A      6.228112   573A      6.268983   574A      6.287078  
     575A      6.297563   576A      6.341101   577A      6.357072  
     578A      6.373138   579A      6.403690   580A      6.442658  
     581A      6.499163   582A      6.586252   583A      6.675778  
     584A      6.835125   585A      6.886231   586A      6.913693  
     587A      6.954652   588A      7.001531   589A      7.019285  
     590A      7.053667   591A      7.062573   592A      7.080431  
     593A     17.891638   594A     18.131977   595A     18.512799  
     596A     18.918876   597A     19.211731   598A     21.071135  

    Final Occupation by Irrep:
              A 
    DOCC [    25 ]

  @DF-RHF Final Energy:  -235.41939875459511

   => Energetics <=

    Nuclear Repulsion Energy =            266.2010646061455077
    One-Electron Energy =                -843.9136953655981870
    Two-Electron Energy =                 342.2932320048575434
    Total Energy =                       -235.4193987545950790

Computation Completed

*** tstop() called on node142.bme.utexas.edu at Thu Nov  5 19:13:45 2020
Module time:
	user time   =     378.08 seconds =       6.30 minutes
	system time =      42.60 seconds =       0.71 minutes
	total time  =         87 seconds =       1.45 minutes
Total time:
	user time   =     378.08 seconds =       6.30 minutes
	system time =      42.60 seconds =       0.71 minutes
	total time  =         87 seconds =       1.45 minutes
   => Loading Basis Set <=

    Name: (AUG-CC-PVTZ AUX)
    Role: RIFIT
    Keyword: DF_BASIS_MP2
    atoms 1-6  entry C          line   148 file /home/xy3866/psi4conda/share/psi4/basis/aug-cc-pvtz-ri.gbs 
    atoms 7-20 entry H          line    30 file /home/xy3866/psi4conda/share/psi4/basis/aug-cc-pvtz-ri.gbs 


*** tstart() called on node142.bme.utexas.edu
*** at Thu Nov  5 19:13:45 2020


  //>>>>>>>>>>>>>>>>>>>>>>>>>>>>>>>>>>>//
  //               DFMP2               //
  //<<<<<<<<<<<<<<<<<<<<<<<<<<<<<<<<<<<//

	 --------------------------------------------------------
	                          DF-MP2                         
	      2nd-Order Density-Fitted Moller-Plesset Theory     
	              RMP2 Wavefunction,   8 Threads             
	                                                         
	        Rob Parrish, Justin Turney, Andy Simmonett,      
	           Ed Hohenstein, and C. David Sherrill          
	 --------------------------------------------------------

   => Auxiliary Basis Set <=

  Basis Set: (AUG-CC-PVTZ AUX)
    Blend: AUG-CC-PVTZ-RI
    Number of shells: 364
    Number of basis function: 1280
    Number of Cartesian functions: 1586
    Spherical Harmonics?: true
    Max angular momentum: 4

	 --------------------------------------------------------
	                 NBF =   598, NAUX =  1280
	 --------------------------------------------------------
	   CLASS    FOCC     OCC    AOCC    AVIR     VIR    FVIR
	   PAIRS       0      25      25     573     573       0
	 --------------------------------------------------------

  DFHelper Memory: AOs need 3.425 GiB; user supplied 22.352 GiB. Using in-core AOs.


         ------------------------------------------------------------
                                     CPHF                           
                                  Rob Parrish                       
         ------------------------------------------------------------

  ==> Geometry <==

    Molecular point group: c1
    Full point group: C1

    Geometry (in Angstrom), charge = 0, multiplicity = 1:

       Center              X                  Y                   Z               Mass       
    ------------   -----------------  -----------------  -----------------  -----------------
         C           -0.540281184806     0.061633849776     0.048269195051    12.000000000000
         C            0.887800315194     0.808372649776    -0.008658004949    12.000000000000
         C           -0.498027684806    -0.896529350224    -1.256856004949    12.000000000000
         C           -1.591859684806     0.959904649776    -0.008569004949    12.000000000000
         C           -0.497787684806    -0.894292350224     1.242818995051    12.000000000000
         C            2.196023315194     0.018817649776    -0.007861004949    12.000000000000
         H            0.870839315194     1.467644649776    -0.887332004949     1.007825032230
         H            0.870840315194     1.469410649776     0.868688995051     1.007825032230
         H            0.291249315194    -1.653883350224    -1.274421004949     1.007825032230
         H           -0.411594684806    -0.292386350224    -2.167167004949     1.007825032230
         H           -1.460034684806    -1.419701350224    -1.289745004949     1.007825032230
         H           -1.566823684806     1.604054649776     0.877372995051     1.007825032230
         H           -1.567022684806     1.602428649776    -0.895695004949     1.007825032230
         H           -2.545231684806     0.420089649776    -0.007970004949     1.007825032230
         H            0.291412315194    -1.651693350224     1.261470995051     1.007825032230
         H           -1.459851684806    -1.417282350224     1.276906995051     1.007825032230
         H           -0.411008684806    -0.288522350224     2.152011995051     1.007825032230
         H            2.286563315194    -0.617944350224    -0.891758004949     1.007825032230
         H            3.049283315194     0.703951649776    -0.008888004949     1.007825032230
         H            2.286859315194    -0.615656350224     0.877645995051     1.007825032230

  Nuclear repulsion =  266.201064606145508
  Reference energy  = -235.419398754595107

  ==> Basis Set <==

  Basis Set: AUG-CC-PVTZ
    Blend: AUG-CC-PVTZ
    Number of shells: 210
    Number of basis function: 598
    Number of Cartesian functions: 680
    Spherical Harmonics?: true
    Max angular momentum: 3

  ==> CGRSolver (by Rob Parrish) <==

   Number of roots    =         1
   Preconditioning    =    JACOBI
   Convergence cutoff =     1E-06
   Maximum iterations =       100

  ==> CPHFRHamiltonian (by Rob Parrish) <== 

  ==> MemDFJK: Density-Fitted J/K Matrices <==

    J tasked:                   Yes
    K tasked:                   Yes
    wK tasked:                   No
    OpenMP threads:               8
    Memory [MiB]:             22888
    Algorithm:                 Disk
    Schwarz Cutoff:           1E-12
    Mask sparsity (%):       1.7371
    Fitting Condition:        1E-10

   => Auxiliary Basis Set <=

  Basis Set: (AUG-CC-PVTZ AUX)
    Blend: AUG-CC-PVTZ-JKFIT
    Number of shells: 376
    Number of basis function: 1268
    Number of Cartesian functions: 1556
    Spherical Harmonics?: true
    Max angular momentum: 4

  ==> CPHF Iterations <==

  => Iterations <=

             Iter  Converged  Remaining    Residual
  CGR           1          0          1   8.969E-02
  CGR           2          0          1   1.547E-02
  CGR           3          0          1   4.819E-03
  CGR           4          0          1   1.113E-03
  CGR           5          0          1   3.252E-04
  CGR           6          0          1   8.765E-05
  CGR           7          0          1   2.317E-05
  CGR           8          0          1   6.241E-06
  CGR           9          0          1   1.835E-06
  CGR          10          1          0   4.071E-07

    CGRSolver converged.

	-----------------------------------------------------------
	 ==================> DF-MP2 Energies <==================== 
	-----------------------------------------------------------
	 Reference Energy          =    -235.4193987545951074 [Eh]
	 Singles Energy            =      -0.0000000000000000 [Eh]
	 Same-Spin Energy          =      -0.2566421289417629 [Eh]
	 Opposite-Spin Energy      =      -0.9561463208456631 [Eh]
	 Correlation Energy        =      -1.2127884497874259 [Eh]
	 Total Energy              =    -236.6321872043825465 [Eh]
	-----------------------------------------------------------
	 ================> DF-SCS-MP2 Energies <================== 
	-----------------------------------------------------------
	 SCS Same-Spin Scale       =       0.3333333333333333 [-]
	 SCS Opposite-Spin Scale   =       1.2000000000000000 [-]
	 SCS Same-Spin Energy      =      -0.0855473763139210 [Eh]
	 SCS Opposite-Spin Energy  =      -1.1473755850147958 [Eh]
	 SCS Correlation Energy    =      -1.2329229613287167 [Eh]
	 SCS Total Energy          =    -236.6523217159238186 [Eh]
	-----------------------------------------------------------



Properties will be evaluated at  -0.000000,   0.000000,  -0.000000 [a0]

Properties computed using the MP2 density matrix

  Nuclear Dipole Moment: [e a0]
     X:     0.4926      Y:    -0.6464      Z:    -0.1021

  Electronic Dipole Moment: [e a0]
     X:    -0.4874      Y:     0.6735      Z:     0.1150

  Dipole Moment: [e a0]
     X:     0.0053      Y:     0.0272      Z:     0.0129     Total:     0.0305

  Dipole Moment: [D]
     X:     0.0134      Y:     0.0690      Z:     0.0328     Total:     0.0776


*** tstop() called on node142.bme.utexas.edu at Thu Nov  5 19:16:56 2020
Module time:
	user time   =    1083.29 seconds =      18.05 minutes
	system time =      46.26 seconds =       0.77 minutes
	total time  =        191 seconds =       3.18 minutes
Total time:
	user time   =    1462.41 seconds =      24.37 minutes
	system time =      88.95 seconds =       1.48 minutes
	total time  =        278 seconds =       4.63 minutes

    Psi4 stopped on: Thursday, 05 November 2020 07:16PM
    Psi4 wall time for execution: 0:04:38.61

*** Psi4 exiting successfully. Buy a developer a beer!
