
    -----------------------------------------------------------------------
          Psi4: An Open-Source Ab Initio Electronic Structure Package
                               Psi4 1.3.2 release

                         Git: Rev {HEAD} ecbda83 


    R. M. Parrish, L. A. Burns, D. G. A. Smith, A. C. Simmonett,
    A. E. DePrince III, E. G. Hohenstein, U. Bozkaya, A. Yu. Sokolov,
    R. Di Remigio, R. M. Richard, J. F. Gonthier, A. M. James,
    H. R. McAlexander, A. Kumar, M. Saitow, X. Wang, B. P. Pritchard,
    P. Verma, H. F. Schaefer III, K. Patkowski, R. A. King, E. F. Valeev,
    F. A. Evangelista, J. M. Turney, T. D. Crawford, and C. D. Sherrill,
    J. Chem. Theory Comput. 13(7) pp 3185--3197 (2017).
    (doi: 10.1021/acs.jctc.7b00174)


                         Additional Contributions by
    P. Kraus, H. Kruse, M. H. Lechner, M. C. Schieber, R. A. Shaw,
    A. Alenaizan, R. Galvelis, Z. L. Glick, S. Lehtola, and J. P. Misiewicz

    -----------------------------------------------------------------------


    Psi4 started on: Thursday, 05 November 2020 06:18PM

    Process ID: 92086
    Host:       node142.bme.utexas.edu
    PSIDATADIR: /home/xy3866/psi4conda/share/psi4
    Memory:     500.0 MiB
    Threads:    8
    
  ==> Input File <==

--------------------------------------------------------------------------
#psi4
#
memory 32 gb

molecule  {
0 1
  C       -0.4325780     0.0000000    -0.0000100
  C        0.8671890     0.8245510    -0.0008470
  C       -0.5186390    -0.8803510    -1.2490450
  C       -1.6124710     0.9760830    -0.0007580
  C       -0.5183990    -0.8781140     1.2506300
  C        2.1754120     0.0349960    -0.0000500
  H        0.8502280     1.4838230    -0.8795210
  H        0.8502290     1.4855890     0.8765000
  H        0.2706380    -1.6377050    -1.2666100
  H       -0.4322060    -0.2762080    -2.1593560
  H       -1.4806460    -1.4035230    -1.2819340
  H       -1.5874350     1.6202330     0.8851840
  H       -1.5876340     1.6186070    -0.8878840
  H       -2.5658430     0.4362680    -0.0001590
  H        0.2708010    -1.6355150     1.2692820
  H       -1.4841529    -1.3928681     1.3015751
  H       -0.4316200    -0.2723440     2.1598230
  H        2.2659520    -0.6017660    -0.8839470
  H        3.0286720     0.7201300    -0.0010770
  H        2.2662480    -0.5994780     0.8854570
units angstrom
no_reorient  #important for SAPT in psi4, default
symmetry c1  #important for SAPT in psi4, default
}

set PROPERTIES_ORIGIN ["COM"]
properties('MP2/aug-cc-pvtz', properties = ['dipole'])
--------------------------------------------------------------------------

  Memory set to  29.802 GiB by Python driver.
    SCF Algorithm Type (re)set to DF.

*** tstart() called on node142.bme.utexas.edu
*** at Thu Nov  5 18:18:09 2020

   => Loading Basis Set <=

    Name: AUG-CC-PVTZ
    Role: ORBITAL
    Keyword: BASIS
    atoms 1-6  entry C          line   235 file /home/xy3866/psi4conda/share/psi4/basis/aug-cc-pvtz.gbs 
    atoms 7-20 entry H          line    36 file /home/xy3866/psi4conda/share/psi4/basis/aug-cc-pvtz.gbs 


         ---------------------------------------------------------
                                   SCF
               by Justin Turney, Rob Parrish, Andy Simmonett
                          and Daniel G. A. Smith
                              RHF Reference
                        8 Threads,  30517 MiB Core
         ---------------------------------------------------------

  ==> Geometry <==

    Molecular point group: c1
    Full point group: C1

    Geometry (in Angstrom), charge = 0, multiplicity = 1:

       Center              X                  Y                   Z               Mass       
    ------------   -----------------  -----------------  -----------------  -----------------
         C           -0.429805068799    -0.005431039979    -0.000201717783    12.000000000000
         C            0.869961931201     0.819119960021    -0.001038717783    12.000000000000
         C           -0.515866068799    -0.885782039979    -1.249236717783    12.000000000000
         C           -1.609698068799     0.970651960021    -0.000949717783    12.000000000000
         C           -0.515626068799    -0.883545039979     1.250438282217    12.000000000000
         C            2.178184931201     0.029564960021    -0.000241717783    12.000000000000
         H            0.853000931201     1.478391960021    -0.879712717783     1.007825032230
         H            0.853001931201     1.480157960021     0.876308282217     1.007825032230
         H            0.273410931201    -1.643136039979    -1.266801717783     1.007825032230
         H           -0.429433068799    -0.281639039979    -2.159547717783     1.007825032230
         H           -1.477873068799    -1.408954039979    -1.282125717783     1.007825032230
         H           -1.584662068799     1.614801960021     0.884992282217     1.007825032230
         H           -1.584861068799     1.613175960021    -0.888075717783     1.007825032230
         H           -2.563070068799     0.430836960021    -0.000350717783     1.007825032230
         H            0.273573931201    -1.640946039979     1.269090282217     1.007825032230
         H           -1.481379968799    -1.398299139979     1.301383382217     1.007825032230
         H           -0.428847068799    -0.277775039979     2.159631282217     1.007825032230
         H            2.268724931201    -0.607197039979    -0.884138717783     1.007825032230
         H            3.031444931201     0.714698960021    -0.001268717783     1.007825032230
         H            2.269020931201    -0.604909039979     0.885265282217     1.007825032230

  Running in c1 symmetry.

  Rotational constants: A =      0.14405  B =      0.08360  C =      0.08335 [cm^-1]
  Rotational constants: A =   4318.64082  B =   2506.22493  C =   2498.76748 [MHz]
  Nuclear repulsion =  266.482173880674850

  Charge       = 0
  Multiplicity = 1
  Electrons    = 50
  Nalpha       = 25
  Nbeta        = 25

  ==> Algorithm <==

  SCF Algorithm Type is DF.
  DIIS enabled.
  MOM disabled.
  Fractional occupation disabled.
  Guess Type is SAD.
  Energy threshold   = 1.00e-10
  Density threshold  = 1.00e-10
  Integral threshold = 0.00e+00

  ==> Primary Basis <==

  Basis Set: AUG-CC-PVTZ
    Blend: AUG-CC-PVTZ
    Number of shells: 210
    Number of basis function: 598
    Number of Cartesian functions: 680
    Spherical Harmonics?: true
    Max angular momentum: 3

   => Loading Basis Set <=

    Name: (AUG-CC-PVTZ AUX)
    Role: JKFIT
    Keyword: DF_BASIS_SCF
    atoms 1-6  entry C          line   162 file /home/xy3866/psi4conda/share/psi4/basis/aug-cc-pvtz-jkfit.gbs 
    atoms 7-20 entry H          line    70 file /home/xy3866/psi4conda/share/psi4/basis/aug-cc-pvtz-jkfit.gbs 

  ==> Pre-Iterations <==

   -------------------------------------------------------
    Irrep   Nso     Nmo     Nalpha   Nbeta   Ndocc  Nsocc
   -------------------------------------------------------
     A        598     598       0       0       0       0
   -------------------------------------------------------
    Total     598     598      25      25      25       0
   -------------------------------------------------------

  ==> Integral Setup <==

  DFHelper Memory: AOs need 3.425 GiB; user supplied 22.352 GiB. Using in-core AOs.

  ==> MemDFJK: Density-Fitted J/K Matrices <==

    J tasked:                   Yes
    K tasked:                   Yes
    wK tasked:                   No
    OpenMP threads:               8
    Memory [MiB]:             22888
    Algorithm:                 Disk
    Schwarz Cutoff:           1E-12
    Mask sparsity (%):       1.7349
    Fitting Condition:        1E-10

   => Auxiliary Basis Set <=

  Basis Set: (AUG-CC-PVTZ AUX)
    Blend: AUG-CC-PVTZ-JKFIT
    Number of shells: 376
    Number of basis function: 1268
    Number of Cartesian functions: 1556
    Spherical Harmonics?: true
    Max angular momentum: 4

  Minimum eigenvalue in the overlap matrix is 1.6537421664E-06.
  Using Symmetric Orthogonalization.

  SCF Guess: Superposition of Atomic Densities via on-the-fly atomic UHF.

  ==> Iterations <==

                           Total Energy        Delta E     RMS |[F,P]|

   @DF-RHF iter SAD:  -235.17576160480408   -2.35176e+02   0.00000e+00 
   @DF-RHF iter   1:  -235.10417155506488    7.15900e-02   1.23414e-03 DIIS
   @DF-RHF iter   2:  -235.36870600139883   -2.64534e-01   6.31752e-04 DIIS
   @DF-RHF iter   3:  -235.44309258831782   -7.43866e-02   1.18147e-04 DIIS
   @DF-RHF iter   4:  -235.44729974386132   -4.20716e-03   3.90423e-05 DIIS
   @DF-RHF iter   5:  -235.44766664375925   -3.66900e-04   6.01839e-06 DIIS
   @DF-RHF iter   6:  -235.44767929836965   -1.26546e-05   1.02955e-06 DIIS
   @DF-RHF iter   7:  -235.44767966011781   -3.61748e-07   3.24883e-07 DIIS
   @DF-RHF iter   8:  -235.44767969080024   -3.06824e-08   7.68804e-08 DIIS
   @DF-RHF iter   9:  -235.44767969265649   -1.85625e-09   1.80750e-08 DIIS
   @DF-RHF iter  10:  -235.44767969276617   -1.09679e-10   4.14369e-09 DIIS
   @DF-RHF iter  11:  -235.44767969277092   -4.74643e-12   1.22154e-09 DIIS
   @DF-RHF iter  12:  -235.44767969277237   -1.44951e-12   3.41100e-10 DIIS
   @DF-RHF iter  13:  -235.44767969277225    1.13687e-13   9.16836e-11 DIIS
  Energy and wave function converged.


  ==> Post-Iterations <==

    Orbital Energies [Eh]
    ---------------------

    Doubly Occupied:                                                      

       1A    -11.227384     2A    -11.213893     3A    -11.208910  
       4A    -11.206906     5A    -11.206895     6A    -11.206864  
       7A     -1.109493     8A     -0.995952     9A     -0.927078  
      10A     -0.926558    11A     -0.848767    12A     -0.721699  
      13A     -0.623856    14A     -0.622486    15A     -0.596278  
      16A     -0.580836    17A     -0.549879    18A     -0.529407  
      19A     -0.523387    20A     -0.508276    21A     -0.499809  
      22A     -0.483949    23A     -0.447932    24A     -0.444882  
      25A     -0.438199  

    Virtual:                                                              

      26A      0.030431    27A      0.035685    28A      0.036899  
      29A      0.037903    30A      0.053847    31A      0.054820  
      32A      0.055437    33A      0.057045    34A      0.057414  
      35A      0.077286    36A      0.077747    37A      0.079409  
      38A      0.083077    39A      0.083367    40A      0.109256  
      41A      0.116610    42A      0.123754    43A      0.126229  
      44A      0.127662    45A      0.135638    46A      0.141014  
      47A      0.145910    48A      0.146462    49A      0.151124  
      50A      0.155975    51A      0.156658    52A      0.159224  
      53A      0.164501    54A      0.176541    55A      0.176563  
      56A      0.178117    57A      0.186430    58A      0.191302  
      59A      0.199653    60A      0.210610    61A      0.210731  
      62A      0.223458    63A      0.242413    64A      0.248617  
      65A      0.259180    66A      0.264378    67A      0.276418  
      68A      0.281888    69A      0.285406    70A      0.287742  
      71A      0.312641    72A      0.316555    73A      0.318287  
      74A      0.321320    75A      0.323192    76A      0.330029  
      77A      0.340348    78A      0.344166    79A      0.344467  
      80A      0.353907    81A      0.355910    82A      0.370123  
      83A      0.371405    84A      0.375724    85A      0.376244  
      86A      0.379403    87A      0.380606    88A      0.384717  
      89A      0.387950    90A      0.395357    91A      0.395617  
      92A      0.402687    93A      0.409383    94A      0.412228  
      95A      0.415016    96A      0.419925    97A      0.421087  
      98A      0.433939    99A      0.435884   100A      0.440965  
     101A      0.449761   102A      0.452623   103A      0.453432  
     104A      0.471044   105A      0.473244   106A      0.477584  
     107A      0.485163   108A      0.485759   109A      0.490282  
     110A      0.497417   111A      0.501962   112A      0.507816  
     113A      0.509780   114A      0.512374   115A      0.516968  
     116A      0.524095   117A      0.530876   118A      0.531436  
     119A      0.541257   120A      0.541530   121A      0.546966  
     122A      0.553107   123A      0.561179   124A      0.564000  
     125A      0.564427   126A      0.566773   127A      0.579021  
     128A      0.586622   129A      0.588529   130A      0.596875  
     131A      0.611453   132A      0.614058   133A      0.621242  
     134A      0.629517   135A      0.630554   136A      0.645506  
     137A      0.646001   138A      0.650979   139A      0.651524  
     140A      0.659232   141A      0.663013   142A      0.665289  
     143A      0.680618   144A      0.685780   145A      0.698082  
     146A      0.710723   147A      0.718993   148A      0.721652  
     149A      0.733659   150A      0.739266   151A      0.748679  
     152A      0.753965   153A      0.764661   154A      0.764923  
     155A      0.803976   156A      0.815570   157A      0.817216  
     158A      0.820234   159A      0.823777   160A      0.837222  
     161A      0.841933   162A      0.850504   163A      0.853288  
     164A      0.855784   165A      0.864755   166A      0.868809  
     167A      0.873763   168A      0.882984   169A      0.892327  
     170A      0.900969   171A      0.902476   172A      0.907530  
     173A      0.917691   174A      0.921246   175A      0.923368  
     176A      0.937426   177A      0.943662   178A      0.952988  
     179A      0.958464   180A      0.964344   181A      0.969298  
     182A      0.976650   183A      0.984355   184A      0.993544  
     185A      0.997631   186A      0.999933   187A      1.008572  
     188A      1.021456   189A      1.022236   190A      1.022747  
     191A      1.040180   192A      1.042025   193A      1.051484  
     194A      1.056000   195A      1.056603   196A      1.058872  
     197A      1.071850   198A      1.073511   199A      1.082112  
     200A      1.087096   201A      1.091303   202A      1.109772  
     203A      1.119003   204A      1.123828   205A      1.131370  
     206A      1.147101   207A      1.158555   208A      1.171927  
     209A      1.180823   210A      1.184432   211A      1.192626  
     212A      1.202967   213A      1.207652   214A      1.215604  
     215A      1.218371   216A      1.220375   217A      1.224987  
     218A      1.231675   219A      1.246995   220A      1.250936  
     221A      1.266658   222A      1.273716   223A      1.278026  
     224A      1.281788   225A      1.286605   226A      1.297734  
     227A      1.301772   228A      1.307324   229A      1.314221  
     230A      1.330255   231A      1.336682   232A      1.342684  
     233A      1.358812   234A      1.374069   235A      1.387080  
     236A      1.394784   237A      1.397917   238A      1.402655  
     239A      1.417864   240A      1.432018   241A      1.441579  
     242A      1.447095   243A      1.450333   244A      1.462397  
     245A      1.479691   246A      1.488650   247A      1.492142  
     248A      1.512739   249A      1.514233   250A      1.522075  
     251A      1.532589   252A      1.538348   253A      1.543511  
     254A      1.545649   255A      1.562056   256A      1.576075  
     257A      1.576672   258A      1.583751   259A      1.584318  
     260A      1.589696   261A      1.600960   262A      1.605526  
     263A      1.616442   264A      1.627314   265A      1.640915  
     266A      1.646973   267A      1.662024   268A      1.668187  
     269A      1.675282   270A      1.679951   271A      1.682887  
     272A      1.690649   273A      1.698458   274A      1.708502  
     275A      1.717945   276A      1.718676   277A      1.745999  
     278A      1.749628   279A      1.752089   280A      1.760185  
     281A      1.762140   282A      1.765691   283A      1.779876  
     284A      1.793783   285A      1.799209   286A      1.799899  
     287A      1.811944   288A      1.817584   289A      1.818646  
     290A      1.828187   291A      1.828978   292A      1.835695  
     293A      1.854060   294A      1.856282   295A      1.873801  
     296A      1.883592   297A      1.902668   298A      1.911624  
     299A      1.917740   300A      1.919739   301A      1.932899  
     302A      1.954408   303A      1.955469   304A      1.964194  
     305A      1.969771   306A      1.980643   307A      1.986310  
     308A      1.993468   309A      2.006632   310A      2.017849  
     311A      2.034277   312A      2.043487   313A      2.052360  
     314A      2.069667   315A      2.097745   316A      2.100654  
     317A      2.101482   318A      2.111227   319A      2.112818  
     320A      2.127471   321A      2.130068   322A      2.158846  
     323A      2.162818   324A      2.164060   325A      2.168790  
     326A      2.188798   327A      2.191984   328A      2.198285  
     329A      2.216504   330A      2.219873   331A      2.231970  
     332A      2.238776   333A      2.250219   334A      2.253208  
     335A      2.259461   336A      2.275688   337A      2.282932  
     338A      2.306656   339A      2.312884   340A      2.315526  
     341A      2.342032   342A      2.354043   343A      2.355261  
     344A      2.360680   345A      2.381134   346A      2.383706  
     347A      2.417965   348A      2.432539   349A      2.453492  
     350A      2.469965   351A      2.472332   352A      2.483746  
     353A      2.495091   354A      2.499738   355A      2.500677  
     356A      2.533971   357A      2.552801   358A      2.559289  
     359A      2.564222   360A      2.584023   361A      2.600391  
     362A      2.609636   363A      2.612220   364A      2.655741  
     365A      2.680934   366A      2.719016   367A      2.748710  
     368A      2.756303   369A      2.796284   370A      2.817904  
     371A      2.890844   372A      3.008019   373A      3.017864  
     374A      3.039048   375A      3.077005   376A      3.213516  
     377A      3.317617   378A      3.325532   379A      3.361258  
     380A      3.385392   381A      3.453490   382A      3.454883  
     383A      3.475964   384A      3.515437   385A      3.520742  
     386A      3.542381   387A      3.546954   388A      3.571884  
     389A      3.573460   390A      3.590625   391A      3.599300  
     392A      3.602786   393A      3.621286   394A      3.631726  
     395A      3.660882   396A      3.682153   397A      3.685975  
     398A      3.693487   399A      3.710844   400A      3.744130  
     401A      3.746502   402A      3.767041   403A      3.790811  
     404A      3.803518   405A      3.806788   406A      3.823291  
     407A      3.831484   408A      3.834185   409A      3.840952  
     410A      3.852090   411A      3.857395   412A      3.861262  
     413A      3.877654   414A      3.879590   415A      3.883252  
     416A      3.891296   417A      3.907310   418A      3.915908  
     419A      3.928441   420A      3.934332   421A      3.942714  
     422A      3.954501   423A      3.956832   424A      3.979658  
     425A      3.982648   426A      3.989480   427A      3.994980  
     428A      4.020023   429A      4.027491   430A      4.039490  
     431A      4.040839   432A      4.046922   433A      4.053008  
     434A      4.073315   435A      4.078886   436A      4.103180  
     437A      4.107692   438A      4.116786   439A      4.118347  
     440A      4.139488   441A      4.141312   442A      4.161107  
     443A      4.171019   444A      4.185486   445A      4.223287  
     446A      4.225204   447A      4.235842   448A      4.244393  
     449A      4.254314   450A      4.265460   451A      4.267398  
     452A      4.274789   453A      4.291113   454A      4.294800  
     455A      4.318580   456A      4.320936   457A      4.329612  
     458A      4.342651   459A      4.350322   460A      4.354780  
     461A      4.368595   462A      4.374572   463A      4.391294  
     464A      4.409944   465A      4.417202   466A      4.445918  
     467A      4.450889   468A      4.493063   469A      4.522471  
     470A      4.534790   471A      4.538234   472A      4.548769  
     473A      4.559079   474A      4.566274   475A      4.580355  
     476A      4.591557   477A      4.640815   478A      4.645699  
     479A      4.664038   480A      4.685578   481A      4.705419  
     482A      4.712725   483A      4.714017   484A      4.729637  
     485A      4.736853   486A      4.778150   487A      4.798485  
     488A      4.809155   489A      4.827207   490A      4.838021  
     491A      4.854787   492A      4.854938   493A      4.877123  
     494A      4.897571   495A      4.902668   496A      4.904528  
     497A      4.911716   498A      4.930404   499A      4.935484  
     500A      4.958136   501A      4.988932   502A      5.001424  
     503A      5.022963   504A      5.023806   505A      5.030183  
     506A      5.047224   507A      5.058665   508A      5.077270  
     509A      5.082403   510A      5.125413   511A      5.136323  
     512A      5.139176   513A      5.153966   514A      5.171233  
     515A      5.207711   516A      5.212912   517A      5.240140  
     518A      5.253927   519A      5.273688   520A      5.279038  
     521A      5.292706   522A      5.299072   523A      5.342502  
     524A      5.344325   525A      5.353506   526A      5.364287  
     527A      5.365014   528A      5.382749   529A      5.399865  
     530A      5.423222   531A      5.435860   532A      5.442370  
     533A      5.465327   534A      5.479886   535A      5.487421  
     536A      5.506133   537A      5.521002   538A      5.521637  
     539A      5.549071   540A      5.557208   541A      5.569230  
     542A      5.600322   543A      5.602367   544A      5.627542  
     545A      5.650851   546A      5.659092   547A      5.664363  
     548A      5.708152   549A      5.729549   550A      5.733770  
     551A      5.745935   552A      5.776502   553A      5.784143  
     554A      5.800326   555A      5.807462   556A      5.827847  
     557A      5.829499   558A      5.871765   559A      5.918485  
     560A      5.924963   561A      5.952683   562A      5.960109  
     563A      5.975260   564A      5.993486   565A      6.069882  
     566A      6.110039   567A      6.128300   568A      6.144430  
     569A      6.163275   570A      6.204201   571A      6.209252  
     572A      6.226447   573A      6.239545   574A      6.266347  
     575A      6.298467   576A      6.344287   577A      6.371160  
     578A      6.395577   579A      6.407677   580A      6.435388  
     581A      6.460188   582A      6.484859   583A      6.703396  
     584A      6.844520   585A      6.897745   586A      6.903212  
     587A      6.952804   588A      7.008273   589A      7.022683  
     590A      7.046050   591A      7.062588   592A      7.084411  
     593A     17.680656   594A     18.187862   595A     18.676340  
     596A     18.723298   597A     18.955781   598A     20.398947  

    Final Occupation by Irrep:
              A 
    DOCC [    25 ]

  @DF-RHF Final Energy:  -235.44767969277225

   => Energetics <=

    Nuclear Repulsion Energy =            266.4821738806748499
    One-Electron Energy =                -844.5605563267719162
    Two-Electron Energy =                 342.6307027533247833
    Total Energy =                       -235.4476796927722830

Computation Completed

*** tstop() called on node142.bme.utexas.edu at Thu Nov  5 18:19:37 2020
Module time:
	user time   =     364.70 seconds =       6.08 minutes
	system time =      42.36 seconds =       0.71 minutes
	total time  =         88 seconds =       1.47 minutes
Total time:
	user time   =     364.70 seconds =       6.08 minutes
	system time =      42.36 seconds =       0.71 minutes
	total time  =         88 seconds =       1.47 minutes
   => Loading Basis Set <=

    Name: (AUG-CC-PVTZ AUX)
    Role: RIFIT
    Keyword: DF_BASIS_MP2
    atoms 1-6  entry C          line   148 file /home/xy3866/psi4conda/share/psi4/basis/aug-cc-pvtz-ri.gbs 
    atoms 7-20 entry H          line    30 file /home/xy3866/psi4conda/share/psi4/basis/aug-cc-pvtz-ri.gbs 


*** tstart() called on node142.bme.utexas.edu
*** at Thu Nov  5 18:19:37 2020


  //>>>>>>>>>>>>>>>>>>>>>>>>>>>>>>>>>>>//
  //               DFMP2               //
  //<<<<<<<<<<<<<<<<<<<<<<<<<<<<<<<<<<<//

	 --------------------------------------------------------
	                          DF-MP2                         
	      2nd-Order Density-Fitted Moller-Plesset Theory     
	              RMP2 Wavefunction,   8 Threads             
	                                                         
	        Rob Parrish, Justin Turney, Andy Simmonett,      
	           Ed Hohenstein, and C. David Sherrill          
	 --------------------------------------------------------

   => Auxiliary Basis Set <=

  Basis Set: (AUG-CC-PVTZ AUX)
    Blend: AUG-CC-PVTZ-RI
    Number of shells: 364
    Number of basis function: 1280
    Number of Cartesian functions: 1586
    Spherical Harmonics?: true
    Max angular momentum: 4

	 --------------------------------------------------------
	                 NBF =   598, NAUX =  1280
	 --------------------------------------------------------
	   CLASS    FOCC     OCC    AOCC    AVIR     VIR    FVIR
	   PAIRS       0      25      25     573     573       0
	 --------------------------------------------------------

  DFHelper Memory: AOs need 3.425 GiB; user supplied 22.352 GiB. Using in-core AOs.


         ------------------------------------------------------------
                                     CPHF                           
                                  Rob Parrish                       
         ------------------------------------------------------------

  ==> Geometry <==

    Molecular point group: c1
    Full point group: C1

    Geometry (in Angstrom), charge = 0, multiplicity = 1:

       Center              X                  Y                   Z               Mass       
    ------------   -----------------  -----------------  -----------------  -----------------
         C           -0.429805068799    -0.005431039979    -0.000201717783    12.000000000000
         C            0.869961931201     0.819119960021    -0.001038717783    12.000000000000
         C           -0.515866068799    -0.885782039979    -1.249236717783    12.000000000000
         C           -1.609698068799     0.970651960021    -0.000949717783    12.000000000000
         C           -0.515626068799    -0.883545039979     1.250438282217    12.000000000000
         C            2.178184931201     0.029564960021    -0.000241717783    12.000000000000
         H            0.853000931201     1.478391960021    -0.879712717783     1.007825032230
         H            0.853001931201     1.480157960021     0.876308282217     1.007825032230
         H            0.273410931201    -1.643136039979    -1.266801717783     1.007825032230
         H           -0.429433068799    -0.281639039979    -2.159547717783     1.007825032230
         H           -1.477873068799    -1.408954039979    -1.282125717783     1.007825032230
         H           -1.584662068799     1.614801960021     0.884992282217     1.007825032230
         H           -1.584861068799     1.613175960021    -0.888075717783     1.007825032230
         H           -2.563070068799     0.430836960021    -0.000350717783     1.007825032230
         H            0.273573931201    -1.640946039979     1.269090282217     1.007825032230
         H           -1.481379968799    -1.398299139979     1.301383382217     1.007825032230
         H           -0.428847068799    -0.277775039979     2.159631282217     1.007825032230
         H            2.268724931201    -0.607197039979    -0.884138717783     1.007825032230
         H            3.031444931201     0.714698960021    -0.001268717783     1.007825032230
         H            2.269020931201    -0.604909039979     0.885265282217     1.007825032230

  Nuclear repulsion =  266.482173880674850
  Reference energy  = -235.447679692772255

  ==> Basis Set <==

  Basis Set: AUG-CC-PVTZ
    Blend: AUG-CC-PVTZ
    Number of shells: 210
    Number of basis function: 598
    Number of Cartesian functions: 680
    Spherical Harmonics?: true
    Max angular momentum: 3

  ==> CGRSolver (by Rob Parrish) <==

   Number of roots    =         1
   Preconditioning    =    JACOBI
   Convergence cutoff =     1E-06
   Maximum iterations =       100

  ==> CPHFRHamiltonian (by Rob Parrish) <== 

  ==> MemDFJK: Density-Fitted J/K Matrices <==

    J tasked:                   Yes
    K tasked:                   Yes
    wK tasked:                   No
    OpenMP threads:               8
    Memory [MiB]:             22888
    Algorithm:                 Disk
    Schwarz Cutoff:           1E-12
    Mask sparsity (%):       1.7349
    Fitting Condition:        1E-10

   => Auxiliary Basis Set <=

  Basis Set: (AUG-CC-PVTZ AUX)
    Blend: AUG-CC-PVTZ-JKFIT
    Number of shells: 376
    Number of basis function: 1268
    Number of Cartesian functions: 1556
    Spherical Harmonics?: true
    Max angular momentum: 4

  ==> CPHF Iterations <==

  => Iterations <=

             Iter  Converged  Remaining    Residual
  CGR           1          0          1   8.798E-02
  CGR           2          0          1   1.529E-02
  CGR           3          0          1   4.779E-03
  CGR           4          0          1   9.430E-04
  CGR           5          0          1   1.835E-04
  CGR           6          0          1   4.952E-05
  CGR           7          0          1   1.110E-05
  CGR           8          0          1   2.358E-06
  CGR           9          1          0   7.158E-07

    CGRSolver converged.

	-----------------------------------------------------------
	 ==================> DF-MP2 Energies <==================== 
	-----------------------------------------------------------
	 Reference Energy          =    -235.4476796927722546 [Eh]
	 Singles Energy            =      -0.0000000000000000 [Eh]
	 Same-Spin Energy          =      -0.2553787377189121 [Eh]
	 Opposite-Spin Energy      =      -0.9540500600637074 [Eh]
	 Correlation Energy        =      -1.2094287977826195 [Eh]
	 Total Energy              =    -236.6571084905548616 [Eh]
	-----------------------------------------------------------
	 ================> DF-SCS-MP2 Energies <================== 
	-----------------------------------------------------------
	 SCS Same-Spin Scale       =       0.3333333333333333 [-]
	 SCS Opposite-Spin Scale   =       1.2000000000000000 [-]
	 SCS Same-Spin Energy      =      -0.0851262459063040 [Eh]
	 SCS Opposite-Spin Energy  =      -1.1448600720764488 [Eh]
	 SCS Correlation Energy    =      -1.2299863179827528 [Eh]
	 SCS Total Energy          =    -236.6776660107550185 [Eh]
	-----------------------------------------------------------



Properties will be evaluated at  -0.000000,   0.000000,   0.000000 [a0]

Properties computed using the MP2 density matrix

  Nuclear Dipole Moment: [e a0]
     X:     0.2550      Y:    -0.4976      Z:     0.0137

  Electronic Dipole Moment: [e a0]
     X:    -0.2350      Y:     0.5110      Z:    -0.0121

  Dipole Moment: [e a0]
     X:     0.0200      Y:     0.0134      Z:     0.0016     Total:     0.0241

  Dipole Moment: [D]
     X:     0.0509      Y:     0.0340      Z:     0.0040     Total:     0.0613


*** tstop() called on node142.bme.utexas.edu at Thu Nov  5 18:22:31 2020
Module time:
	user time   =    1021.53 seconds =      17.03 minutes
	system time =      42.63 seconds =       0.71 minutes
	total time  =        174 seconds =       2.90 minutes
Total time:
	user time   =    1387.52 seconds =      23.13 minutes
	system time =      85.11 seconds =       1.42 minutes
	total time  =        262 seconds =       4.37 minutes

    Psi4 stopped on: Thursday, 05 November 2020 06:22PM
    Psi4 wall time for execution: 0:04:22.27

*** Psi4 exiting successfully. Buy a developer a beer!
