1549093                                                                 
Freq      RMP2-FC                                                     6-31G(d)            
Number of atoms                            I               21
Info1-9                                    I   N=           9
          33          31        1002           0           0         100
           6           2           1
Charge                                     I                1
Multiplicity                               I                1
Number of electrons                        I               56
Number of alpha electrons                  I               28
Number of beta electrons                   I               28
Number of basis functions                  I              133
Number of independent functions            I              133
Number of point charges in /Mol/           I                0
Number of translation vectors              I                0
Atomic numbers                             I   N=          21
           7           6           6           6           6           6
           6           1           1           1           1           1
           1           1           1           1           1           1
           1           1           1
Nuclear charges                            R   N=          21
  7.00000000E+00  6.00000000E+00  6.00000000E+00  6.00000000E+00  6.00000000E+00
  6.00000000E+00  6.00000000E+00  1.00000000E+00  1.00000000E+00  1.00000000E+00
  1.00000000E+00  1.00000000E+00  1.00000000E+00  1.00000000E+00  1.00000000E+00
  1.00000000E+00  1.00000000E+00  1.00000000E+00  1.00000000E+00  1.00000000E+00
  1.00000000E+00
Current cartesian coordinates              R   N=          63
 -3.41748469E+00 -3.69979962E-07 -1.49229895E+00 -2.03607299E+00  1.75491815E-07
  1.04560449E+00 -4.54880115E-01 -2.40291321E+00  1.21608317E+00 -4.54880258E-01
  2.40291302E+00  1.21608385E+00  1.79214773E+00 -2.38738784E+00 -6.09707670E-01
  1.79214619E+00  2.38738816E+00 -6.09708666E-01  3.38671505E+00  6.64032554E-07
 -2.83549451E-01 -3.55055090E+00 -4.11717649E-07  2.45441877E+00 -1.64704500E+00
 -4.08018366E+00  9.50365522E-01  2.45834917E-01 -2.50476608E+00  3.16257249E+00
  2.45835473E-01  2.50476488E+00  3.16257304E+00 -1.64704562E+00  4.08018350E+00
  9.50367974E-01  1.15351614E+00 -2.54335184E+00 -2.58364039E+00  2.93474879E+00
 -4.07805921E+00 -2.75825824E-01  2.93474706E+00  4.07805992E+00 -2.75828600E-01
  1.15351190E+00  2.54334989E+00 -2.58364046E+00  4.23116632E+00  1.28701209E-06
  1.61010446E+00  4.95501751E+00  9.08614587E-07 -1.63155361E+00 -2.14804436E+00
 -2.34601396E-05 -2.96217613E+00 -4.54515970E+00  1.57109176E+00 -1.69024942E+00
 -4.54519330E+00 -1.57107078E+00 -1.69022950E+00
Force Field                                I                0
Int Atom Types                             I   N=          21
           0           0           0           0           0           0
           0           0           0           0           0           0
           0           0           0           0           0           0
           0           0           0
MM charges                                 R   N=          21
  0.00000000E+00  0.00000000E+00  0.00000000E+00  0.00000000E+00  0.00000000E+00
  0.00000000E+00  0.00000000E+00  0.00000000E+00  0.00000000E+00  0.00000000E+00
  0.00000000E+00  0.00000000E+00  0.00000000E+00  0.00000000E+00  0.00000000E+00
  0.00000000E+00  0.00000000E+00  0.00000000E+00  0.00000000E+00  0.00000000E+00
  0.00000000E+00
Integer atomic weights                     I   N=          21
          14          12          12          12          12          12
          12           1           1           1           1           1
           1           1           1           1           1           1
           1           1           1
Real atomic weights                        R   N=          21
  1.40030740E+01  1.20000000E+01  1.20000000E+01  1.20000000E+01  1.20000000E+01
  1.20000000E+01  1.20000000E+01  1.00782504E+00  1.00782504E+00  1.00782504E+00
  1.00782504E+00  1.00782504E+00  1.00782504E+00  1.00782504E+00  1.00782504E+00
  1.00782504E+00  1.00782504E+00  1.00782504E+00  1.00782504E+00  1.00782504E+00
  1.00782504E+00
Atom fragment info                         I   N=          21
           0           0           0           0           0           0
           0           0           0           0           0           0
           0           0           0           0           0           0
           0           0           0
Atom residue num                           I   N=          21
           0           0           0           0           0           0
           0           0           0           0           0           0
           0           0           0           0           0           0
           0           0           0
Nuclear spins                              I   N=          21
           2           0           0           0           0           0
           0           1           1           1           1           1
           1           1           1           1           1           1
           1           1           1
Nuclear ZEff                               R   N=          21
 -4.55000000E+00 -3.60000000E+00 -3.60000000E+00 -3.60000000E+00 -3.60000000E+00
 -3.60000000E+00 -3.60000000E+00 -1.00000000E+00 -1.00000000E+00 -1.00000000E+00
 -1.00000000E+00 -1.00000000E+00 -1.00000000E+00 -1.00000000E+00 -1.00000000E+00
 -1.00000000E+00 -1.00000000E+00 -1.00000000E+00 -1.00000000E+00 -1.00000000E+00
 -1.00000000E+00
Nuclear QMom                               R   N=          21
  2.04400000E+00  0.00000000E+00  0.00000000E+00  0.00000000E+00  0.00000000E+00
  0.00000000E+00  0.00000000E+00  0.00000000E+00  0.00000000E+00  0.00000000E+00
  0.00000000E+00  0.00000000E+00  0.00000000E+00  0.00000000E+00  0.00000000E+00
  0.00000000E+00  0.00000000E+00  0.00000000E+00  0.00000000E+00  0.00000000E+00
  0.00000000E+00
Nuclear GFac                               R   N=          21
  4.03761000E-01  0.00000000E+00  0.00000000E+00  0.00000000E+00  0.00000000E+00
  0.00000000E+00  0.00000000E+00  2.79284600E+00  2.79284600E+00  2.79284600E+00
  2.79284600E+00  2.79284600E+00  2.79284600E+00  2.79284600E+00  2.79284600E+00
  2.79284600E+00  2.79284600E+00  2.79284600E+00  2.79284600E+00  2.79284600E+00
  2.79284600E+00
MicOpt                                     I   N=          21
          -1          -1          -1          -1          -1          -1
          -1          -1          -1          -1          -1          -1
          -1          -1          -1          -1          -1          -1
          -1          -1          -1
Number of contracted shells                I               56
Number of primitive shells                 I              133
Pure/Cartesian d shells                    I                1
Pure/Cartesian f shells                    I                0
Highest angular momentum                   I                2
Largest degree of contraction              I                6
Shell types                                I   N=          56
           0          -1          -1           2           0          -1
          -1           2           0          -1          -1           2
           0          -1          -1           2           0          -1
          -1           2           0          -1          -1           2
           0          -1          -1           2           0           0
           0           0           0           0           0           0
           0           0           0           0           0           0
           0           0           0           0           0           0
           0           0           0           0           0           0
           0           0
Number of primitives per shell             I   N=          56
           6           3           1           1           6           3
           1           1           6           3           1           1
           6           3           1           1           6           3
           1           1           6           3           1           1
           6           3           1           1           3           1
           3           1           3           1           3           1
           3           1           3           1           3           1
           3           1           3           1           3           1
           3           1           3           1           3           1
           3           1
Shell to atom map                          I   N=          56
           1           1           1           1           2           2
           2           2           3           3           3           3
           4           4           4           4           5           5
           5           5           6           6           6           6
           7           7           7           7           8           8
           9           9          10          10          11          11
          12          12          13          13          14          14
          15          15          16          16          17          17
          18          18          19          19          20          20
          21          21
Primitive exponents                        R   N=         133
  4.17351146E+03  6.27457911E+02  1.42902093E+02  4.02343293E+01  1.28202129E+01
  4.39043701E+00  1.16263619E+01  2.71627981E+00  7.72218397E-01  2.12031498E-01
  8.00000000E-01  3.04752488E+03  4.57369518E+02  1.03948685E+02  2.92101553E+01
  9.28666296E+00  3.16392696E+00  7.86827235E+00  1.88128854E+00  5.44249258E-01
  1.68714478E-01  8.00000000E-01  3.04752488E+03  4.57369518E+02  1.03948685E+02
  2.92101553E+01  9.28666296E+00  3.16392696E+00  7.86827235E+00  1.88128854E+00
  5.44249258E-01  1.68714478E-01  8.00000000E-01  3.04752488E+03  4.57369518E+02
  1.03948685E+02  2.92101553E+01  9.28666296E+00  3.16392696E+00  7.86827235E+00
  1.88128854E+00  5.44249258E-01  1.68714478E-01  8.00000000E-01  3.04752488E+03
  4.57369518E+02  1.03948685E+02  2.92101553E+01  9.28666296E+00  3.16392696E+00
  7.86827235E+00  1.88128854E+00  5.44249258E-01  1.68714478E-01  8.00000000E-01
  3.04752488E+03  4.57369518E+02  1.03948685E+02  2.92101553E+01  9.28666296E+00
  3.16392696E+00  7.86827235E+00  1.88128854E+00  5.44249258E-01  1.68714478E-01
  8.00000000E-01  3.04752488E+03  4.57369518E+02  1.03948685E+02  2.92101553E+01
  9.28666296E+00  3.16392696E+00  7.86827235E+00  1.88128854E+00  5.44249258E-01
  1.68714478E-01  8.00000000E-01  1.87311370E+01  2.82539436E+00  6.40121692E-01
  1.61277759E-01  1.87311370E+01  2.82539436E+00  6.40121692E-01  1.61277759E-01
  1.87311370E+01  2.82539436E+00  6.40121692E-01  1.61277759E-01  1.87311370E+01
  2.82539436E+00  6.40121692E-01  1.61277759E-01  1.87311370E+01  2.82539436E+00
  6.40121692E-01  1.61277759E-01  1.87311370E+01  2.82539436E+00  6.40121692E-01
  1.61277759E-01  1.87311370E+01  2.82539436E+00  6.40121692E-01  1.61277759E-01
  1.87311370E+01  2.82539436E+00  6.40121692E-01  1.61277759E-01  1.87311370E+01
  2.82539436E+00  6.40121692E-01  1.61277759E-01  1.87311370E+01  2.82539436E+00
  6.40121692E-01  1.61277759E-01  1.87311370E+01  2.82539436E+00  6.40121692E-01
  1.61277759E-01  1.87311370E+01  2.82539436E+00  6.40121692E-01  1.61277759E-01
  1.87311370E+01  2.82539436E+00  6.40121692E-01  1.61277759E-01  1.87311370E+01
  2.82539436E+00  6.40121692E-01  1.61277759E-01
Contraction coefficients                   R   N=         133
  1.83477216E-03  1.39946270E-02  6.85865518E-02  2.32240873E-01  4.69069948E-01
  3.60455199E-01 -1.14961182E-01 -1.69117479E-01  1.14585195E+00  1.00000000E+00
  1.00000000E+00  1.83473713E-03  1.40373228E-02  6.88426223E-02  2.32184443E-01
  4.67941348E-01  3.62311985E-01 -1.19332420E-01 -1.60854152E-01  1.14345644E+00
  1.00000000E+00  1.00000000E+00  1.83473713E-03  1.40373228E-02  6.88426223E-02
  2.32184443E-01  4.67941348E-01  3.62311985E-01 -1.19332420E-01 -1.60854152E-01
  1.14345644E+00  1.00000000E+00  1.00000000E+00  1.83473713E-03  1.40373228E-02
  6.88426223E-02  2.32184443E-01  4.67941348E-01  3.62311985E-01 -1.19332420E-01
 -1.60854152E-01  1.14345644E+00  1.00000000E+00  1.00000000E+00  1.83473713E-03
  1.40373228E-02  6.88426223E-02  2.32184443E-01  4.67941348E-01  3.62311985E-01
 -1.19332420E-01 -1.60854152E-01  1.14345644E+00  1.00000000E+00  1.00000000E+00
  1.83473713E-03  1.40373228E-02  6.88426223E-02  2.32184443E-01  4.67941348E-01
  3.62311985E-01 -1.19332420E-01 -1.60854152E-01  1.14345644E+00  1.00000000E+00
  1.00000000E+00  1.83473713E-03  1.40373228E-02  6.88426223E-02  2.32184443E-01
  4.67941348E-01  3.62311985E-01 -1.19332420E-01 -1.60854152E-01  1.14345644E+00
  1.00000000E+00  1.00000000E+00  3.34946043E-02  2.34726953E-01  8.13757326E-01
  1.00000000E+00  3.34946043E-02  2.34726953E-01  8.13757326E-01  1.00000000E+00
  3.34946043E-02  2.34726953E-01  8.13757326E-01  1.00000000E+00  3.34946043E-02
  2.34726953E-01  8.13757326E-01  1.00000000E+00  3.34946043E-02  2.34726953E-01
  8.13757326E-01  1.00000000E+00  3.34946043E-02  2.34726953E-01  8.13757326E-01
  1.00000000E+00  3.34946043E-02  2.34726953E-01  8.13757326E-01  1.00000000E+00
  3.34946043E-02  2.34726953E-01  8.13757326E-01  1.00000000E+00  3.34946043E-02
  2.34726953E-01  8.13757326E-01  1.00000000E+00  3.34946043E-02  2.34726953E-01
  8.13757326E-01  1.00000000E+00  3.34946043E-02  2.34726953E-01  8.13757326E-01
  1.00000000E+00  3.34946043E-02  2.34726953E-01  8.13757326E-01  1.00000000E+00
  3.34946043E-02  2.34726953E-01  8.13757326E-01  1.00000000E+00  3.34946043E-02
  2.34726953E-01  8.13757326E-01  1.00000000E+00
P(S=P) Contraction coefficients            R   N=         133
  0.00000000E+00  0.00000000E+00  0.00000000E+00  0.00000000E+00  0.00000000E+00
  0.00000000E+00  6.75797439E-02  3.23907296E-01  7.40895140E-01  1.00000000E+00
  0.00000000E+00  0.00000000E+00  0.00000000E+00  0.00000000E+00  0.00000000E+00
  0.00000000E+00  0.00000000E+00  6.89990666E-02  3.16423961E-01  7.44308291E-01
  1.00000000E+00  0.00000000E+00  0.00000000E+00  0.00000000E+00  0.00000000E+00
  0.00000000E+00  0.00000000E+00  0.00000000E+00  6.89990666E-02  3.16423961E-01
  7.44308291E-01  1.00000000E+00  0.00000000E+00  0.00000000E+00  0.00000000E+00
  0.00000000E+00  0.00000000E+00  0.00000000E+00  0.00000000E+00  6.89990666E-02
  3.16423961E-01  7.44308291E-01  1.00000000E+00  0.00000000E+00  0.00000000E+00
  0.00000000E+00  0.00000000E+00  0.00000000E+00  0.00000000E+00  0.00000000E+00
  6.89990666E-02  3.16423961E-01  7.44308291E-01  1.00000000E+00  0.00000000E+00
  0.00000000E+00  0.00000000E+00  0.00000000E+00  0.00000000E+00  0.00000000E+00
  0.00000000E+00  6.89990666E-02  3.16423961E-01  7.44308291E-01  1.00000000E+00
  0.00000000E+00  0.00000000E+00  0.00000000E+00  0.00000000E+00  0.00000000E+00
  0.00000000E+00  0.00000000E+00  6.89990666E-02  3.16423961E-01  7.44308291E-01
  1.00000000E+00  0.00000000E+00  0.00000000E+00  0.00000000E+00  0.00000000E+00
  0.00000000E+00  0.00000000E+00  0.00000000E+00  0.00000000E+00  0.00000000E+00
  0.00000000E+00  0.00000000E+00  0.00000000E+00  0.00000000E+00  0.00000000E+00
  0.00000000E+00  0.00000000E+00  0.00000000E+00  0.00000000E+00  0.00000000E+00
  0.00000000E+00  0.00000000E+00  0.00000000E+00  0.00000000E+00  0.00000000E+00
  0.00000000E+00  0.00000000E+00  0.00000000E+00  0.00000000E+00  0.00000000E+00
  0.00000000E+00  0.00000000E+00  0.00000000E+00  0.00000000E+00  0.00000000E+00
  0.00000000E+00  0.00000000E+00  0.00000000E+00  0.00000000E+00  0.00000000E+00
  0.00000000E+00  0.00000000E+00  0.00000000E+00  0.00000000E+00  0.00000000E+00
  0.00000000E+00  0.00000000E+00  0.00000000E+00  0.00000000E+00  0.00000000E+00
  0.00000000E+00  0.00000000E+00  0.00000000E+00  0.00000000E+00  0.00000000E+00
  0.00000000E+00  0.00000000E+00  0.00000000E+00
Coordinates of each shell                  R   N=         168
 -3.41748469E+00 -3.69979962E-07 -1.49229895E+00 -3.41748469E+00 -3.69979962E-07
 -1.49229895E+00 -3.41748469E+00 -3.69979962E-07 -1.49229895E+00 -3.41748469E+00
 -3.69979962E-07 -1.49229895E+00 -2.03607299E+00  1.75491815E-07  1.04560449E+00
 -2.03607299E+00  1.75491815E-07  1.04560449E+00 -2.03607299E+00  1.75491815E-07
  1.04560449E+00 -2.03607299E+00  1.75491815E-07  1.04560449E+00 -4.54880115E-01
 -2.40291321E+00  1.21608317E+00 -4.54880115E-01 -2.40291321E+00  1.21608317E+00
 -4.54880115E-01 -2.40291321E+00  1.21608317E+00 -4.54880115E-01 -2.40291321E+00
  1.21608317E+00 -4.54880258E-01  2.40291302E+00  1.21608385E+00 -4.54880258E-01
  2.40291302E+00  1.21608385E+00 -4.54880258E-01  2.40291302E+00  1.21608385E+00
 -4.54880258E-01  2.40291302E+00  1.21608385E+00  1.79214773E+00 -2.38738784E+00
 -6.09707670E-01  1.79214773E+00 -2.38738784E+00 -6.09707670E-01  1.79214773E+00
 -2.38738784E+00 -6.09707670E-01  1.79214773E+00 -2.38738784E+00 -6.09707670E-01
  1.79214619E+00  2.38738816E+00 -6.09708666E-01  1.79214619E+00  2.38738816E+00
 -6.09708666E-01  1.79214619E+00  2.38738816E+00 -6.09708666E-01  1.79214619E+00
  2.38738816E+00 -6.09708666E-01  3.38671505E+00  6.64032554E-07 -2.83549451E-01
  3.38671505E+00  6.64032554E-07 -2.83549451E-01  3.38671505E+00  6.64032554E-07
 -2.83549451E-01  3.38671505E+00  6.64032554E-07 -2.83549451E-01 -3.55055090E+00
 -4.11717649E-07  2.45441877E+00 -3.55055090E+00 -4.11717649E-07  2.45441877E+00
 -1.64704500E+00 -4.08018366E+00  9.50365522E-01 -1.64704500E+00 -4.08018366E+00
  9.50365522E-01  2.45834917E-01 -2.50476608E+00  3.16257249E+00  2.45834917E-01
 -2.50476608E+00  3.16257249E+00  2.45835473E-01  2.50476488E+00  3.16257304E+00
  2.45835473E-01  2.50476488E+00  3.16257304E+00 -1.64704562E+00  4.08018350E+00
  9.50367974E-01 -1.64704562E+00  4.08018350E+00  9.50367974E-01  1.15351614E+00
 -2.54335184E+00 -2.58364039E+00  1.15351614E+00 -2.54335184E+00 -2.58364039E+00
  2.93474879E+00 -4.07805921E+00 -2.75825824E-01  2.93474879E+00 -4.07805921E+00
 -2.75825824E-01  2.93474706E+00  4.07805992E+00 -2.75828600E-01  2.93474706E+00
  4.07805992E+00 -2.75828600E-01  1.15351190E+00  2.54334989E+00 -2.58364046E+00
  1.15351190E+00  2.54334989E+00 -2.58364046E+00  4.23116632E+00  1.28701209E-06
  1.61010446E+00  4.23116632E+00  1.28701209E-06  1.61010446E+00  4.95501751E+00
  9.08614587E-07 -1.63155361E+00  4.95501751E+00  9.08614587E-07 -1.63155361E+00
 -2.14804436E+00 -2.34601396E-05 -2.96217613E+00 -2.14804436E+00 -2.34601396E-05
 -2.96217613E+00 -4.54515970E+00  1.57109176E+00 -1.69024942E+00 -4.54515970E+00
  1.57109176E+00 -1.69024942E+00 -4.54519330E+00 -1.57107078E+00 -1.69022950E+00
 -4.54519330E+00 -1.57107078E+00 -1.69022950E+00
Constraint Structure                       R   N=          63
 -3.41748469E+00 -3.69979962E-07 -1.49229895E+00 -2.03607299E+00  1.75491815E-07
  1.04560449E+00 -4.54880115E-01 -2.40291321E+00  1.21608317E+00 -4.54880258E-01
  2.40291302E+00  1.21608385E+00  1.79214773E+00 -2.38738784E+00 -6.09707670E-01
  1.79214619E+00  2.38738816E+00 -6.09708666E-01  3.38671505E+00  6.64032554E-07
 -2.83549451E-01 -3.55055090E+00 -4.11717649E-07  2.45441877E+00 -1.64704500E+00
 -4.08018366E+00  9.50365522E-01  2.45834917E-01 -2.50476608E+00  3.16257249E+00
  2.45835473E-01  2.50476488E+00  3.16257304E+00 -1.64704562E+00  4.08018350E+00
  9.50367974E-01  1.15351614E+00 -2.54335184E+00 -2.58364039E+00  2.93474879E+00
 -4.07805921E+00 -2.75825824E-01  2.93474706E+00  4.07805992E+00 -2.75828600E-01
  1.15351190E+00  2.54334989E+00 -2.58364046E+00  4.23116632E+00  1.28701209E-06
  1.61010446E+00  4.95501751E+00  9.08614587E-07 -1.63155361E+00 -2.14804436E+00
 -2.34601396E-05 -2.96217613E+00 -4.54515970E+00  1.57109176E+00 -1.69024942E+00
 -4.54519330E+00 -1.57107078E+00 -1.69022950E+00
Num ILSW                                   I              100
ILSW                                       I   N=         100
           0           1           0           1           2           0
           0           0           0           0           0          -1
           0           0           0           0           0           0
           0           0           0           0           1           0
           1           0           0           0           0           0
           0           0      100000           0          -1           0
           0           0           0           0           0           0
           0           0           0           1           1           0
           0           0           1           0           0           0
           0           0           4          40           0           0
           0           0           0           0           0           0
           0           0           0           0           0           0
           0           0           0           0           0           0
           0           0           0           0           0           0
           0           0           0           0           0           0
           0           0           0           0           0           0
           0           0           0           0
Num RLSW                                   I               40
RLSW                                       R   N=          40
  1.00000000E+00  1.00000000E+00  1.00000000E+00  1.00000000E+00  1.00000000E+00
  0.00000000E+00  0.00000000E+00  1.00000000E+00  0.00000000E+00  0.00000000E+00
  0.00000000E+00  0.00000000E+00  1.00000000E+00  0.00000000E+00  0.00000000E+00
  0.00000000E+00  0.00000000E+00  1.00000000E+00  0.00000000E+00  0.00000000E+00
  0.00000000E+00  0.00000000E+00  1.00000000E+00  0.00000000E+00  0.00000000E+00
  0.00000000E+00  0.00000000E+00  1.00000000E+00  0.00000000E+00  0.00000000E+00
  0.00000000E+00  0.00000000E+00  0.00000000E+00  0.00000000E+00  0.00000000E+00
  0.00000000E+00  0.00000000E+00  0.00000000E+00  1.00000000E+00  1.00000000E+00
MxBond                                     I                4
NBond                                      I   N=          21
           4           4           4           4           4           4
           4           1           1           1           1           1
           1           1           1           1           1           1
           1           1           1
IBond                                      I   N=          84
           2          19          20          21           1           3
           4           8           2           5           9          10
           2           6          11          12           3           7
          13          14           4           7          15          16
           5           6          17          18           2           0
           0           0           3           0           0           0
           3           0           0           0           4           0
           0           0           4           0           0           0
           5           0           0           0           5           0
           0           0           6           0           0           0
           6           0           0           0           7           0
           0           0           7           0           0           0
           1           0           0           0           1           0
           0           0           1           0           0           0
RBond                                      R   N=          84
  1.00000000E+00  1.00000000E+00  1.00000000E+00  1.00000000E+00  1.00000000E+00
  1.00000000E+00  1.00000000E+00  1.00000000E+00  1.00000000E+00  1.00000000E+00
  1.00000000E+00  1.00000000E+00  1.00000000E+00  1.00000000E+00  1.00000000E+00
  1.00000000E+00  1.00000000E+00  1.00000000E+00  1.00000000E+00  1.00000000E+00
  1.00000000E+00  1.00000000E+00  1.00000000E+00  1.00000000E+00  1.00000000E+00
  1.00000000E+00  1.00000000E+00  1.00000000E+00  1.00000000E+00  0.00000000E+00
  0.00000000E+00  0.00000000E+00  1.00000000E+00  0.00000000E+00  0.00000000E+00
  0.00000000E+00  1.00000000E+00  0.00000000E+00  0.00000000E+00  0.00000000E+00
  1.00000000E+00  0.00000000E+00  0.00000000E+00  0.00000000E+00  1.00000000E+00
  0.00000000E+00  0.00000000E+00  0.00000000E+00  1.00000000E+00  0.00000000E+00
  0.00000000E+00  0.00000000E+00  1.00000000E+00  0.00000000E+00  0.00000000E+00
  0.00000000E+00  1.00000000E+00  0.00000000E+00  0.00000000E+00  0.00000000E+00
  1.00000000E+00  0.00000000E+00  0.00000000E+00  0.00000000E+00  1.00000000E+00
  0.00000000E+00  0.00000000E+00  0.00000000E+00  1.00000000E+00  0.00000000E+00
  0.00000000E+00  0.00000000E+00  1.00000000E+00  0.00000000E+00  0.00000000E+00
  0.00000000E+00  1.00000000E+00  0.00000000E+00  0.00000000E+00  0.00000000E+00
  1.00000000E+00  0.00000000E+00  0.00000000E+00  0.00000000E+00
Virial Ratio                               R      2.001440481747178E+00
SCF Energy                                 R     -2.896036009717704E+02
MP2 Energy                                 R     -2.905515590487403E+02
Total Energy                               R     -2.905515590487403E+02
Post-SCF wavefunction norm                 R      1.617830780167739E+00
RMS Force                                  R      1.209996317651548E-06
RMS Density                                R      1.546423712988962E-09
External E-field                           R   N=          35
  0.00000000E+00  0.00000000E+00  0.00000000E+00  0.00000000E+00  0.00000000E+00
  0.00000000E+00  0.00000000E+00  0.00000000E+00  0.00000000E+00  0.00000000E+00
  0.00000000E+00  0.00000000E+00  0.00000000E+00  0.00000000E+00  0.00000000E+00
  0.00000000E+00  0.00000000E+00  0.00000000E+00  0.00000000E+00  0.00000000E+00
  0.00000000E+00  0.00000000E+00  0.00000000E+00  0.00000000E+00  0.00000000E+00
  0.00000000E+00  0.00000000E+00  0.00000000E+00  0.00000000E+00  0.00000000E+00
  0.00000000E+00  0.00000000E+00  0.00000000E+00  0.00000000E+00  0.00000000E+00
IOpCl                                      I                0
IROHF                                      I                0
Alpha Orbital Energies                     R   N=         133
 -1.58849425E+01 -1.14711332E+01 -1.13937312E+01 -1.13937145E+01 -1.13737329E+01
 -1.13737303E+01 -1.13593407E+01 -1.49827651E+00 -1.28084279E+00 -1.17505684E+00
 -1.17333802E+00 -1.01304975E+00 -1.00848819E+00 -9.56795301E-01 -9.40008966E-01
 -9.20634350E-01 -8.18516703E-01 -8.16758347E-01 -7.65621562E-01 -7.58626099E-01
 -7.00650787E-01 -6.98095478E-01 -6.89359612E-01 -6.87655913E-01 -6.48149172E-01
 -6.11047854E-01 -5.96254004E-01 -5.95622462E-01 -1.46034845E-02  4.96594776E-02
  5.77245377E-02  9.05823589E-02  1.02992086E-01  1.29629563E-01  1.33575728E-01
  1.53476946E-01  1.71167470E-01  1.74096206E-01  1.80903073E-01  1.85492927E-01
  2.00264845E-01  2.01996779E-01  2.06434482E-01  2.40697201E-01  2.57675553E-01
  2.72711113E-01  2.85720800E-01  3.03736229E-01  3.24898682E-01  5.33379982E-01
  5.38853433E-01  5.48427999E-01  5.75919576E-01  5.85120652E-01  6.00435850E-01
  6.29044311E-01  7.07259983E-01  7.35084493E-01  7.51233501E-01  7.82413033E-01
  7.84909608E-01  7.92995224E-01  8.21072992E-01  8.41402360E-01  8.54122453E-01
  8.72509226E-01  9.10760244E-01  9.18358484E-01  9.53164488E-01  9.69085671E-01
  9.77124490E-01  9.83098538E-01  9.98267311E-01  1.00200459E+00  1.03036880E+00
  1.03281908E+00  1.04861835E+00  1.06073276E+00  1.08468414E+00  1.09438702E+00
  1.09655444E+00  1.11586392E+00  1.15088960E+00  1.23496156E+00  1.25821724E+00
  1.39259281E+00  1.43835935E+00  1.45338589E+00  1.48745299E+00  1.64779258E+00
  1.65555708E+00  1.71461603E+00  1.74446970E+00  1.75268837E+00  1.81328117E+00
  1.81903592E+00  1.86940129E+00  1.93982067E+00  2.02988876E+00  2.03492071E+00
  2.06780274E+00  2.09696564E+00  2.13757007E+00  2.14083697E+00  2.17051609E+00
  2.18709218E+00  2.28855605E+00  2.29158116E+00  2.30734553E+00  2.31801342E+00
  2.43901601E+00  2.44024393E+00  2.45459865E+00  2.50123143E+00  2.52742233E+00
  2.55416574E+00  2.58521708E+00  2.60196606E+00  2.61215810E+00  2.72831123E+00
  2.82569233E+00  2.85448001E+00  2.87418185E+00  2.87971566E+00  2.90767260E+00
  2.97855236E+00  3.98773499E+00  4.41861555E+00  4.52922029E+00  4.58625855E+00
  4.82257171E+00  4.82850065E+00  4.86278052E+00
Alpha MO coefficients                      R   N=       17689
  9.94955522E-01  2.52483692E-02 -1.29078944E-04 -6.61584226E-10 -2.60158501E-04
 -2.54185093E-03 -2.05489676E-04  8.87456733E-10 -2.04539254E-04 -3.47830972E-03
 -3.44568878E-03 -3.52327737E-03  2.44623233E-11 -6.41632581E-05  3.76345611E-11
 -3.78430846E-05 -5.14683502E-05 -1.58717518E-04  2.13245170E-11 -2.22614591E-04
  1.45747410E-03 -1.49153795E-04  1.41762956E-09 -6.16211729E-04 -8.48925495E-05
 -1.02108610E-04  1.59549531E-06  1.42410011E-10  7.27798503E-05 -4.89085595E-11
 -1.13585963E-05 -2.78390247E-05  5.02773702E-05 -3.58243844E-05  4.35405734E-05
  2.14519690E-05  6.49074587E-05 -7.40932605E-05 -7.47649137E-05 -3.82903608E-05
 -3.59854619E-05 -2.61256568E-05  5.99261784E-06 -1.06955807E-05  1.77143588E-05
 -1.13584375E-05 -2.78381013E-05  5.02771510E-05  3.58242408E-05  4.35404876E-05
  2.14458160E-05  6.49073613E-05  7.40960374E-05 -7.47616687E-05 -3.82903437E-05
 -3.59853847E-05 -2.61255270E-05 -5.99254142E-06 -1.06955005E-05 -1.77145071E-05
  9.27133979E-06  4.76648641E-05  3.87737681E-07  1.07793547E-05  1.43694853E-05
 -2.40705935E-04  7.73891352E-05 -1.45874542E-04 -1.10430095E-04 -3.71414903E-06
  3.37233550E-06  2.17954643E-05  4.66259708E-06  1.57272183E-06 -3.94194247E-06
  9.27120946E-06  4.76643828E-05  3.88357528E-07 -1.07786689E-05  1.43695267E-05
 -2.40705505E-04  7.73831841E-05  1.45870781E-04 -1.10428922E-04 -3.71417916E-06
  3.37190721E-06  2.17953311E-05 -4.66260826E-06  1.57257467E-06  3.94179834E-06
 -4.14010039E-06 -3.06646955E-05 -1.93785376E-05 -1.82751705E-10 -2.01322154E-06