179_Diethylamine Gaussian SP Calculation on node73.bme.utexas.edu       
Freq      RMP2-FC                                                     6-31G(d)            
Number of atoms                            I               16
Info1-9                                    I   N=           9
          27          26        1002           0           0         100
           6           2           1
Charge                                     I                0
Multiplicity                               I                1
Number of electrons                        I               42
Number of alpha electrons                  I               21
Number of beta electrons                   I               21
Number of basis functions                  I               97
Number of independent functions            I               97
Number of point charges in /Mol/           I                0
Number of translation vectors              I                0
Atomic numbers                             I   N=          16
           7           6           6           6           6           1
           1           1           1           1           1           1
           1           1           1           1
Nuclear charges                            R   N=          16
  7.00000000E+00  6.00000000E+00  6.00000000E+00  6.00000000E+00  6.00000000E+00
  1.00000000E+00  1.00000000E+00  1.00000000E+00  1.00000000E+00  1.00000000E+00
  1.00000000E+00  1.00000000E+00  1.00000000E+00  1.00000000E+00  1.00000000E+00
  1.00000000E+00
Current cartesian coordinates              R   N=          48
  3.35882175E-07 -5.38185366E-01 -1.46597694E-01 -2.29677847E+00  9.82851572E-01
  4.30976044E-02  2.29677864E+00  9.82849079E-01  4.31236232E-02 -4.62692764E+00
 -6.96510271E-01 -5.97761355E-02  4.62692866E+00 -6.96509117E-01 -5.97877139E-02
 -2.34158433E+00  2.15892565E+00  1.76946824E+00 -2.30680691E+00  2.29306920E+00
 -1.56151167E+00  2.30680153E+00  2.29309781E+00 -1.56146022E+00  2.34158608E+00
  2.15889064E+00  1.76951623E+00 -9.31204489E-06 -1.81213250E+00  1.30491914E+00
 -4.61482978E+00 -1.81871127E+00 -1.79182201E+00 -4.67086680E+00 -1.99463342E+00
  1.55089368E+00 -6.35708646E+00  4.33022062E-01 -6.38645697E-03  4.67086356E+00
 -1.99467423E+00  1.55084842E+00  4.61483551E+00 -1.81866593E+00 -1.79186207E+00
  6.35708739E+00  4.33021966E-01 -6.36369149E-03
Force Field                                I                0
Int Atom Types                             I   N=          16
           0           0           0           0           0           0
           0           0           0           0           0           0
           0           0           0           0
MM charges                                 R   N=          16
  0.00000000E+00  0.00000000E+00  0.00000000E+00  0.00000000E+00  0.00000000E+00
  0.00000000E+00  0.00000000E+00  0.00000000E+00  0.00000000E+00  0.00000000E+00
  0.00000000E+00  0.00000000E+00  0.00000000E+00  0.00000000E+00  0.00000000E+00
  0.00000000E+00
Integer atomic weights                     I   N=          16
          14          12          12          12          12           1
           1           1           1           1           1           1
           1           1           1           1
Real atomic weights                        R   N=          16
  1.40030740E+01  1.20000000E+01  1.20000000E+01  1.20000000E+01  1.20000000E+01
  1.00782504E+00  1.00782504E+00  1.00782504E+00  1.00782504E+00  1.00782504E+00
  1.00782504E+00  1.00782504E+00  1.00782504E+00  1.00782504E+00  1.00782504E+00
  1.00782504E+00
Atom fragment info                         I   N=          16
           0           0           0           0           0           0
           0           0           0           0           0           0
           0           0           0           0
Atom residue num                           I   N=          16
           0           0           0           0           0           0
           0           0           0           0           0           0
           0           0           0           0
Nuclear spins                              I   N=          16
           2           0           0           0           0           1
           1           1           1           1           1           1
           1           1           1           1
Nuclear ZEff                               R   N=          16
 -4.55000000E+00 -3.60000000E+00 -3.60000000E+00 -3.60000000E+00 -3.60000000E+00
 -1.00000000E+00 -1.00000000E+00 -1.00000000E+00 -1.00000000E+00 -1.00000000E+00
 -1.00000000E+00 -1.00000000E+00 -1.00000000E+00 -1.00000000E+00 -1.00000000E+00
 -1.00000000E+00
Nuclear QMom                               R   N=          16
  2.04400000E+00  0.00000000E+00  0.00000000E+00  0.00000000E+00  0.00000000E+00
  0.00000000E+00  0.00000000E+00  0.00000000E+00  0.00000000E+00  0.00000000E+00
  0.00000000E+00  0.00000000E+00  0.00000000E+00  0.00000000E+00  0.00000000E+00
  0.00000000E+00
Nuclear GFac                               R   N=          16
  4.03761000E-01  0.00000000E+00  0.00000000E+00  0.00000000E+00  0.00000000E+00
  2.79284600E+00  2.79284600E+00  2.79284600E+00  2.79284600E+00  2.79284600E+00
  2.79284600E+00  2.79284600E+00  2.79284600E+00  2.79284600E+00  2.79284600E+00
  2.79284600E+00
MicOpt                                     I   N=          16
          -1          -1          -1          -1          -1          -1
          -1          -1          -1          -1          -1          -1
          -1          -1          -1          -1
Number of contracted shells                I               42
Number of primitive shells                 I               99
Pure/Cartesian d shells                    I                1
Pure/Cartesian f shells                    I                0
Highest angular momentum                   I                2
Largest degree of contraction              I                6
Shell types                                I   N=          42
           0          -1          -1           2           0          -1
          -1           2           0          -1          -1           2
           0          -1          -1           2           0          -1
          -1           2           0           0           0           0
           0           0           0           0           0           0
           0           0           0           0           0           0
           0           0           0           0           0           0
Number of primitives per shell             I   N=          42
           6           3           1           1           6           3
           1           1           6           3           1           1
           6           3           1           1           6           3
           1           1           3           1           3           1
           3           1           3           1           3           1
           3           1           3           1           3           1
           3           1           3           1           3           1
Shell to atom map                          I   N=          42
           1           1           1           1           2           2
           2           2           3           3           3           3
           4           4           4           4           5           5
           5           5           6           6           7           7
           8           8           9           9          10          10
          11          11          12          12          13          13
          14          14          15          15          16          16
Primitive exponents                        R   N=          99
  4.17351146E+03  6.27457911E+02  1.42902093E+02  4.02343293E+01  1.28202129E+01
  4.39043701E+00  1.16263619E+01  2.71627981E+00  7.72218397E-01  2.12031498E-01
  8.00000000E-01  3.04752488E+03  4.57369518E+02  1.03948685E+02  2.92101553E+01
  9.28666296E+00  3.16392696E+00  7.86827235E+00  1.88128854E+00  5.44249258E-01
  1.68714478E-01  8.00000000E-01  3.04752488E+03  4.57369518E+02  1.03948685E+02
  2.92101553E+01  9.28666296E+00  3.16392696E+00  7.86827235E+00  1.88128854E+00
  5.44249258E-01  1.68714478E-01  8.00000000E-01  3.04752488E+03  4.57369518E+02
  1.03948685E+02  2.92101553E+01  9.28666296E+00  3.16392696E+00  7.86827235E+00
  1.88128854E+00  5.44249258E-01  1.68714478E-01  8.00000000E-01  3.04752488E+03
  4.57369518E+02  1.03948685E+02  2.92101553E+01  9.28666296E+00  3.16392696E+00
  7.86827235E+00  1.88128854E+00  5.44249258E-01  1.68714478E-01  8.00000000E-01
  1.87311370E+01  2.82539436E+00  6.40121692E-01  1.61277759E-01  1.87311370E+01
  2.82539436E+00  6.40121692E-01  1.61277759E-01  1.87311370E+01  2.82539436E+00
  6.40121692E-01  1.61277759E-01  1.87311370E+01  2.82539436E+00  6.40121692E-01
  1.61277759E-01  1.87311370E+01  2.82539436E+00  6.40121692E-01  1.61277759E-01
  1.87311370E+01  2.82539436E+00  6.40121692E-01  1.61277759E-01  1.87311370E+01
  2.82539436E+00  6.40121692E-01  1.61277759E-01  1.87311370E+01  2.82539436E+00
  6.40121692E-01  1.61277759E-01  1.87311370E+01  2.82539436E+00  6.40121692E-01
  1.61277759E-01  1.87311370E+01  2.82539436E+00  6.40121692E-01  1.61277759E-01
  1.87311370E+01  2.82539436E+00  6.40121692E-01  1.61277759E-01
Contraction coefficients                   R   N=          99
  1.83477216E-03  1.39946270E-02  6.85865518E-02  2.32240873E-01  4.69069948E-01
  3.60455199E-01 -1.14961182E-01 -1.69117479E-01  1.14585195E+00  1.00000000E+00
  1.00000000E+00  1.83473713E-03  1.40373228E-02  6.88426223E-02  2.32184443E-01
  4.67941348E-01  3.62311985E-01 -1.19332420E-01 -1.60854152E-01  1.14345644E+00
  1.00000000E+00  1.00000000E+00  1.83473713E-03  1.40373228E-02  6.88426223E-02
  2.32184443E-01  4.67941348E-01  3.62311985E-01 -1.19332420E-01 -1.60854152E-01
  1.14345644E+00  1.00000000E+00  1.00000000E+00  1.83473713E-03  1.40373228E-02
  6.88426223E-02  2.32184443E-01  4.67941348E-01  3.62311985E-01 -1.19332420E-01
 -1.60854152E-01  1.14345644E+00  1.00000000E+00  1.00000000E+00  1.83473713E-03
  1.40373228E-02  6.88426223E-02  2.32184443E-01  4.67941348E-01  3.62311985E-01
 -1.19332420E-01 -1.60854152E-01  1.14345644E+00  1.00000000E+00  1.00000000E+00
  3.34946043E-02  2.34726953E-01  8.13757326E-01  1.00000000E+00  3.34946043E-02
  2.34726953E-01  8.13757326E-01  1.00000000E+00  3.34946043E-02  2.34726953E-01
  8.13757326E-01  1.00000000E+00  3.34946043E-02  2.34726953E-01  8.13757326E-01
  1.00000000E+00  3.34946043E-02  2.34726953E-01  8.13757326E-01  1.00000000E+00
  3.34946043E-02  2.34726953E-01  8.13757326E-01  1.00000000E+00  3.34946043E-02
  2.34726953E-01  8.13757326E-01  1.00000000E+00  3.34946043E-02  2.34726953E-01
  8.13757326E-01  1.00000000E+00  3.34946043E-02  2.34726953E-01  8.13757326E-01
  1.00000000E+00  3.34946043E-02  2.34726953E-01  8.13757326E-01  1.00000000E+00
  3.34946043E-02  2.34726953E-01  8.13757326E-01  1.00000000E+00
P(S=P) Contraction coefficients            R   N=          99
  0.00000000E+00  0.00000000E+00  0.00000000E+00  0.00000000E+00  0.00000000E+00
  0.00000000E+00  6.75797439E-02  3.23907296E-01  7.40895140E-01  1.00000000E+00
  0.00000000E+00  0.00000000E+00  0.00000000E+00  0.00000000E+00  0.00000000E+00
  0.00000000E+00  0.00000000E+00  6.89990666E-02  3.16423961E-01  7.44308291E-01
  1.00000000E+00  0.00000000E+00  0.00000000E+00  0.00000000E+00  0.00000000E+00
  0.00000000E+00  0.00000000E+00  0.00000000E+00  6.89990666E-02  3.16423961E-01
  7.44308291E-01  1.00000000E+00  0.00000000E+00  0.00000000E+00  0.00000000E+00
  0.00000000E+00  0.00000000E+00  0.00000000E+00  0.00000000E+00  6.89990666E-02
  3.16423961E-01  7.44308291E-01  1.00000000E+00  0.00000000E+00  0.00000000E+00
  0.00000000E+00  0.00000000E+00  0.00000000E+00  0.00000000E+00  0.00000000E+00
  6.89990666E-02  3.16423961E-01  7.44308291E-01  1.00000000E+00  0.00000000E+00
  0.00000000E+00  0.00000000E+00  0.00000000E+00  0.00000000E+00  0.00000000E+00
  0.00000000E+00  0.00000000E+00  0.00000000E+00  0.00000000E+00  0.00000000E+00
  0.00000000E+00  0.00000000E+00  0.00000000E+00  0.00000000E+00  0.00000000E+00
  0.00000000E+00  0.00000000E+00  0.00000000E+00  0.00000000E+00  0.00000000E+00
  0.00000000E+00  0.00000000E+00  0.00000000E+00  0.00000000E+00  0.00000000E+00
  0.00000000E+00  0.00000000E+00  0.00000000E+00  0.00000000E+00  0.00000000E+00
  0.00000000E+00  0.00000000E+00  0.00000000E+00  0.00000000E+00  0.00000000E+00
  0.00000000E+00  0.00000000E+00  0.00000000E+00  0.00000000E+00  0.00000000E+00
  0.00000000E+00  0.00000000E+00  0.00000000E+00  0.00000000E+00
Coordinates of each shell                  R   N=         126
  3.35882175E-07 -5.38185366E-01 -1.46597694E-01  3.35882175E-07 -5.38185366E-01
 -1.46597694E-01  3.35882175E-07 -5.38185366E-01 -1.46597694E-01  3.35882175E-07
 -5.38185366E-01 -1.46597694E-01 -2.29677847E+00  9.82851572E-01  4.30976044E-02
 -2.29677847E+00  9.82851572E-01  4.30976044E-02 -2.29677847E+00  9.82851572E-01
  4.30976044E-02 -2.29677847E+00  9.82851572E-01  4.30976044E-02  2.29677864E+00
  9.82849079E-01  4.31236232E-02  2.29677864E+00  9.82849079E-01  4.31236232E-02
  2.29677864E+00  9.82849079E-01  4.31236232E-02  2.29677864E+00  9.82849079E-01
  4.31236232E-02 -4.62692764E+00 -6.96510271E-01 -5.97761355E-02 -4.62692764E+00
 -6.96510271E-01 -5.97761355E-02 -4.62692764E+00 -6.96510271E-01 -5.97761355E-02
 -4.62692764E+00 -6.96510271E-01 -5.97761355E-02  4.62692866E+00 -6.96509117E-01
 -5.97877139E-02  4.62692866E+00 -6.96509117E-01 -5.97877139E-02  4.62692866E+00
 -6.96509117E-01 -5.97877139E-02  4.62692866E+00 -6.96509117E-01 -5.97877139E-02
 -2.34158433E+00  2.15892565E+00  1.76946824E+00 -2.34158433E+00  2.15892565E+00
  1.76946824E+00 -2.30680691E+00  2.29306920E+00 -1.56151167E+00 -2.30680691E+00
  2.29306920E+00 -1.56151167E+00  2.30680153E+00  2.29309781E+00 -1.56146022E+00
  2.30680153E+00  2.29309781E+00 -1.56146022E+00  2.34158608E+00  2.15889064E+00
  1.76951623E+00  2.34158608E+00  2.15889064E+00  1.76951623E+00 -9.31204489E-06
 -1.81213250E+00  1.30491914E+00 -9.31204489E-06 -1.81213250E+00  1.30491914E+00
 -4.61482978E+00 -1.81871127E+00 -1.79182201E+00 -4.61482978E+00 -1.81871127E+00
 -1.79182201E+00 -4.67086680E+00 -1.99463342E+00  1.55089368E+00 -4.67086680E+00
 -1.99463342E+00  1.55089368E+00 -6.35708646E+00  4.33022062E-01 -6.38645697E-03
 -6.35708646E+00  4.33022062E-01 -6.38645697E-03  4.67086356E+00 -1.99467423E+00
  1.55084842E+00  4.67086356E+00 -1.99467423E+00  1.55084842E+00  4.61483551E+00
 -1.81866593E+00 -1.79186207E+00  4.61483551E+00 -1.81866593E+00 -1.79186207E+00
  6.35708739E+00  4.33021966E-01 -6.36369149E-03  6.35708739E+00  4.33021966E-01
 -6.36369149E-03
Constraint Structure                       R   N=          48
  3.35882175E-07 -5.38185366E-01 -1.46597694E-01 -2.29677847E+00  9.82851572E-01
  4.30976044E-02  2.29677864E+00  9.82849079E-01  4.31236232E-02 -4.62692764E+00
 -6.96510271E-01 -5.97761355E-02  4.62692866E+00 -6.96509117E-01 -5.97877139E-02
 -2.34158433E+00  2.15892565E+00  1.76946824E+00 -2.30680691E+00  2.29306920E+00
 -1.56151167E+00  2.30680153E+00  2.29309781E+00 -1.56146022E+00  2.34158608E+00
  2.15889064E+00  1.76951623E+00 -9.31204489E-06 -1.81213250E+00  1.30491914E+00
 -4.61482978E+00 -1.81871127E+00 -1.79182201E+00 -4.67086680E+00 -1.99463342E+00
  1.55089368E+00 -6.35708646E+00  4.33022062E-01 -6.38645697E-03  4.67086356E+00
 -1.99467423E+00  1.55084842E+00  4.61483551E+00 -1.81866593E+00 -1.79186207E+00
  6.35708739E+00  4.33021966E-01 -6.36369149E-03
Num ILSW                                   I              100
ILSW                                       I   N=         100
           0           1           0           0           2           0
           0           0           0           0           0          -1
           0           0           0           0           0           0
           0           0           0           0           1           0
           1           0           0           0           0           0
           0           0      100000           0          -1           0
           0           0           0           0           0           0
           0           0           0           1           1           0
           0           0           1           0           0           0
           0           0           4          40           0           0
           0           0           0           0           0           0
           0           0           0           0           0           0
           0           0           0           0           0           0
           0           0           0           0           0           0
           0           0           0           0           0           0
           0           0           0           0           0           0
           0           0           0           0
Num RLSW                                   I               40
RLSW                                       R   N=          40
  1.00000000E+00  1.00000000E+00  1.00000000E+00  1.00000000E+00  1.00000000E+00
  0.00000000E+00  0.00000000E+00  1.00000000E+00  0.00000000E+00  0.00000000E+00
  0.00000000E+00  0.00000000E+00  1.00000000E+00  0.00000000E+00  0.00000000E+00
  0.00000000E+00  0.00000000E+00  1.00000000E+00  0.00000000E+00  0.00000000E+00
  0.00000000E+00  0.00000000E+00  1.00000000E+00  0.00000000E+00  0.00000000E+00
  0.00000000E+00  0.00000000E+00  1.00000000E+00  0.00000000E+00  0.00000000E+00
  0.00000000E+00  0.00000000E+00  0.00000000E+00  0.00000000E+00  0.00000000E+00
  0.00000000E+00  0.00000000E+00  0.00000000E+00  1.00000000E+00  1.00000000E+00
MxBond                                     I                4
NBond                                      I   N=          16
           3           4           4           4           4           1
           1           1           1           1           1           1
           1           1           1           1
IBond                                      I   N=          64
           2           3          10           0           1           4
           6           7           1           5           8           9
           2          11          12          13           3          14
          15          16           2           0           0           0
           2           0           0           0           3           0
           0           0           3           0           0           0
           1           0           0           0           4           0
           0           0           4           0           0           0
           4           0           0           0           5           0
           0           0           5           0           0           0
           5           0           0           0
RBond                                      R   N=          64
  1.00000000E+00  1.00000000E+00  1.00000000E+00  0.00000000E+00  1.00000000E+00
  1.00000000E+00  1.00000000E+00  1.00000000E+00  1.00000000E+00  1.00000000E+00
  1.00000000E+00  1.00000000E+00  1.00000000E+00  1.00000000E+00  1.00000000E+00
  1.00000000E+00  1.00000000E+00  1.00000000E+00  1.00000000E+00  1.00000000E+00
  1.00000000E+00  0.00000000E+00  0.00000000E+00  0.00000000E+00  1.00000000E+00
  0.00000000E+00  0.00000000E+00  0.00000000E+00  1.00000000E+00  0.00000000E+00
  0.00000000E+00  0.00000000E+00  1.00000000E+00  0.00000000E+00  0.00000000E+00
  0.00000000E+00  1.00000000E+00  0.00000000E+00  0.00000000E+00  0.00000000E+00
  1.00000000E+00  0.00000000E+00  0.00000000E+00  0.00000000E+00  1.00000000E+00
  0.00000000E+00  0.00000000E+00  0.00000000E+00  1.00000000E+00  0.00000000E+00
  0.00000000E+00  0.00000000E+00  1.00000000E+00  0.00000000E+00  0.00000000E+00
  0.00000000E+00  1.00000000E+00  0.00000000E+00  0.00000000E+00  0.00000000E+00
  1.00000000E+00  0.00000000E+00  0.00000000E+00  0.00000000E+00
Virial Ratio                               R      2.001545299349421E+00
SCF Energy                                 R     -2.123128109983936E+02
MP2 Energy                                 R     -2.130027804307927E+02
Total Energy                               R     -2.130027804307927E+02
Post-SCF wavefunction norm                 R      1.564762415121796E+00
RMS Force                                  R      1.143910795879586E-06
RMS Density                                R      1.408536429614073E-09
External E-field                           R   N=          35
  0.00000000E+00  0.00000000E+00  0.00000000E+00  0.00000000E+00  0.00000000E+00
  0.00000000E+00  0.00000000E+00  0.00000000E+00  0.00000000E+00  0.00000000E+00
  0.00000000E+00  0.00000000E+00  0.00000000E+00  0.00000000E+00  0.00000000E+00
  0.00000000E+00  0.00000000E+00  0.00000000E+00  0.00000000E+00  0.00000000E+00
  0.00000000E+00  0.00000000E+00  0.00000000E+00  0.00000000E+00  0.00000000E+00
  0.00000000E+00  0.00000000E+00  0.00000000E+00  0.00000000E+00  0.00000000E+00
  0.00000000E+00  0.00000000E+00  0.00000000E+00  0.00000000E+00  0.00000000E+00
IOpCl                                      I                0
IROHF                                      I                0
Alpha Orbital Energies                     R   N=          97
 -1.55399392E+01 -1.12440711E+01 -1.12440534E+01 -1.12115648E+01 -1.12115635E+01
 -1.20137457E+00 -1.02634376E+00 -9.60556321E-01 -8.26827548E-01 -8.17267545E-01
 -6.59259930E-01 -6.25155217E-01 -5.96900449E-01 -5.83957766E-01 -5.52146144E-01
 -5.19354945E-01 -5.06038812E-01 -4.86762873E-01 -4.80205997E-01 -4.70739903E-01
 -3.65556453E-01  2.28027530E-01  2.54605880E-01  2.66620166E-01  2.88456312E-01
  3.14522476E-01  3.17262349E-01  3.22867989E-01  3.28680683E-01  3.47333791E-01
  3.54445367E-01  3.55118861E-01  3.94948694E-01  4.27233934E-01  4.48746175E-01
  4.57067357E-01  6.99556000E-01  7.37955636E-01  7.40731889E-01  7.54121591E-01
  7.72757618E-01  8.04847340E-01  8.75671799E-01  8.91762213E-01  9.18976384E-01
  9.61206590E-01  9.64170482E-01  1.06246025E+00  1.06843832E+00  1.10742372E+00
  1.15782624E+00  1.15890438E+00  1.16633619E+00  1.17028375E+00  1.19581105E+00
  1.19852478E+00  1.21252601E+00  1.22731712E+00  1.23749757E+00  1.24713924E+00
  1.26428950E+00  1.28821367E+00  1.34091915E+00  1.55317505E+00  1.63080082E+00
  1.68934562E+00  1.71909335E+00  1.75418395E+00  1.90455670E+00  1.93280282E+00
  2.03765140E+00  2.10733059E+00  2.21971423E+00  2.25435303E+00  2.26176931E+00
  2.31434474E+00  2.33403720E+00  2.39129587E+00  2.40212348E+00  2.44098619E+00
  2.54719419E+00  2.57947265E+00  2.60802812E+00  2.64985818E+00  2.66310613E+00
  2.75524237E+00  2.79322642E+00  2.80840745E+00  2.92871197E+00  2.99964485E+00
  3.14778985E+00  3.23633114E+00  4.33958894E+00  4.62031327E+00  4.62567047E+00
  4.81488513E+00  4.89322889E+00
Alpha MO coefficients                      R   N=        9409
  9.95106379E-01  2.50444974E-02 -7.06376492E-09  7.51903557E-04  1.30958326E-03
 -4.12678609E-03  6.02250513E-09 -1.13186329E-03 -1.28689432E-03 -3.28003186E-03
 -3.22656365E-03 -3.03110630E-03 -4.79337882E-10 -1.41915127E-09  8.24317090E-05
 -2.70269111E-05  1.19021696E-04  2.66468169E-04 -1.30360496E-04 -3.64263415E-05
  2.24282792E-03  5.26560944E-04 -5.04951547E-04  4.04361234E-04 -1.23325469E-04
 -1.36693171E-04 -9.75774812E-05  6.51191916E-05  3.55410666E-05 -3.50921202E-06
 -2.70268589E-05  1.19021888E-04 -2.66467241E-04 -1.30360493E-04 -3.64276058E-05
  2.24282586E-03 -5.26571541E-04 -5.04950367E-04  4.04340644E-04 -1.23325168E-04
 -1.36693773E-04 -9.75769909E-05 -6.51183245E-05 -3.55419318E-05 -3.50953212E-06
  4.16097316E-06  4.85910728E-05 -5.20748808E-05 -2.21195633E-05  7.55789615E-06
 -4.29792001E-04 -3.13159492E-04 -5.25437196E-05 -1.56541870E-04 -4.79697069E-05
  1.55210785E-05 -2.91751546E-05 -3.07962873E-05 -1.82245725E-05 -3.38174998E-06
  4.16098880E-06  4.85909948E-05  5.20741086E-05 -2.21197751E-05  7.55794814E-06
 -4.29783666E-04  3.13158283E-04 -5.25348068E-05 -1.56542106E-04 -4.79698561E-05
  1.55215473E-05 -2.91751361E-05  3.07955054E-05  1.82248792E-05 -3.38022677E-06
 -1.68636305E-04 -2.94143631E-04 -6.84036352E-05 -1.23881750E-05 -6.84042601E-05
 -1.23973781E-05 -1.68636634E-04 -2.94137827E-04  3.77846766E-04  6.46003098E-04
  2.82001253E-05 -1.06337279E-04  4.96851176E-05 -1.44413957E-05 -1.10096025E-05
  1.26043588E-05  4.96853237E-05 -1.44402060E-05  2.81998949E-05 -1.06335771E-04
 -1.10100081E-05  1.26026425E-05 -1.01690499E-07  5.89955537E-08 -6.71479441E-05
  4.32444453E-09  1.46450348E-08  1.22808511E-06 -1.47487130E-03  1.69113024E-07
 -4.72354227E-08 -2.19369611E-07 -1.54808266E-07 -1.53780166E-08  3.41801799E-04
  3.89482399E-05 -1.17752010E-08  7.04437273E-01  2.00184985E-02  2.60705409E-04
 -1.13465946E-04 -1.98156523E-05 -1.18189675E-02 -5.50855210E-04  2.38058594E-05
  1.61060741E-04 -1.11918838E-03 -1.07396262E-03 -1.04148560E-03  5.39873514E-06
 -5.11810969E-06 -1.63456898E-05 -7.03946519E-01 -2.00048410E-02  2.60600112E-04
  1.13332735E-04  1.97990961E-05  1.18115730E-02 -5.51297267E-04 -2.33728230E-05
 -1.60902050E-04  1.11846559E-03  1.07317118E-03  1.04069406E-03  5.40838597E-06
 -5.11595436E-06  1.63401324E-05  6.54999998E-03  2.75787828E-04  1.03432041E-05
  1.59717935E-05  1.79680388E-06  2.13696036E-03  9.60860958E-04  5.69706295E-04
 -5.12559874E-06 -2.56039493E-04 -1.80776274E-04 -5.67868225E-05 -1.43859819E-04
 -1.43717972E-05 -1.26057647E-05 -6.54536388E-03 -2.75643313E-04  1.03095121E-05
 -1.59738896E-05 -1.79454441E-06 -2.13488120E-03  9.60085707E-04 -5.69094219E-04
  5.11135545E-06  2.55854365E-04  1.80638842E-04  5.67200329E-05 -1.43756409E-04
 -1.43619989E-05  1.26023289E-05  2.10813590E-04  2.05618430E-03  2.25040713E-04
  2.22447558E-03 -2.24947724E-04 -2.22322622E-03 -2.10743437E-04 -2.05505235E-03
 -2.68446908E-08  1.20772158E-07 -1.03819495E-04  5.86739445E-05 -1.07396436E-04
  1.01966833E-04 -5.07562461E-05  1.01775001E-05  1.07327826E-04 -1.01927035E-04
  1.03741335E-04 -5.86380746E-05  5.06787044E-05 -1.02159394E-05 -2.91639611E-04
  1.69160432E-04  2.34589953E-08  1.10711201E-05  4.31050822E-05  3.52345916E-03
  5.13754425E-07  4.93384022E-04 -1.12467568E-04 -6.28570808E-04 -4.42019854E-04
 -4.48161366E-05 -1.18960230E-07 -1.72935635E-08 -4.08906742E-05  7.03887382E-01
  1.95885419E-02  1.52904547E-04 -1.88536384E-04 -2.74607913E-05 -1.06046218E-02
  6.22925232E-04  6.11097334E-04  2.34099814E-04 -1.03685815E-03 -1.13505014E-03
 -1.13559468E-03 -1.33424650E-05  1.29638188E-06 -6.14683927E-06  7.04378178E-01
  1.96024894E-02 -1.53086784E-04 -1.88614381E-04 -2.74797092E-05 -1.06128604E-02
 -6.22546733E-04  6.11113333E-04  2.34227154E-04 -1.03763779E-03 -1.13579856E-03
 -1.13632019E-03  1.33389229E-05 -1.29024567E-06 -6.15906180E-06  6.58310274E-03
  2.05979491E-04  4.83584873E-05 -3.62322346E-06  5.88094340E-06  2.97417399E-03
  1.10834880E-03  8.76575866E-04 -1.33418794E-05 -2.65335033E-04 -1.95977649E-04
 -9.60653614E-05 -1.47819530E-04 -1.93180996E-05 -8.51439323E-06  6.58761850E-03
  2.06168660E-04 -4.83654716E-05 -3.61183516E-06  5.88142799E-06  2.97567326E-03
 -1.10902422E-03  8.76973072E-04 -1.33227333E-05 -2.65513485E-04 -1.96103355E-04
 -9.61055621E-05  1.47918780E-04  1.93314365E-05 -8.52596023E-06  9.69198229E-05
  1.63704423E-03  1.37847037E-04  1.77911679E-03  1.38003294E-04  1.78067025E-03
  9.70663747E-05  1.63847257E-03 -7.91167517E-05  3.60893914E-04 -1.13929994E-04
  4.98474914E-05 -9.55265880E-05  5.85283911E-05 -1.11150761E-04 -5.57243400E-05
 -9.56022012E-05  5.85977419E-05 -1.14002811E-04  4.98888621E-05 -1.11186279E-04
 -5.57158032E-05 -8.64150351E-07 -1.36658655E-05  1.63528897E-04  5.86163893E-06
 -2.33591858E-06 -1.80952460E-05 -9.47714725E-04 -4.75948022E-05  1.94313999E-05
  6.54251172E-06 -2.57336011E-06 -8.74462293E-06 -3.57722696E-05 -1.15582418E-05
 -2.90447727E-06 -7.31922580E-03 -3.97432137E-05 -2.57149946E-05  5.56565305E-05
 -3.10357803E-06  2.23223484E-03 -1.70117437E-03 -7.59198265E-04  2.97499388E-05
 -2.72329809E-04 -1.86154211E-04 -3.63503667E-05 -9.06775185E-05 -5.85288391E-06
 -1.13262214E-05  6.07922488E-03  9.11990356E-06 -2.64699887E-05 -5.74792709E-05
  3.88215701E-06 -1.66190921E-03 -1.54849178E-03  6.33859628E-04 -5.87440881E-05
  2.28775088E-04  1.48557124E-04  2.36285810E-05 -6.82838723E-05 -1.82202894E-06
  9.56588161E-06  7.65215532E-01  2.19246320E-02  5.83913099E-05  1.18002070E-05
  4.55544343E-05 -1.18972093E-02 -6.70344185E-04 -2.96047601E-04 -7.88827698E-05
 -1.40993931E-03 -1.41012272E-03 -1.38353852E-03 -3.15457231E-05 -4.24217537E-06
  1.28996768E-06 -6.37090999E-01 -1.82616390E-02  5.26675344E-05 -9.64256804E-06
 -3.86997817E-05  9.95203389E-03 -5.80834725E-04  2.59245602E-04  7.82885160E-05
  1.17233695E-03  1.17303206E-03  1.14723725E-03 -2.69516444E-05 -4.95758580E-06
 -4.97139413E-07 -6.89439786E-05  3.83646200E-05 -5.55519561E-05  1.02487771E-04
  3.17070483E-05 -1.17117781E-04  4.93877769E-05 -4.00345660E-05 -1.25389580E-05
 -1.98650298E-05  1.33187140E-04  1.98745054E-03  1.21500698E-04  2.04375721E-03
  9.78484619E-05  1.84065546E-03 -1.04560377E-04 -1.70534214E-03 -1.11663494E-04
 -1.65362937E-03 -8.39709640E-05 -1.52145611E-03 -9.46167163E-06 -1.49574372E-04
 -1.49414339E-05  6.41646896E-05 -2.55670185E-05 -1.97999962E-04  8.65914016E-05
 -5.20977035E-04  2.12717158E-04  7.15911735E-05 -2.81800615E-05 -9.57137736E-05
  3.26892054E-06  1.05472534E-06 -3.17674935E-05 -6.17338833E-03 -1.65351281E-04
  6.51694944E-06 -1.51396621E-05  4.57369108E-06  2.94317018E-03 -6.87057051E-04
 -6.22275692E-04 -1.62736291E-04 -2.15452707E-04 -1.90456311E-04 -6.68827724E-05
 -1.15285521E-04 -2.17148878E-05 -8.68781184E-06 -7.39753657E-03 -1.69814227E-04
 -1.74921041E-06 -4.80231045E-06  3.93645359E-06  3.29896995E-03  9.83979818E-04
 -7.49556661E-04 -1.54675928E-04 -2.61238188E-04 -2.21037374E-04 -7.23634668E-05
  1.29808621E-04  2.24195304E-05 -1.06005285E-05  6.37079264E-01  1.82093120E-02